 Entering Gaussian System, Link 0=/share/apps/gaussian16/g16/g16
 Initial command:
 /share/apps/gaussian16/g16/l1.exe "/home/amen01//scratch/706/Gau-5142.inp" -scrdir="/home/amen01//scratch/706/"
 Entering Link 1 = /share/apps/gaussian16/g16/l1.exe PID=      5143.
  
 Copyright (c) 1988-2017, Gaussian, Inc.  All Rights Reserved.
  
 This is part of the Gaussian(R) 16 program.  It is based on
 the Gaussian(R) 09 system (copyright 2009, Gaussian, Inc.),
 the Gaussian(R) 03 system (copyright 2003, Gaussian, Inc.),
 the Gaussian(R) 98 system (copyright 1998, Gaussian, Inc.),
 the Gaussian(R) 94 system (copyright 1995, Gaussian, Inc.),
 the Gaussian 92(TM) system (copyright 1992, Gaussian, Inc.),
 the Gaussian 90(TM) system (copyright 1990, Gaussian, Inc.),
 the Gaussian 88(TM) system (copyright 1988, Gaussian, Inc.),
 the Gaussian 86(TM) system (copyright 1986, Carnegie Mellon
 University), and the Gaussian 82(TM) system (copyright 1983,
 Carnegie Mellon University). Gaussian is a federally registered
 trademark of Gaussian, Inc.
  
 This software contains proprietary and confidential information,
 including trade secrets, belonging to Gaussian, Inc.
  
 This software is provided under written license and may be
 used, copied, transmitted, or stored only in accord with that
 written license.
  
 The following legend is applicable only to US Government
 contracts under FAR:
  
                    RESTRICTED RIGHTS LEGEND
  
 Use, reproduction and disclosure by the US Government is
 subject to restrictions as set forth in subparagraphs (a)
 and (c) of the Commercial Computer Software - Restricted
 Rights clause in FAR 52.227-19.
  
 Gaussian, Inc.
 340 Quinnipiac St., Bldg. 40, Wallingford CT 06492
  
  
 ---------------------------------------------------------------
 Warning -- This program may not be used in any manner that
 competes with the business of Gaussian, Inc. or will provide
 assistance to any competitor of Gaussian, Inc.  The licensee
 of this program is prohibited from giving any competitor of
 Gaussian, Inc. access to this program.  By using this program,
 the user acknowledges that Gaussian, Inc. is engaged in the
 business of creating and licensing software in the field of
 computational chemistry and represents and warrants to the
 licensee that it is not a competitor of Gaussian, Inc. and that
 it will not use this program in any manner prohibited above.
 ---------------------------------------------------------------
  

 Cite this work as:
 Gaussian 16, Revision B.01,
 M. J. Frisch, G. W. Trucks, H. B. Schlegel, G. E. Scuseria, 
 M. A. Robb, J. R. Cheeseman, G. Scalmani, V. Barone, 
 G. A. Petersson, H. Nakatsuji, X. Li, M. Caricato, A. V. Marenich, 
 J. Bloino, B. G. Janesko, R. Gomperts, B. Mennucci, H. P. Hratchian, 
 J. V. Ortiz, A. F. Izmaylov, J. L. Sonnenberg, D. Williams-Young, 
 F. Ding, F. Lipparini, F. Egidi, J. Goings, B. Peng, A. Petrone, 
 T. Henderson, D. Ranasinghe, V. G. Zakrzewski, J. Gao, N. Rega, 
 G. Zheng, W. Liang, M. Hada, M. Ehara, K. Toyota, R. Fukuda, 
 J. Hasegawa, M. Ishida, T. Nakajima, Y. Honda, O. Kitao, H. Nakai, 
 T. Vreven, K. Throssell, J. A. Montgomery, Jr., J. E. Peralta, 
 F. Ogliaro, M. J. Bearpark, J. J. Heyd, E. N. Brothers, K. N. Kudin, 
 V. N. Staroverov, T. A. Keith, R. Kobayashi, J. Normand, 
 K. Raghavachari, A. P. Rendell, J. C. Burant, S. S. Iyengar, 
 J. Tomasi, M. Cossi, J. M. Millam, M. Klene, C. Adamo, R. Cammi, 
 J. W. Ochterski, R. L. Martin, K. Morokuma, O. Farkas, 
 J. B. Foresman, and D. J. Fox, Gaussian, Inc., Wallingford CT, 2016.
 
 ******************************************
 Gaussian 16:  ES64L-G16RevB.01 20-Dec-2017
                24-Jul-2019 
 ******************************************
 %nprocshared=20
 Will use up to   20 processors via shared memory.
 %mem=160GB
 %chk=7-memb2-habsTSguess-1a.chk
 ---------------------------------------------------------------
 # opt=(ts,calcfc,noeigen) freq b3lyp/6-311+g(d,p) int=grid=fine
 ---------------------------------------------------------------
 1/5=1,10=4,11=1,18=20,26=3,38=1/1,3;
 2/9=110,12=2,17=6,18=5,40=1/2;
 3/5=4,6=6,7=111,11=2,25=1,30=1,71=2,74=-5,75=-4,140=1/1,2,3;
 4//1;
 5/5=2,38=5/2;
 8/6=4,10=90,11=11/1;
 11/6=1,8=1,9=11,15=111,16=1/1,2,10;
 10/6=1,13=1/2;
 6/7=2,8=2,9=2,10=2,28=1/1;
 7/10=1,18=20,25=1/1,2,3,16;
 1/5=1,10=4,11=1,18=20,26=3/3(2);
 2/9=110/2;
 99//99;
 2/9=110/2;
 3/5=4,6=6,7=111,11=2,25=1,30=1,71=1,74=-5,75=-4/1,2,3;
 4/5=5,16=3,69=1/1;
 5/5=2,38=5/2;
 7//1,2,3,16;
 1/5=1,11=1,18=20,26=3/3(-5);
 2/9=110/2;
 6/7=2,8=2,9=2,10=2,19=2,28=1/1;
 99/9=1/99;
 ----------------------
 7-memb2-habsTSguess-1a
 ----------------------
 Symbolic Z-matrix:
 Charge =  0 Multiplicity = 2
 C                     0.7923    1.0094   -0.3587 
 C                     0.4568   -0.4219   -0.0113 
 C                     1.7023   -1.0363    0.2544 
 C                     2.2029    1.1259   -0.1996 
 C                     2.7457   -0.1022    0.1747 
 C                     3.0192    2.2089   -0.51 
 C                     4.4351    1.9764   -0.346 
 C                     4.9502    0.7465    0.0264 
 C                     4.091    -0.3829    0.2751 
 C                     1.9861   -2.3926    0.438 
 C                     3.3881   -2.7208    0.6113 
 C                     4.3882   -1.7746    0.5392 
 C                     0.17      2.1279   -0.886 
 C                     0.9553    3.2794   -1.1865 
 C                     2.3298    3.3471   -1.0083 
 C                    -0.672    -1.2689    0.0038 
 C                    -0.3991   -2.7044    0.0403 
 C                     0.8793   -3.2387    0.2928 
 C                    -2.0605   -0.8481   -0.0918 
 C                    -3.0099   -1.7647   -0.5934 
 C                    -2.6742   -3.1534   -0.7034 
 C                    -1.4581   -3.6077   -0.3093 
 C                    -2.5465    0.4396    0.3556 
 C                    -3.8617    0.8731   -0.0323 
 C                    -4.7078   -0.03     -0.7385 
 C                    -4.318    -1.3194   -0.9463 
 C                    -4.33      2.1499    0.3652 
 C                    -3.5909    2.9567    1.2008 
 C                    -2.3552    2.4889    1.7029 
 C                    -1.8859    1.2833    1.2654 
 H                    -1.2432    2.04158  -1.18822 
 H                     0.4419    4.1453   -1.5901 
 H                     2.8654    4.2523   -1.2746 
 H                     5.1249    2.7902   -0.5464 
 H                     6.0265    0.6318    0.1053 
 H                     5.4198   -2.0911    0.6552 
 H                     3.6603   -3.7579    0.7787 
 H                     0.9935   -4.3181    0.3068 
 H                    -1.2414   -4.6706   -0.3133 
 H                    -3.4367   -3.8427   -1.0495 
 H                    -5.0001   -2.0335   -1.3955 
 H                    -5.6931    0.3067   -1.0431 
 H                    -5.3114    2.4664    0.0282 
 H                    -3.9703    3.9243    1.5105 
 H                    -1.8004    3.0687    2.4329 
 H                    -1.04426   0.93241   1.68218 
 H                    -2.17102   1.8278   -1.55319 
 
 Add virtual bond connecting atoms H47        and H31        Dist= 1.93D+00.
 Add virtual bond connecting atoms H31        and C13        Dist= 2.74D+00.

 GradGradGradGradGradGradGradGradGradGradGradGradGradGradGradGradGradGrad
 Berny optimization.
 Initialization pass.
                           ----------------------------
                           !    Initial Parameters    !
                           ! (Angstroms and Degrees)  !
 --------------------------                            --------------------------
 ! Name  Definition              Value          Derivative Info.                !
 --------------------------------------------------------------------------------
 ! R1    R(1,2)                  1.5106         calculate D2E/DX2 analytically  !
 ! R2    R(1,4)                  1.4243         calculate D2E/DX2 analytically  !
 ! R3    R(1,13)                 1.3843         calculate D2E/DX2 analytically  !
 ! R4    R(2,3)                  1.414          calculate D2E/DX2 analytically  !
 ! R5    R(2,16)                 1.4113         calculate D2E/DX2 analytically  !
 ! R6    R(3,5)                  1.4027         calculate D2E/DX2 analytically  !
 ! R7    R(3,10)                 1.3978         calculate D2E/DX2 analytically  !
 ! R8    R(4,5)                  1.3939         calculate D2E/DX2 analytically  !
 ! R9    R(4,6)                  1.3913         calculate D2E/DX2 analytically  !
 ! R10   R(5,9)                  1.3779         calculate D2E/DX2 analytically  !
 ! R11   R(6,7)                  1.4442         calculate D2E/DX2 analytically  !
 ! R12   R(6,15)                 1.4209         calculate D2E/DX2 analytically  !
 ! R13   R(7,8)                  1.3844         calculate D2E/DX2 analytically  !
 ! R14   R(7,34)                 1.0855         calculate D2E/DX2 analytically  !
 ! R15   R(8,9)                  1.4407         calculate D2E/DX2 analytically  !
 ! R16   R(8,35)                 1.0853         calculate D2E/DX2 analytically  !
 ! R17   R(9,12)                 1.4474         calculate D2E/DX2 analytically  !
 ! R18   R(10,11)                1.4503         calculate D2E/DX2 analytically  !
 ! R19   R(10,18)                1.4007         calculate D2E/DX2 analytically  !
 ! R20   R(11,12)                1.3787         calculate D2E/DX2 analytically  !
 ! R21   R(11,37)                1.0852         calculate D2E/DX2 analytically  !
 ! R22   R(12,36)                1.0853         calculate D2E/DX2 analytically  !
 ! R23   R(13,14)                1.4258         calculate D2E/DX2 analytically  !
 ! R24   R(13,31)                1.4477         calculate D2E/DX2 analytically  !
 ! R25   R(14,15)                1.3877         calculate D2E/DX2 analytically  !
 ! R26   R(14,32)                1.0846         calculate D2E/DX2 analytically  !
 ! R27   R(15,33)                1.085          calculate D2E/DX2 analytically  !
 ! R28   R(16,17)                1.4617         calculate D2E/DX2 analytically  !
 ! R29   R(16,19)                1.454          calculate D2E/DX2 analytically  !
 ! R30   R(17,18)                1.4084         calculate D2E/DX2 analytically  !
 ! R31   R(17,22)                1.4351         calculate D2E/DX2 analytically  !
 ! R32   R(18,38)                1.0855         calculate D2E/DX2 analytically  !
 ! R33   R(19,20)                1.4118         calculate D2E/DX2 analytically  !
 ! R34   R(19,23)                1.4473         calculate D2E/DX2 analytically  !
 ! R35   R(20,21)                1.4329         calculate D2E/DX2 analytically  !
 ! R36   R(20,26)                1.4262         calculate D2E/DX2 analytically  !
 ! R37   R(21,22)                1.3567         calculate D2E/DX2 analytically  !
 ! R38   R(21,40)                1.0846         calculate D2E/DX2 analytically  !
 ! R39   R(22,39)                1.0848         calculate D2E/DX2 analytically  !
 ! R40   R(23,24)                1.4381         calculate D2E/DX2 analytically  !
 ! R41   R(23,30)                1.4057         calculate D2E/DX2 analytically  !
 ! R42   R(24,25)                1.4248         calculate D2E/DX2 analytically  !
 ! R43   R(24,27)                1.4169         calculate D2E/DX2 analytically  !
 ! R44   R(25,26)                1.363          calculate D2E/DX2 analytically  !
 ! R45   R(25,42)                1.0849         calculate D2E/DX2 analytically  !
 ! R46   R(26,41)                1.0849         calculate D2E/DX2 analytically  !
 ! R47   R(27,28)                1.3767         calculate D2E/DX2 analytically  !
 ! R48   R(27,43)                1.0848         calculate D2E/DX2 analytically  !
 ! R49   R(28,29)                1.4135         calculate D2E/DX2 analytically  !
 ! R50   R(28,44)                1.0845         calculate D2E/DX2 analytically  !
 ! R51   R(29,30)                1.3657         calculate D2E/DX2 analytically  !
 ! R52   R(29,45)                1.0848         calculate D2E/DX2 analytically  !
 ! R53   R(30,46)                1.0026         calculate D2E/DX2 analytically  !
 ! R54   R(31,47)                1.0197         calculate D2E/DX2 analytically  !
 ! A1    A(2,1,4)              105.7697         calculate D2E/DX2 analytically  !
 ! A2    A(2,1,13)             138.8795         calculate D2E/DX2 analytically  !
 ! A3    A(4,1,13)             114.9398         calculate D2E/DX2 analytically  !
 ! A4    A(1,2,3)              105.028          calculate D2E/DX2 analytically  !
 ! A5    A(1,2,16)             138.482          calculate D2E/DX2 analytically  !
 ! A6    A(3,2,16)             116.2143         calculate D2E/DX2 analytically  !
 ! A7    A(2,3,5)              110.8046         calculate D2E/DX2 analytically  !
 ! A8    A(2,3,10)             128.6929         calculate D2E/DX2 analytically  !
 ! A9    A(5,3,10)             120.1721         calculate D2E/DX2 analytically  !
 ! A10   A(1,4,5)              110.0958         calculate D2E/DX2 analytically  !
 ! A11   A(1,4,6)              128.3042         calculate D2E/DX2 analytically  !
 ! A12   A(5,4,6)              121.1494         calculate D2E/DX2 analytically  !
 ! A13   A(3,5,4)              108.1986         calculate D2E/DX2 analytically  !
 ! A14   A(3,5,9)              125.9044         calculate D2E/DX2 analytically  !
 ! A15   A(4,5,9)              125.3966         calculate D2E/DX2 analytically  !
 ! A16   A(4,6,7)              115.1243         calculate D2E/DX2 analytically  !
 ! A17   A(4,6,15)             114.6525         calculate D2E/DX2 analytically  !
 ! A18   A(7,6,15)             130.1237         calculate D2E/DX2 analytically  !
 ! A19   A(6,7,8)              122.5705         calculate D2E/DX2 analytically  !
 ! A20   A(6,7,34)             118.7747         calculate D2E/DX2 analytically  !
 ! A21   A(8,7,34)             118.6366         calculate D2E/DX2 analytically  !
 ! A22   A(7,8,9)              121.3968         calculate D2E/DX2 analytically  !
 ! A23   A(7,8,35)             118.8447         calculate D2E/DX2 analytically  !
 ! A24   A(9,8,35)             119.7388         calculate D2E/DX2 analytically  !
 ! A25   A(5,9,8)              114.2036         calculate D2E/DX2 analytically  !
 ! A26   A(5,9,12)             114.1824         calculate D2E/DX2 analytically  !
 ! A27   A(8,9,12)             131.5143         calculate D2E/DX2 analytically  !
 ! A28   A(3,10,11)            115.5662         calculate D2E/DX2 analytically  !
 ! A29   A(3,10,18)            114.3353         calculate D2E/DX2 analytically  !
 ! A30   A(11,10,18)           129.7584         calculate D2E/DX2 analytically  !
 ! A31   A(10,11,12)           122.6631         calculate D2E/DX2 analytically  !
 ! A32   A(10,11,37)           118.5008         calculate D2E/DX2 analytically  !
 ! A33   A(12,11,37)           118.8164         calculate D2E/DX2 analytically  !
 ! A34   A(9,12,11)            121.3662         calculate D2E/DX2 analytically  !
 ! A35   A(9,12,36)            119.6761         calculate D2E/DX2 analytically  !
 ! A36   A(11,12,36)           118.9336         calculate D2E/DX2 analytically  !
 ! A37   A(1,13,14)            119.0267         calculate D2E/DX2 analytically  !
 ! A38   A(1,13,31)            118.0443         calculate D2E/DX2 analytically  !
 ! A39   A(14,13,31)           122.8058         calculate D2E/DX2 analytically  !
 ! A40   A(13,14,15)           123.9098         calculate D2E/DX2 analytically  !
 ! A41   A(13,14,32)           117.5484         calculate D2E/DX2 analytically  !
 ! A42   A(15,14,32)           118.5369         calculate D2E/DX2 analytically  !
 ! A43   A(6,15,14)            119.1125         calculate D2E/DX2 analytically  !
 ! A44   A(6,15,33)            120.9881         calculate D2E/DX2 analytically  !
 ! A45   A(14,15,33)           119.8781         calculate D2E/DX2 analytically  !
 ! A46   A(2,16,17)            116.1256         calculate D2E/DX2 analytically  !
 ! A47   A(2,16,19)            126.1139         calculate D2E/DX2 analytically  !
 ! A48   A(17,16,19)           117.6559         calculate D2E/DX2 analytically  !
 ! A49   A(16,17,18)           123.1293         calculate D2E/DX2 analytically  !
 ! A50   A(16,17,22)           118.3132         calculate D2E/DX2 analytically  !
 ! A51   A(18,17,22)           118.3393         calculate D2E/DX2 analytically  !
 ! A52   A(10,18,17)           120.4424         calculate D2E/DX2 analytically  !
 ! A53   A(10,18,38)           121.0767         calculate D2E/DX2 analytically  !
 ! A54   A(17,18,38)           118.362          calculate D2E/DX2 analytically  !
 ! A55   A(16,19,20)           118.532          calculate D2E/DX2 analytically  !
 ! A56   A(16,19,23)           123.9076         calculate D2E/DX2 analytically  !
 ! A57   A(20,19,23)           117.4959         calculate D2E/DX2 analytically  !
 ! A58   A(19,20,21)           119.9299         calculate D2E/DX2 analytically  !
 ! A59   A(19,20,26)           120.133          calculate D2E/DX2 analytically  !
 ! A60   A(21,20,26)           119.8997         calculate D2E/DX2 analytically  !
 ! A61   A(20,21,22)           120.812          calculate D2E/DX2 analytically  !
 ! A62   A(20,21,40)           118.4062         calculate D2E/DX2 analytically  !
 ! A63   A(22,21,40)           120.6678         calculate D2E/DX2 analytically  !
 ! A64   A(17,22,21)           121.4285         calculate D2E/DX2 analytically  !
 ! A65   A(17,22,39)           118.0481         calculate D2E/DX2 analytically  !
 ! A66   A(21,22,39)           120.4045         calculate D2E/DX2 analytically  !
 ! A67   A(19,23,24)           119.4677         calculate D2E/DX2 analytically  !
 ! A68   A(19,23,30)           125.1911         calculate D2E/DX2 analytically  !
 ! A69   A(24,23,30)           115.0518         calculate D2E/DX2 analytically  !
 ! A70   A(23,24,25)           119.0582         calculate D2E/DX2 analytically  !
 ! A71   A(23,24,27)           119.8834         calculate D2E/DX2 analytically  !
 ! A72   A(25,24,27)           120.9269         calculate D2E/DX2 analytically  !
 ! A73   A(24,25,26)           120.3544         calculate D2E/DX2 analytically  !
 ! A74   A(24,25,42)           118.8003         calculate D2E/DX2 analytically  !
 ! A75   A(26,25,42)           120.6999         calculate D2E/DX2 analytically  !
 ! A76   A(20,26,25)           121.3305         calculate D2E/DX2 analytically  !
 ! A77   A(20,26,41)           118.2691         calculate D2E/DX2 analytically  !
 ! A78   A(25,26,41)           120.3985         calculate D2E/DX2 analytically  !
 ! A79   A(24,27,28)           121.3943         calculate D2E/DX2 analytically  !
 ! A80   A(24,27,43)           118.3434         calculate D2E/DX2 analytically  !
 ! A81   A(28,27,43)           120.2138         calculate D2E/DX2 analytically  !
 ! A82   A(27,28,29)           119.405          calculate D2E/DX2 analytically  !
 ! A83   A(27,28,44)           120.5555         calculate D2E/DX2 analytically  !
 ! A84   A(29,28,44)           119.9795         calculate D2E/DX2 analytically  !
 ! A85   A(28,29,30)           118.6059         calculate D2E/DX2 analytically  !
 ! A86   A(28,29,45)           120.6136         calculate D2E/DX2 analytically  !
 ! A87   A(30,29,45)           120.7727         calculate D2E/DX2 analytically  !
 ! A88   A(23,30,29)           125.1483         calculate D2E/DX2 analytically  !
 ! A89   A(23,30,46)           116.9683         calculate D2E/DX2 analytically  !
 ! A90   A(29,30,46)           117.6621         calculate D2E/DX2 analytically  !
 ! A91   L(13,31,47,16,-1)     174.2219         calculate D2E/DX2 analytically  !
 ! A92   L(13,31,47,16,-2)     191.4304         calculate D2E/DX2 analytically  !
 ! D1    D(4,1,2,3)             -2.8755         calculate D2E/DX2 analytically  !
 ! D2    D(4,1,2,16)          -176.2216         calculate D2E/DX2 analytically  !
 ! D3    D(13,1,2,3)           168.9112         calculate D2E/DX2 analytically  !
 ! D4    D(13,1,2,16)           -4.4349         calculate D2E/DX2 analytically  !
 ! D5    D(2,1,4,5)              1.5194         calculate D2E/DX2 analytically  !
 ! D6    D(2,1,4,6)            173.779          calculate D2E/DX2 analytically  !
 ! D7    D(13,1,4,5)          -172.5334         calculate D2E/DX2 analytically  !
 ! D8    D(13,1,4,6)            -0.2738         calculate D2E/DX2 analytically  !
 ! D9    D(2,1,13,14)         -172.7857         calculate D2E/DX2 analytically  !
 ! D10   D(2,1,13,31)            3.2926         calculate D2E/DX2 analytically  !
 ! D11   D(4,1,13,14)           -1.5065         calculate D2E/DX2 analytically  !
 ! D12   D(4,1,13,31)          174.5718         calculate D2E/DX2 analytically  !
 ! D13   D(1,2,3,5)              3.2815         calculate D2E/DX2 analytically  !
 ! D14   D(1,2,3,10)          -170.0219         calculate D2E/DX2 analytically  !
 ! D15   D(16,2,3,5)           178.3703         calculate D2E/DX2 analytically  !
 ! D16   D(16,2,3,10)            5.067          calculate D2E/DX2 analytically  !
 ! D17   D(1,2,16,17)          161.7277         calculate D2E/DX2 analytically  !
 ! D18   D(1,2,16,19)          -14.4479         calculate D2E/DX2 analytically  !
 ! D19   D(3,2,16,17)          -11.1067         calculate D2E/DX2 analytically  !
 ! D20   D(3,2,16,19)          172.7178         calculate D2E/DX2 analytically  !
 ! D21   D(2,3,5,4)             -2.4489         calculate D2E/DX2 analytically  !
 ! D22   D(2,3,5,9)           -174.6617         calculate D2E/DX2 analytically  !
 ! D23   D(10,3,5,4)           171.5078         calculate D2E/DX2 analytically  !
 ! D24   D(10,3,5,9)            -0.705          calculate D2E/DX2 analytically  !
 ! D25   D(2,3,10,11)          176.1687         calculate D2E/DX2 analytically  !
 ! D26   D(2,3,10,18)            2.2018         calculate D2E/DX2 analytically  !
 ! D27   D(5,3,10,11)            3.4125         calculate D2E/DX2 analytically  !
 ! D28   D(5,3,10,18)         -170.5544         calculate D2E/DX2 analytically  !
 ! D29   D(1,4,5,3)              0.4623         calculate D2E/DX2 analytically  !
 ! D30   D(1,4,5,9)            172.7248         calculate D2E/DX2 analytically  !
 ! D31   D(6,4,5,3)           -172.4437         calculate D2E/DX2 analytically  !
 ! D32   D(6,4,5,9)             -0.1812         calculate D2E/DX2 analytically  !
 ! D33   D(1,4,6,7)           -174.5753         calculate D2E/DX2 analytically  !
 ! D34   D(1,4,6,15)             2.1702         calculate D2E/DX2 analytically  !
 ! D35   D(5,4,6,7)             -3.0745         calculate D2E/DX2 analytically  !
 ! D36   D(5,4,6,15)           173.671          calculate D2E/DX2 analytically  !
 ! D37   D(3,5,9,8)            174.2163         calculate D2E/DX2 analytically  !
 ! D38   D(3,5,9,12)            -2.5785         calculate D2E/DX2 analytically  !
 ! D39   D(4,5,9,8)              3.3016         calculate D2E/DX2 analytically  !
 ! D40   D(4,5,9,12)          -173.4933         calculate D2E/DX2 analytically  !
 ! D41   D(4,6,7,8)              3.1811         calculate D2E/DX2 analytically  !
 ! D42   D(4,6,7,34)          -178.3929         calculate D2E/DX2 analytically  !
 ! D43   D(15,6,7,8)          -172.9498         calculate D2E/DX2 analytically  !
 ! D44   D(15,6,7,34)            5.4762         calculate D2E/DX2 analytically  !
 ! D45   D(4,6,15,14)           -2.2229         calculate D2E/DX2 analytically  !
 ! D46   D(4,6,15,33)          179.4569         calculate D2E/DX2 analytically  !
 ! D47   D(7,6,15,14)          173.9228         calculate D2E/DX2 analytically  !
 ! D48   D(7,6,15,33)           -4.3975         calculate D2E/DX2 analytically  !
 ! D49   D(6,7,8,9)             -0.0584         calculate D2E/DX2 analytically  !
 ! D50   D(6,7,8,35)           178.3276         calculate D2E/DX2 analytically  !
 ! D51   D(34,7,8,9)          -178.4865         calculate D2E/DX2 analytically  !
 ! D52   D(34,7,8,35)           -0.1004         calculate D2E/DX2 analytically  !
 ! D53   D(7,8,9,5)             -3.0967         calculate D2E/DX2 analytically  !
 ! D54   D(7,8,9,12)           172.9974         calculate D2E/DX2 analytically  !
 ! D55   D(35,8,9,5)           178.5314         calculate D2E/DX2 analytically  !
 ! D56   D(35,8,9,12)           -5.3745         calculate D2E/DX2 analytically  !
 ! D57   D(5,9,12,11)            3.0343         calculate D2E/DX2 analytically  !
 ! D58   D(5,9,12,36)         -178.7698         calculate D2E/DX2 analytically  !
 ! D59   D(8,9,12,11)         -173.0605         calculate D2E/DX2 analytically  !
 ! D60   D(8,9,12,36)            5.1354         calculate D2E/DX2 analytically  !
 ! D61   D(3,10,11,12)          -2.9213         calculate D2E/DX2 analytically  !
 ! D62   D(3,10,11,37)         178.7122         calculate D2E/DX2 analytically  !
 ! D63   D(18,10,11,12)        169.9226         calculate D2E/DX2 analytically  !
 ! D64   D(18,10,11,37)         -8.4439         calculate D2E/DX2 analytically  !
 ! D65   D(3,10,18,17)          -2.5729         calculate D2E/DX2 analytically  !
 ! D66   D(3,10,18,38)         173.397          calculate D2E/DX2 analytically  !
 ! D67   D(11,10,18,17)       -175.4884         calculate D2E/DX2 analytically  !
 ! D68   D(11,10,18,38)          0.4815         calculate D2E/DX2 analytically  !
 ! D69   D(10,11,12,9)          -0.3704         calculate D2E/DX2 analytically  !
 ! D70   D(10,11,12,36)       -178.5793         calculate D2E/DX2 analytically  !
 ! D71   D(37,11,12,9)         177.9912         calculate D2E/DX2 analytically  !
 ! D72   D(37,11,12,36)         -0.2177         calculate D2E/DX2 analytically  !
 ! D73   D(1,13,14,15)           1.3747         calculate D2E/DX2 analytically  !
 ! D74   D(1,13,14,32)        -179.4497         calculate D2E/DX2 analytically  !
 ! D75   D(31,13,14,15)       -174.5069         calculate D2E/DX2 analytically  !
 ! D76   D(31,13,14,32)          4.6686         calculate D2E/DX2 analytically  !
 ! D77   D(13,14,15,6)           0.6381         calculate D2E/DX2 analytically  !
 ! D78   D(13,14,15,33)        178.9774         calculate D2E/DX2 analytically  !
 ! D79   D(32,14,15,6)        -178.5299         calculate D2E/DX2 analytically  !
 ! D80   D(32,14,15,33)         -0.1906         calculate D2E/DX2 analytically  !
 ! D81   D(2,16,17,18)          11.3923         calculate D2E/DX2 analytically  !
 ! D82   D(2,16,17,22)        -163.1463         calculate D2E/DX2 analytically  !
 ! D83   D(19,16,17,18)       -172.0953         calculate D2E/DX2 analytically  !
 ! D84   D(19,16,17,22)         13.366          calculate D2E/DX2 analytically  !
 ! D85   D(2,16,19,20)         154.8003         calculate D2E/DX2 analytically  !
 ! D86   D(2,16,19,23)         -28.1991         calculate D2E/DX2 analytically  !
 ! D87   D(17,16,19,20)        -21.3231         calculate D2E/DX2 analytically  !
 ! D88   D(17,16,19,23)        155.6776         calculate D2E/DX2 analytically  !
 ! D89   D(16,17,18,10)         -4.218          calculate D2E/DX2 analytically  !
 ! D90   D(16,17,18,38)        179.7044         calculate D2E/DX2 analytically  !
 ! D91   D(22,17,18,10)        170.3194         calculate D2E/DX2 analytically  !
 ! D92   D(22,17,18,38)         -5.7583         calculate D2E/DX2 analytically  !
 ! D93   D(16,17,22,21)          1.9204         calculate D2E/DX2 analytically  !
 ! D94   D(16,17,22,39)        177.9696         calculate D2E/DX2 analytically  !
 ! D95   D(18,17,22,21)       -172.884          calculate D2E/DX2 analytically  !
 ! D96   D(18,17,22,39)          3.1651         calculate D2E/DX2 analytically  !
 ! D97   D(16,19,20,21)         14.3994         calculate D2E/DX2 analytically  !
 ! D98   D(16,19,20,26)       -167.8254         calculate D2E/DX2 analytically  !
 ! D99   D(23,19,20,21)       -162.7945         calculate D2E/DX2 analytically  !
 ! D100  D(23,19,20,26)         14.9807         calculate D2E/DX2 analytically  !
 ! D101  D(16,19,23,24)        166.9393         calculate D2E/DX2 analytically  !
 ! D102  D(16,19,23,30)        -19.558          calculate D2E/DX2 analytically  !
 ! D103  D(20,19,23,24)        -16.0313         calculate D2E/DX2 analytically  !
 ! D104  D(20,19,23,30)        157.4715         calculate D2E/DX2 analytically  !
 ! D105  D(19,20,21,22)          1.1308         calculate D2E/DX2 analytically  !
 ! D106  D(19,20,21,40)        177.2753         calculate D2E/DX2 analytically  !
 ! D107  D(26,20,21,22)       -176.6496         calculate D2E/DX2 analytically  !
 ! D108  D(26,20,21,40)         -0.5052         calculate D2E/DX2 analytically  !
 ! D109  D(19,20,26,25)         -3.8503         calculate D2E/DX2 analytically  !
 ! D110  D(19,20,26,41)        175.6497         calculate D2E/DX2 analytically  !
 ! D111  D(21,20,26,25)        173.9256         calculate D2E/DX2 analytically  !
 ! D112  D(21,20,26,41)         -6.5744         calculate D2E/DX2 analytically  !
 ! D113  D(20,21,22,17)         -9.4514         calculate D2E/DX2 analytically  !
 ! D114  D(20,21,22,39)        174.5916         calculate D2E/DX2 analytically  !
 ! D115  D(40,21,22,17)        174.4915         calculate D2E/DX2 analytically  !
 ! D116  D(40,21,22,39)         -1.4656         calculate D2E/DX2 analytically  !
 ! D117  D(19,23,24,25)          6.1339         calculate D2E/DX2 analytically  !
 ! D118  D(19,23,24,27)       -177.9971         calculate D2E/DX2 analytically  !
 ! D119  D(30,23,24,25)       -168.0073         calculate D2E/DX2 analytically  !
 ! D120  D(30,23,24,27)          7.8618         calculate D2E/DX2 analytically  !
 ! D121  D(19,23,30,29)       -178.9252         calculate D2E/DX2 analytically  !
 ! D122  D(19,23,30,46)         -4.4768         calculate D2E/DX2 analytically  !
 ! D123  D(24,23,30,29)         -5.1683         calculate D2E/DX2 analytically  !
 ! D124  D(24,23,30,46)        169.2801         calculate D2E/DX2 analytically  !
 ! D125  D(23,24,25,26)          5.3245         calculate D2E/DX2 analytically  !
 ! D126  D(23,24,25,42)       -179.0265         calculate D2E/DX2 analytically  !
 ! D127  D(27,24,25,26)       -170.5001         calculate D2E/DX2 analytically  !
 ! D128  D(27,24,25,42)          5.149          calculate D2E/DX2 analytically  !
 ! D129  D(23,24,27,28)         -4.7461         calculate D2E/DX2 analytically  !
 ! D130  D(23,24,27,43)        177.7821         calculate D2E/DX2 analytically  !
 ! D131  D(25,24,27,28)        171.0443         calculate D2E/DX2 analytically  !
 ! D132  D(25,24,27,43)         -6.4275         calculate D2E/DX2 analytically  !
 ! D133  D(24,25,26,20)         -6.6252         calculate D2E/DX2 analytically  !
 ! D134  D(24,25,26,41)        173.8853         calculate D2E/DX2 analytically  !
 ! D135  D(42,25,26,20)        177.8091         calculate D2E/DX2 analytically  !
 ! D136  D(42,25,26,41)         -1.6803         calculate D2E/DX2 analytically  !
 ! D137  D(24,27,28,29)         -1.7315         calculate D2E/DX2 analytically  !
 ! D138  D(24,27,28,44)       -178.9141         calculate D2E/DX2 analytically  !
 ! D139  D(43,27,28,29)        175.6936         calculate D2E/DX2 analytically  !
 ! D140  D(43,27,28,44)         -1.4891         calculate D2E/DX2 analytically  !
 ! D141  D(27,28,29,30)          4.6152         calculate D2E/DX2 analytically  !
 ! D142  D(27,28,29,45)       -174.3779         calculate D2E/DX2 analytically  !
 ! D143  D(44,28,29,30)       -178.1857         calculate D2E/DX2 analytically  !
 ! D144  D(44,28,29,45)          2.8212         calculate D2E/DX2 analytically  !
 ! D145  D(28,29,30,23)         -1.0107         calculate D2E/DX2 analytically  !
 ! D146  D(28,29,30,46)       -175.4242         calculate D2E/DX2 analytically  !
 ! D147  D(45,29,30,23)        177.9807         calculate D2E/DX2 analytically  !
 ! D148  D(45,29,30,46)          3.5672         calculate D2E/DX2 analytically  !
 --------------------------------------------------------------------------------
 Trust Radius=3.00D-01 FncErr=1.00D-07 GrdErr=1.00D-06 EigMax=2.50D+02 EigMin=1.00D-04
 Number of steps in this run=    282 maximum allowed number of steps=    282.
 Search for a saddle point of order  1.
 GradGradGradGradGradGradGradGradGradGradGradGradGradGradGradGradGradGrad

                          Input orientation:                          
 ---------------------------------------------------------------------
 Center     Atomic      Atomic             Coordinates (Angstroms)
 Number     Number       Type             X           Y           Z
 ---------------------------------------------------------------------
      1          6           0        0.792300    1.009400   -0.358700
      2          6           0        0.456800   -0.421900   -0.011300
      3          6           0        1.702300   -1.036300    0.254400
      4          6           0        2.202900    1.125900   -0.199600
      5          6           0        2.745700   -0.102200    0.174700
      6          6           0        3.019200    2.208900   -0.510000
      7          6           0        4.435100    1.976400   -0.346000
      8          6           0        4.950200    0.746500    0.026400
      9          6           0        4.091000   -0.382900    0.275100
     10          6           0        1.986100   -2.392600    0.438000
     11          6           0        3.388100   -2.720800    0.611300
     12          6           0        4.388200   -1.774600    0.539200
     13          6           0        0.170000    2.127900   -0.886000
     14          6           0        0.955300    3.279400   -1.186500
     15          6           0        2.329800    3.347100   -1.008300
     16          6           0       -0.672000   -1.268900    0.003800
     17          6           0       -0.399100   -2.704400    0.040300
     18          6           0        0.879300   -3.238700    0.292800
     19          6           0       -2.060500   -0.848100   -0.091800
     20          6           0       -3.009900   -1.764700   -0.593400
     21          6           0       -2.674200   -3.153400   -0.703400
     22          6           0       -1.458100   -3.607700   -0.309300
     23          6           0       -2.546500    0.439600    0.355600
     24          6           0       -3.861700    0.873100   -0.032300
     25          6           0       -4.707800   -0.030000   -0.738500
     26          6           0       -4.318000   -1.319400   -0.946300
     27          6           0       -4.330000    2.149900    0.365200
     28          6           0       -3.590900    2.956700    1.200800
     29          6           0       -2.355200    2.488900    1.702900
     30          6           0       -1.885900    1.283300    1.265400
     31          1           0       -1.243200    2.041580   -1.188220
     32          1           0        0.441900    4.145300   -1.590100
     33          1           0        2.865400    4.252300   -1.274600
     34          1           0        5.124900    2.790200   -0.546400
     35          1           0        6.026500    0.631800    0.105300
     36          1           0        5.419800   -2.091100    0.655200
     37          1           0        3.660300   -3.757900    0.778700
     38          1           0        0.993500   -4.318100    0.306800
     39          1           0       -1.241400   -4.670600   -0.313300
     40          1           0       -3.436700   -3.842700   -1.049500
     41          1           0       -5.000100   -2.033500   -1.395500
     42          1           0       -5.693100    0.306700   -1.043100
     43          1           0       -5.311400    2.466400    0.028200
     44          1           0       -3.970300    3.924300    1.510500
     45          1           0       -1.800400    3.068700    2.432900
     46          1           0       -1.044260    0.932410    1.682180
     47          1           0       -2.171020    1.827800   -1.553190
 ---------------------------------------------------------------------
                    Distance matrix (angstroms):
                    1          2          3          4          5
     1  C    0.000000
     2  C    1.510585   0.000000
     3  C    2.321396   1.413985   0.000000
     4  C    1.424316   2.340941   2.265353   0.000000
     5  C    2.309966   2.318592   1.402704   1.393902   0.000000
     6  C    2.533925   3.706171   3.584670   1.391252   2.425861
     7  C    3.768984   4.657332   4.111574   2.393220   2.728695
     8  C    4.183964   4.642976   3.712036   2.782567   2.366877
     9  C    3.636155   3.645676   2.476539   2.463075   1.377935
    10  C    3.692356   2.534618   1.397784   3.582370   2.427396
    11  C    4.646877   3.776916   2.409738   4.106015   2.731367
    12  C    4.635448   4.193895   2.800046   3.705976   2.372254
    13  C    1.384321   2.710873   3.696027   2.368086   3.568285
    14  C    2.421719   3.915255   4.610799   2.677319   4.061233
    15  C    2.872408   4.325217   4.604602   2.367241   3.670168
    16  C    2.732441   1.411321   2.398792   3.747197   3.615393
    17  C    3.920580   2.438244   2.691520   4.636718   4.084027
    18  C    4.298648   2.864497   2.351461   4.587386   3.651716
    19  C    3.414676   2.554393   3.783376   4.699455   4.871031
    20  C    4.712477   3.762972   4.842950   5.973603   6.039935
    21  C    5.428107   4.212274   4.955123   6.507867   6.281417
    22  C    5.136570   3.728937   4.113148   5.985142   5.494972
    23  C    3.461572   3.145888   4.498980   4.830741   5.322936
    24  C    4.667422   4.508537   5.889491   6.072172   6.682200
    25  C    5.610321   5.230248   6.564135   7.027396   7.509581
    26  C    5.646570   4.947570   6.145392   7.004227   7.254934
    27  C    5.297427   5.446959   6.822961   6.636743   7.427905
    28  C    5.043457   5.409991   6.697588   6.235468   7.110714
    29  C    4.043003   4.395291   5.566731   5.123822   5.921856
    30  C    3.144118   3.166372   4.390654   4.346181   4.955901
    31  H    2.428324   3.216189   4.497829   3.700195   4.729130
    32  H    3.387181   4.832406   5.642674   3.761833   5.144246
    33  H    3.956389   5.407904   5.626716   3.371781   4.590912
    34  H    4.688060   5.691667   5.195919   3.380569   3.813995
    35  H    5.268276   5.669695   4.637186   3.867430   3.362621
    36  H    5.661700   5.278430   3.884977   4.629062   3.367108
    37  H    5.678578   4.692058   3.393488   5.189662   3.816471
    38  H    5.372674   3.945834   3.357879   5.599663   4.567436
    39  H    6.033274   4.585470   4.711241   6.743556   6.083205
    40  H    6.473370   5.285743   5.998780   7.564020   7.328852
    41  H    6.624658   5.855854   6.974148   7.955828   8.135900
    42  H    6.559162   6.278275   7.627522   7.983069   8.536017
    43  H    6.287105   6.451044   7.842963   7.636330   8.457897
    44  H    5.888371   6.387843   7.639616   6.990271   7.943659
    45  H    4.330801   4.822173   5.819432   5.170197   5.985073
    46  H    2.746647   2.637273   3.668510   3.758002   4.207934
    47  H    3.298159   3.787349   5.145198   4.632067   5.557395
                    6          7          8          9         10
     6  C    0.000000
     7  C    1.444204   0.000000
     8  C    2.480947   1.384436   0.000000
     9  C    2.912484   2.463832   1.440701   0.000000
    10  C    4.810385   5.069558   4.336963   2.914796   0.000000
    11  C    5.069057   4.906763   3.847653   2.464320   1.450294
    12  C    4.340882   3.854320   2.633392   1.447379   2.482388
    13  C    2.875044   4.301817   5.058760   4.798595   5.048378
    14  C    2.421426   3.809627   4.883230   5.037989   5.989418
    15  C    1.420941   2.598028   3.834087   4.319935   5.929087
    16  C    5.097454   6.061089   5.972561   4.852295   2.918343
    17  C    6.010667   6.740075   6.365840   5.060187   2.438148
    18  C    5.907623   6.344214   5.703071   4.297781   1.400705
    19  C    5.943357   7.087682   7.190733   6.179966   4.363615
    20  C    7.221253   8.335770   8.369795   7.286044   5.139850
    21  C    7.823456   8.774094   8.594958   7.375708   4.857984
    22  C    7.342978   8.118702   7.754873   6.444639   3.727927
    23  C    5.903956   7.183087   7.510198   6.688751   5.345335
    24  C    7.025621   8.375713   8.813005   8.057138   6.714368
    25  C    8.048069   9.368688   9.719310   8.864017   7.195438
    26  C    8.153144   9.372269   9.545345   8.548692   6.542914
    27  C    7.401365   8.795617   9.391828   8.794114   7.780278
    28  C    6.868731   8.232269   8.900258   8.427422   7.765295
    29  C    5.818892   7.111176   7.695159   7.199954   6.654014
    30  C    5.297998   6.559881   6.968180   6.283331   5.402704
    31  H    4.319263   5.740790   6.442883   6.039296   5.721444
    32  H    3.399814   4.711428   5.872792   6.107331   7.017256
    33  H    2.187179   2.916501   4.281311   5.038724   6.918155
    34  H    2.184767   1.085474   2.129631   3.436914   6.138609
    35  H    3.451042   2.131707   1.085266   2.191942   5.057916
    36  H    5.060689   4.303091   2.944128   2.197301   3.453748
    37  H    6.137952   5.894698   4.745463   3.439439   2.187022
    38  H    6.882758   7.203575   6.433061   5.008124   2.170258
    39  H    8.094376   8.741071   8.233850   6.867683   4.021255
    40  H    8.865189   9.814381   9.620728   8.389937   5.807082
    41  H    9.115440  10.305520  10.428742   9.389541   7.231712
    42  H    8.933461  10.288551  10.705937   9.896556   8.273451
    43  H    8.351938   9.765981  10.404734   9.827746   8.776749
    44  H    7.475167   8.825625   9.585212   9.222947   8.748267
    45  H    5.712133   6.913528   7.533555   7.160882   6.938516
    46  H    4.790280   5.935218   6.221714   5.484598   4.667629
    47  H    5.307718   6.717158   7.374014   6.887869   6.249661
                   11         12         13         14         15
    11  C    0.000000
    12  C    1.378656   0.000000
    13  C    6.008990   5.920634   0.000000
    14  C    6.719598   6.348682   1.425815   0.000000
    15  C    6.368871   5.732676   2.483172   1.387656   0.000000
    16  C    4.354478   5.113512   3.610950   4.975133   5.598447
    17  C    3.830038   4.902211   4.953083   6.256620   6.720648
    18  C    2.581422   3.810076   5.540133   6.684290   6.868011
    19  C    5.804188   6.545403   3.802954   5.227779   6.141206
    20  C    6.580261   7.484301   5.034850   6.443409   7.403718
    21  C    6.218284   7.302235   6.001245   7.401863   8.209110
    22  C    5.011961   6.185421   5.990025   7.350247   7.950222
    23  C    6.728520   7.281927   3.430933   4.764991   5.838842
    24  C    8.117262   8.683189   4.307892   5.506900   6.738540
    25  C    8.637474   9.349511   5.335843   6.574461   7.810596
    26  C    7.985864   8.843746   5.659475   7.001025   8.122396
    27  C    9.129806   9.562374   4.670759   5.622983   6.904544
    28  C    9.015983   9.299944   4.380184   5.145024   6.331447
    29  C    7.830585   8.062572   3.634468   4.464631   5.480542
    30  C    6.654002   7.017296   3.093315   4.250723   5.215468
    31  H    6.882403   7.018538   1.447730   2.523015   3.808291
    32  H    7.789068   7.426467   2.153971   1.084553   2.130676
    33  H    7.242510   6.475516   3.453877   2.145409   1.084975
    34  H    5.893035   4.749595   5.010489   4.246717   2.887226
    35  H    4.296175   2.943307   6.125323   5.864776   4.720016
    36  H    2.127500   1.085277   6.909100   7.222596   6.472198
    37  H    1.085215   2.126189   7.042447   7.791189   7.446115
    38  H    2.894511   4.248222   6.606954   7.742959   7.891164
    39  H    5.107727   6.387955   6.967039   8.294002   8.804545
    40  H    7.113003   8.248034   6.977326   8.368557   9.216694
    41  H    8.652256   9.589070   6.656333   7.983569   9.101001
    42  H    9.714473  10.414802   6.141449   7.284142   8.579753
    43  H   10.145361  10.598558   5.567413   6.434904   7.761308
    44  H    9.955499  10.162943   5.110024   5.652543   6.809462
    45  H    7.984802   8.083466   3.972742   4.553936   5.383114
    46  H    5.842820   6.176239   3.082073   4.211404   4.945067
    47  H    7.501906   7.770376   2.452667   3.466335   4.781481
                   16         17         18         19         20
    16  C    0.000000
    17  C    1.461666   0.000000
    18  C    2.523919   1.408382   0.000000
    19  C    1.454010   2.494704   3.808584   0.000000
    20  C    2.463380   2.846206   4.252517   1.411778   0.000000
    21  C    2.839063   2.435317   3.691484   2.462740   1.432928
    22  C    2.487161   1.435149   2.441746   2.832946   2.425994
    23  C    2.560564   3.820403   5.026922   1.447251   2.444234
    24  C    3.842350   4.979295   6.284081   2.492066   2.828142
    25  C    4.286440   5.130676   6.524954   2.845295   2.431687
    26  C    3.768097   4.271930   5.677236   2.459390   1.426168
    27  C    5.019937   6.254739   7.495269   3.787807   4.240952
    28  C    5.273375   6.601697   7.693512   4.299935   5.084126
    29  C    4.454342   5.793180   6.727241   3.800443   4.877985
    30  C    3.094982   4.428679   5.388948   2.532853   3.742835
    31  H    3.564612   4.974544   5.880458   3.196931   4.238255
    32  H    5.752813   7.091112   7.632830   5.782815   6.916389
    33  H    6.680655   7.796255   7.906732   7.188712   8.437267
    34  H    7.098103   7.813413   7.421389   8.066837   9.323320
    35  H    6.963682   7.240358   6.442794   8.223656   9.374856
    36  H    6.181453   5.883352   4.697282   7.619577   8.527918
    37  H    5.056126   4.258383   2.870475   6.477056   7.095567
    38  H    3.487595   2.148112   1.085515   4.639687   4.832952
    39  H    3.463572   2.168051   2.629651   3.915545   3.413254
    40  H    3.921410   3.422047   4.560092   3.432018   2.169855
    41  H    4.612494   4.866295   6.234598   3.427252   2.162525
    42  H    5.365628   6.186026   7.586233   3.928653   3.419428
    43  H    5.956265   7.132181   8.422764   4.644207   4.856490
    44  H    6.333897   7.671677   8.735559   5.384283   6.141131
    45  H    5.097900   6.404441   7.179423   4.667235   5.829506
    46  H    2.793081   4.042077   4.798814   2.711082   4.039357
    47  H    3.776351   5.120522   6.195285   3.050953   3.811951
                   21         22         23         24         25
    21  C    0.000000
    22  C    1.356688   0.000000
    23  C    3.747991   4.243506   0.000000
    24  C    4.251263   5.092307   1.438103   0.000000
    25  C    3.727249   4.852288   2.467549   1.424849   0.000000
    26  C    2.474800   3.717676   2.815535   2.418814   1.362966
    27  C    5.657612   6.469368   2.471050   1.416873   2.472418
    28  C    6.465264   7.065450   2.853231   2.436238   3.732121
    29  C    6.142279   6.482459   2.459968   2.809141   4.223745
    30  C    4.917509   5.156023   1.405688   2.399182   3.701823
    31  H    5.410234   5.721280   2.578432   3.091608   4.061668
    32  H    7.985445   8.084520   5.142810   5.626278   6.684143
    33  H    9.265950   9.022420   6.817837   7.629953   8.716585
    34  H    9.806987   9.182877   8.073989   9.203182  10.230954
    35  H    9.522810   8.611881   8.578806   9.892101  10.787733
    36  H    8.275694   7.108857   8.363979   9.767568  10.428749
    37  H    6.533600   5.234914   7.504824   8.870421   9.285700
    38  H    3.978574   2.625755   5.930404   7.115934   7.210082
    39  H    2.122967   1.084772   5.316470   6.138204   5.807916
    40  H    1.084586   2.125554   4.594002   4.842942   4.031017
    41  H    2.672637   4.025382   3.899068   3.406258   2.128638
    42  H    4.604503   5.813451   3.446029   2.167153   1.084880
    43  H    6.250777   7.201147   3.443803   2.154970   2.680331
    44  H    7.528284   8.145787   3.937529   3.420796   4.608513
    45  H    7.022424   7.225728   3.432784   3.891893   5.302141
    46  H    5.004152   4.974923   2.063832   3.298625   4.495270
    47  H    5.078158   5.621404   2.389888   2.466365   3.248137
                   26         27         28         29         30
    26  C    0.000000
    27  C    3.708938   0.000000
    28  C    4.839808   1.376743   0.000000
    29  C    5.037261   2.409190   1.413469   0.000000
    30  C    4.192943   2.744992   2.389867   1.365694   0.000000
    31  H    4.561700   3.457337   3.472255   3.129731   2.647320
    32  H    7.275581   5.529543   5.046322   4.627232   4.665145
    33  H    9.096860   7.673514   7.034913   6.263366   6.151537
    34  H   10.306168   9.520301   8.890759   7.816779   7.396261
    35  H   10.579306  10.470400   9.954881   8.732356   8.023488
    36  H    9.898741  10.636201  10.342663   9.084311   8.070451
    37  H    8.519107   9.945752   9.891609   8.721404   7.510720
    38  H    6.226917   8.377236   8.645153   7.713503   6.370678
    39  H    4.593114   7.517914   8.123322   7.520908   6.193270
    40  H    2.674768   6.221786   7.163761   6.988169   5.834348
    41  H    1.084887   4.588021   5.799027   6.086681   5.270654
    42  H    2.131777   2.690490   4.059166   4.841910   4.558255
    43  H    4.033457   1.084844   2.139043   3.397682   3.829418
    44  H    5.801134   2.142333   1.084485   2.169318   3.373378
    45  H    6.083808   3.393885   2.176351   1.084837   2.134952
    46  H    4.764129   3.743368   3.288594   2.035105   1.002590
    47  H    3.857811   2.906056   3.297717   3.327626   2.884826
                   31         32         33         34         35
    31  H    0.000000
    32  H    2.725199   0.000000
    33  H    4.666405   2.446291   0.000000
    34  H    6.443994   4.985589   2.788073   0.000000
    35  H    7.517261   6.812255   5.000470   2.428227   0.000000
    36  H    8.054366   8.289363   7.105478   5.035663   2.843354
    37  H    7.845193   8.856065   8.307299   6.839485   5.032081
    38  H    6.905320   8.690894   8.913843   8.265854   7.062096
    39  H    6.768962   9.065529   9.869552   9.810589   9.006278
    40  H    6.281356   8.896287  10.261392  10.842023  10.531233
    41  H    5.546489   8.235946  10.069359  11.247430  11.442995
    42  H    4.778334   7.257567   9.427050  11.110518  11.780218
    43  H    4.267365   6.207903   8.470347  10.457121  11.485629
    44  H    4.273734   5.397228   7.388583   9.393598  10.618435
    45  H    3.804991   4.729853   6.075867   7.544108   8.521535
    46  H    3.083672   4.820700   5.920275   6.817367   7.250694
    47  H    1.019684   3.492781   5.596547   7.427670   8.448689
                   36         37         38         39         40
    36  H    0.000000
    37  H    2.426791   0.000000
    38  H    4.967197   2.765562   0.000000
    39  H    7.208564   5.104131   2.345966   0.000000
    40  H    9.187584   7.329182   4.657491   2.459014   0.000000
    41  H   10.619934   9.094132   6.636299   4.717338   2.416017
    42  H   11.494791  10.359827   8.241458   6.717422   4.723230
    43  H   11.675726  10.945162   9.266004   8.223034   6.669384
    44  H   11.184389  10.852547   9.696668   9.200296   8.195402
    45  H    9.050693   8.897083   8.178691   8.231091   7.910249
    46  H    7.209741   6.704340   5.797585   5.951010   5.998960
    47  H    8.823566   8.404882   7.158620   6.680623   5.831828
                   41         42         43         44         45
    41  H    0.000000
    42  H    2.465962   0.000000
    43  H    4.730003   2.440836   0.000000
    44  H    6.708256   4.751415   2.474113   0.000000
    45  H    7.136328   5.904603   4.297961   2.508254   0.000000
    46  H    5.823865   5.424977   4.826723   4.188388   2.387271
    47  H    4.789384   3.870269   3.573596   4.125399   4.191194
                   46         47
    46  H    0.000000
    47  H    3.541035   0.000000
 Stoichiometry    C30H17(2)
 Framework group  C1[X(C30H17)]
 Deg. of freedom   135
 Full point group                 C1      NOp   1
 Largest Abelian subgroup         C1      NOp   1
 Largest concise Abelian subgroup C1      NOp   1
                         Standard orientation:                         
 ---------------------------------------------------------------------
 Center     Atomic      Atomic             Coordinates (Angstroms)
 Number     Number       Type             X           Y           Z
 ---------------------------------------------------------------------
      1          6           0       -0.799195   -1.010068   -0.330839
      2          6           0       -0.472671    0.425135    0.008928
      3          6           0       -1.722285    1.034000    0.267970
      4          6           0       -2.209500   -1.133645   -0.174484
      5          6           0       -2.760173    0.093532    0.191245
      6          6           0       -3.018880   -2.223074   -0.480475
      7          6           0       -4.436475   -1.997664   -0.321292
      8          6           0       -4.959455   -0.768541    0.042594
      9          6           0       -4.107286    0.367168    0.286717
     10          6           0       -2.014221    2.389722    0.442877
     11          6           0       -3.418481    2.710963    0.610829
     12          6           0       -4.413021    1.758686    0.541880
     13          6           0       -0.169267   -2.128097   -0.850018
     14          6           0       -0.947283   -3.285789   -1.145629
     15          6           0       -2.321813   -3.360250   -0.970375
     16          6           0        0.651269    1.278611    0.021776
     17          6           0        0.370146    2.712727    0.049145
     18          6           0       -0.911880    3.241229    0.295380
     19          6           0        2.042363    0.865153   -0.067965
     20          6           0        2.987785    1.784167   -0.572653
     21          6           0        2.644491    3.170265   -0.691658
     22          6           0        1.424867    3.619958   -0.303202
     23          6           0        2.534551   -0.417109    0.388203
     24          6           0        3.853139   -0.845402    0.006065
     25          6           0        4.695844    0.058320   -0.703390
     26          6           0        4.299254    1.344239   -0.919739
     27          6           0        4.327688   -2.117159    0.412227
     28          6           0        3.591117   -2.923216    1.250771
     29          6           0        2.351551   -2.459499    1.747098
     30          6           0        1.876504   -1.259181    1.301355
     31          1           0        1.244162   -2.035527   -1.149305
     32          1           0       -0.427990   -4.151118   -1.542865
     33          1           0       -2.851615   -4.270031   -1.232633
     34          1           0       -5.121155   -2.816536   -0.518564
     35          1           0       -6.036579   -0.659497    0.118200
     36          1           0       -5.446681    2.069996    0.653503
     37          1           0       -3.696968    3.747466    0.771447
     38          1           0       -1.032231    4.320026    0.302735
     39          1           0        1.202156    4.681567   -0.313998
     40          1           0        3.403922    3.861839   -1.039962
     41          1           0        4.978400    2.059549   -1.371483
     42          1           0        5.683785   -0.274561   -1.003603
     43          1           0        5.311694   -2.430054    0.079486
     44          1           0        3.975231   -3.886805    1.567095
     45          1           0        1.798249   -3.038137    2.479154
     46          1           0        1.031864   -0.910634    1.714011
     47          1           0        2.171652   -1.818628   -1.513273
 ---------------------------------------------------------------------
 Rotational constants (GHZ):           0.2718281           0.1453183           0.1018032
 Standard basis: 6-311+G(d,p) (5D, 7F)
 There are   792 symmetry adapted cartesian basis functions of A   symmetry.
 There are   762 symmetry adapted basis functions of A   symmetry.
   762 basis functions,  1216 primitive gaussians,   792 cartesian basis functions
    99 alpha electrons       98 beta electrons
       nuclear repulsion energy      2619.9642808894 Hartrees.
 NAtoms=   47 NActive=   47 NUniq=   47 SFac= 1.00D+00 NAtFMM=   60 NAOKFM=F Big=F
 Integral buffers will be    131072 words long.
 Raffenetti 2 integral format.
 Two-electron integral symmetry is turned on.
 One-electron integrals computed using PRISM.
 NBasis=   762 RedAO= T EigKep=  1.35D-06  NBF=   762
 NBsUse=   741 1.00D-06 EigRej=  9.21D-07 NBFU=   741
 ExpMin= 4.38D-02 ExpMax= 4.56D+03 ExpMxC= 6.82D+02 IAcc=2 IRadAn=         4 AccDes= 0.00D+00
 Harris functional with IExCor=  402 and IRadAn=       4 diagonalized for initial guess.
 HarFok:  IExCor=  402 AccDes= 0.00D+00 IRadAn=         4 IDoV= 1 UseB2=F ITyADJ=14
 ICtDFT=  3500011 ScaDFX=  1.000000  1.000000  1.000000  1.000000
 FoFCou: FMM=F IPFlag=           0 FMFlag=      100000 FMFlg1=           0
         NFxFlg=           0 DoJE=T BraDBF=F KetDBF=T FulRan=T
         wScrn=  0.000000 ICntrl=       500 IOpCl=  0 I1Cent=   200000004 NGrid=           0
         NMat0=    1 NMatS0=      1 NMatT0=    0 NMatD0=    1 NMtDS0=    0 NMtDT0=    0
 Petite list used in FoFCou.
 Initial guess <Sx>= 0.0000 <Sy>= 0.0000 <Sz>= 0.5000 <S**2>= 0.7500 S= 0.5000
 Requested convergence on RMS density matrix=1.00D-08 within 128 cycles.
 Requested convergence on MAX density matrix=1.00D-06.
 Requested convergence on             energy=1.00D-06.
 No special actions if energy rises.
 Restarting incremental Fock formation.
 SCF Done:  E(UB3LYP) =  -1153.59734035     A.U. after   23 cycles
            NFock= 23  Conv=0.83D-08     -V/T= 2.0044
 <Sx>= 0.0000 <Sy>= 0.0000 <Sz>= 0.5000 <S**2>= 0.7631 S= 0.5066
 <L.S>=  0.00000000000    
 Annihilation of the first spin contaminant:
 S**2 before annihilation     0.7631,   after     0.7501
 DoSCS=F DFT=T ScalE2(SS,OS)=  1.000000  1.000000
 Range of M.O.s used for correlation:     1   741
 NBasis=   762 NAE=    99 NBE=    98 NFC=     0 NFV=     0
 NROrb=    741 NOA=    99 NOB=    98 NVA=   642 NVB=   643

 **** Warning!!: The largest alpha MO coefficient is  0.12856247D+03


 **** Warning!!: The largest beta MO coefficient is  0.12670537D+03

 Symmetrizing basis deriv contribution to polar:
 IMax=3 JMax=2 DiffMx= 0.00D+00
 G2DrvN: will do    48 centers at a time, making    1 passes.
 Calling FoFCou, ICntrl=  3107 FMM=F I1Cent=   0 AccDes= 0.00D+00.
 End of G2Drv F.D. properties file   721 does not exist.
 End of G2Drv F.D. properties file   722 does not exist.
 End of G2Drv F.D. properties file   788 does not exist.
          IDoAtm=11111111111111111111111111111111111111111111111
          Differentiating once with respect to nuclear coordinates.
 CalDSu exits because no D1Ps are significant.
          There are   144 degrees of freedom in the 1st order CPHF.  IDoFFX=6 NUNeed=     0.
    138 vectors produced by pass  0 Test12= 1.27D-13 1.00D-09 XBig12= 5.41D-01 1.38D-01.
 AX will form   138 AO Fock derivatives at one time.
    138 vectors produced by pass  1 Test12= 1.27D-13 1.00D-09 XBig12= 1.59D-01 4.37D-02.
    138 vectors produced by pass  2 Test12= 1.27D-13 1.00D-09 XBig12= 2.89D-03 7.88D-03.
    138 vectors produced by pass  3 Test12= 1.27D-13 1.00D-09 XBig12= 2.91D-05 9.01D-04.
    138 vectors produced by pass  4 Test12= 1.27D-13 1.00D-09 XBig12= 2.62D-07 5.52D-05.
    138 vectors produced by pass  5 Test12= 1.27D-13 1.00D-09 XBig12= 1.67D-09 2.87D-06.
    129 vectors produced by pass  6 Test12= 1.27D-13 1.00D-09 XBig12= 6.35D-11 5.11D-07.
    106 vectors produced by pass  7 Test12= 1.27D-13 1.00D-09 XBig12= 1.19D-11 1.86D-07.
     80 vectors produced by pass  8 Test12= 1.27D-13 1.00D-09 XBig12= 1.19D-12 4.67D-08.
     12 vectors produced by pass  9 Test12= 1.27D-13 1.00D-09 XBig12= 1.52D-14 5.83D-09.
      2 vectors produced by pass 10 Test12= 1.27D-13 1.00D-09 XBig12= 4.64D-16 1.13D-09.
      2 vectors produced by pass 11 Test12= 1.27D-13 1.00D-09 XBig12= 8.20D-16 1.48D-09.
      1 vectors produced by pass 12 Test12= 1.27D-13 1.00D-09 XBig12= 5.74D-16 1.30D-09.
 InvSVY:  IOpt=1 It=  1 EMax= 7.22D-16
 Solved reduced A of dimension  1160 with   144 vectors.
 End of Minotr F.D. properties file   721 does not exist.
 End of Minotr F.D. properties file   722 does not exist.
 End of Minotr F.D. properties file   788 does not exist.

 **********************************************************************

            Population analysis using the SCF Density.

 **********************************************************************

 Orbital symmetries:
 Alpha Orbitals:
       Occupied  (A) (A) (A) (A) (A) (A) (A) (A) (A) (A) (A) (A)
                 (A) (A) (A) (A) (A) (A) (A) (A) (A) (A) (A) (A)
                 (A) (A) (A) (A) (A) (A) (A) (A) (A) (A) (A) (A)
                 (A) (A) (A) (A) (A) (A) (A) (A) (A) (A) (A) (A)
                 (A) (A) (A) (A) (A) (A) (A) (A) (A) (A) (A) (A)
                 (A) (A) (A) (A) (A) (A) (A) (A) (A) (A) (A) (A)
                 (A) (A) (A) (A) (A) (A) (A) (A) (A) (A) (A) (A)
                 (A) (A) (A) (A) (A) (A) (A) (A) (A) (A) (A) (A)
                 (A) (A) (A)
       Virtual   (A) (A) (A) (A) (A) (A) (A) (A) (A) (A) (A) (A)
                 (A) (A) (A) (A) (A) (A) (A) (A) (A) (A) (A) (A)
                 (A) (A) (A) (A) (A) (A) (A) (A) (A) (A) (A) (A)
                 (A) (A) (A) (A) (A) (A) (A) (A) (A) (A) (A) (A)
                 (A) (A) (A) (A) (A) (A) (A) (A) (A) (A) (A) (A)
                 (A) (A) (A) (A) (A) (A) (A) (A) (A) (A) (A) (A)
                 (A) (A) (A) (A) (A) (A) (A) (A) (A) (A) (A) (A)
                 (A) (A) (A) (A) (A) (A) (A) (A) (A) (A) (A) (A)
                 (A) (A) (A) (A) (A) (A) (A) (A) (A) (A) (A) (A)
                 (A) (A) (A) (A) (A) (A) (A) (A) (A) (A) (A) (A)
                 (A) (A) (A) (A) (A) (A) (A) (A) (A) (A) (A) (A)
                 (A) (A) (A) (A) (A) (A) (A) (A) (A) (A) (A) (A)
                 (A) (A) (A) (A) (A) (A) (A) (A) (A) (A) (A) (A)
                 (A) (A) (A) (A) (A) (A) (A) (A) (A) (A) (A) (A)
                 (A) (A) (A) (A) (A) (A) (A) (A) (A) (A) (A) (A)
                 (A) (A) (A) (A) (A) (A) (A) (A) (A) (A) (A) (A)
                 (A) (A) (A) (A) (A) (A) (A) (A) (A) (A) (A) (A)
                 (A) (A) (A) (A) (A) (A) (A) (A) (A) (A) (A) (A)
                 (A) (A) (A) (A) (A) (A) (A) (A) (A) (A) (A) (A)
                 (A) (A) (A) (A) (A) (A) (A) (A) (A) (A) (A) (A)
                 (A) (A) (A) (A) (A) (A) (A) (A) (A) (A) (A) (A)
                 (A) (A) (A) (A) (A) (A) (A) (A) (A) (A) (A) (A)
                 (A) (A) (A) (A) (A) (A) (A) (A) (A) (A) (A) (A)
                 (A) (A) (A) (A) (A) (A) (A) (A) (A) (A) (A) (A)
                 (A) (A) (A) (A) (A) (A) (A) (A) (A) (A) (A) (A)
                 (A) (A) (A) (A) (A) (A) (A) (A) (A) (A) (A) (A)
                 (A) (A) (A) (A) (A) (A) (A) (A) (A) (A) (A) (A)
                 (A) (A) (A) (A) (A) (A) (A) (A) (A) (A) (A) (A)
                 (A) (A) (A) (A) (A) (A) (A) (A) (A) (A) (A) (A)
                 (A) (A) (A) (A) (A) (A) (A) (A) (A) (A) (A) (A)
                 (A) (A) (A) (A) (A) (A) (A) (A) (A) (A) (A) (A)
                 (A) (A) (A) (A) (A) (A) (A) (A) (A) (A) (A) (A)
                 (A) (A) (A) (A) (A) (A) (A) (A) (A) (A) (A) (A)
                 (A) (A) (A) (A) (A) (A) (A) (A) (A) (A) (A) (A)
                 (A) (A) (A) (A) (A) (A) (A) (A) (A) (A) (A) (A)
                 (A) (A) (A) (A) (A) (A) (A) (A) (A) (A) (A) (A)
                 (A) (A) (A) (A) (A) (A) (A) (A) (A) (A) (A) (A)
                 (A) (A) (A) (A) (A) (A) (A) (A) (A) (A) (A) (A)
                 (A) (A) (A) (A) (A) (A) (A) (A) (A) (A) (A) (A)
                 (A) (A) (A) (A) (A) (A) (A) (A) (A) (A) (A) (A)
                 (A) (A) (A) (A) (A) (A) (A) (A) (A) (A) (A) (A)
                 (A) (A) (A) (A) (A) (A) (A) (A) (A) (A) (A) (A)
                 (A) (A) (A) (A) (A) (A) (A) (A) (A) (A) (A) (A)
                 (A) (A) (A) (A) (A) (A) (A) (A) (A) (A) (A) (A)
                 (A) (A) (A) (A) (A) (A) (A) (A) (A) (A) (A) (A)
                 (A) (A) (A) (A) (A) (A) (A) (A) (A) (A) (A) (A)
                 (A) (A) (A) (A) (A) (A) (A) (A) (A) (A) (A) (A)
                 (A) (A) (A) (A) (A) (A) (A) (A) (A) (A) (A) (A)
                 (A) (A) (A) (A) (A) (A) (A) (A) (A) (A) (A) (A)
                 (A) (A) (A) (A) (A) (A) (A) (A) (A) (A) (A) (A)
                 (A) (A) (A) (A) (A) (A) (A) (A) (A) (A) (A) (A)
                 (A) (A) (A) (A) (A) (A) (A) (A) (A) (A) (A) (A)
                 (A) (A) (A) (A) (A) (A) (A) (A) (A) (A) (A) (A)
                 (A) (A) (A) (A) (A) (A)
 Beta  Orbitals:
       Occupied  (A) (A) (A) (A) (A) (A) (A) (A) (A) (A) (A) (A)
                 (A) (A) (A) (A) (A) (A) (A) (A) (A) (A) (A) (A)
                 (A) (A) (A) (A) (A) (A) (A) (A) (A) (A) (A) (A)
                 (A) (A) (A) (A) (A) (A) (A) (A) (A) (A) (A) (A)
                 (A) (A) (A) (A) (A) (A) (A) (A) (A) (A) (A) (A)
                 (A) (A) (A) (A) (A) (A) (A) (A) (A) (A) (A) (A)
                 (A) (A) (A) (A) (A) (A) (A) (A) (A) (A) (A) (A)
                 (A) (A) (A) (A) (A) (A) (A) (A) (A) (A) (A) (A)
                 (A) (A)
       Virtual   (A) (A) (A) (A) (A) (A) (A) (A) (A) (A) (A) (A)
                 (A) (A) (A) (A) (A) (A) (A) (A) (A) (A) (A) (A)
                 (A) (A) (A) (A) (A) (A) (A) (A) (A) (A) (A) (A)
                 (A) (A) (A) (A) (A) (A) (A) (A) (A) (A) (A) (A)
                 (A) (A) (A) (A) (A) (A) (A) (A) (A) (A) (A) (A)
                 (A) (A) (A) (A) (A) (A) (A) (A) (A) (A) (A) (A)
                 (A) (A) (A) (A) (A) (A) (A) (A) (A) (A) (A) (A)
                 (A) (A) (A) (A) (A) (A) (A) (A) (A) (A) (A) (A)
                 (A) (A) (A) (A) (A) (A) (A) (A) (A) (A) (A) (A)
                 (A) (A) (A) (A) (A) (A) (A) (A) (A) (A) (A) (A)
                 (A) (A) (A) (A) (A) (A) (A) (A) (A) (A) (A) (A)
                 (A) (A) (A) (A) (A) (A) (A) (A) (A) (A) (A) (A)
                 (A) (A) (A) (A) (A) (A) (A) (A) (A) (A) (A) (A)
                 (A) (A) (A) (A) (A) (A) (A) (A) (A) (A) (A) (A)
                 (A) (A) (A) (A) (A) (A) (A) (A) (A) (A) (A) (A)
                 (A) (A) (A) (A) (A) (A) (A) (A) (A) (A) (A) (A)
                 (A) (A) (A) (A) (A) (A) (A) (A) (A) (A) (A) (A)
                 (A) (A) (A) (A) (A) (A) (A) (A) (A) (A) (A) (A)
                 (A) (A) (A) (A) (A) (A) (A) (A) (A) (A) (A) (A)
                 (A) (A) (A) (A) (A) (A) (A) (A) (A) (A) (A) (A)
                 (A) (A) (A) (A) (A) (A) (A) (A) (A) (A) (A) (A)
                 (A) (A) (A) (A) (A) (A) (A) (A) (A) (A) (A) (A)
                 (A) (A) (A) (A) (A) (A) (A) (A) (A) (A) (A) (A)
                 (A) (A) (A) (A) (A) (A) (A) (A) (A) (A) (A) (A)
                 (A) (A) (A) (A) (A) (A) (A) (A) (A) (A) (A) (A)
                 (A) (A) (A) (A) (A) (A) (A) (A) (A) (A) (A) (A)
                 (A) (A) (A) (A) (A) (A) (A) (A) (A) (A) (A) (A)
                 (A) (A) (A) (A) (A) (A) (A) (A) (A) (A) (A) (A)
                 (A) (A) (A) (A) (A) (A) (A) (A) (A) (A) (A) (A)
                 (A) (A) (A) (A) (A) (A) (A) (A) (A) (A) (A) (A)
                 (A) (A) (A) (A) (A) (A) (A) (A) (A) (A) (A) (A)
                 (A) (A) (A) (A) (A) (A) (A) (A) (A) (A) (A) (A)
                 (A) (A) (A) (A) (A) (A) (A) (A) (A) (A) (A) (A)
                 (A) (A) (A) (A) (A) (A) (A) (A) (A) (A) (A) (A)
                 (A) (A) (A) (A) (A) (A) (A) (A) (A) (A) (A) (A)
                 (A) (A) (A) (A) (A) (A) (A) (A) (A) (A) (A) (A)
                 (A) (A) (A) (A) (A) (A) (A) (A) (A) (A) (A) (A)
                 (A) (A) (A) (A) (A) (A) (A) (A) (A) (A) (A) (A)
                 (A) (A) (A) (A) (A) (A) (A) (A) (A) (A) (A) (A)
                 (A) (A) (A) (A) (A) (A) (A) (A) (A) (A) (A) (A)
                 (A) (A) (A) (A) (A) (A) (A) (A) (A) (A) (A) (A)
                 (A) (A) (A) (A) (A) (A) (A) (A) (A) (A) (A) (A)
                 (A) (A) (A) (A) (A) (A) (A) (A) (A) (A) (A) (A)
                 (A) (A) (A) (A) (A) (A) (A) (A) (A) (A) (A) (A)
                 (A) (A) (A) (A) (A) (A) (A) (A) (A) (A) (A) (A)
                 (A) (A) (A) (A) (A) (A) (A) (A) (A) (A) (A) (A)
                 (A) (A) (A) (A) (A) (A) (A) (A) (A) (A) (A) (A)
                 (A) (A) (A) (A) (A) (A) (A) (A) (A) (A) (A) (A)
                 (A) (A) (A) (A) (A) (A) (A) (A) (A) (A) (A) (A)
                 (A) (A) (A) (A) (A) (A) (A) (A) (A) (A) (A) (A)
                 (A) (A) (A) (A) (A) (A) (A) (A) (A) (A) (A) (A)
                 (A) (A) (A) (A) (A) (A) (A) (A) (A) (A) (A) (A)
                 (A) (A) (A) (A) (A) (A) (A) (A) (A) (A) (A) (A)
                 (A) (A) (A) (A) (A) (A) (A)
 The electronic state is 2-A.
 Alpha  occ. eigenvalues --  -10.20857 -10.20731 -10.19894 -10.19878 -10.19744
 Alpha  occ. eigenvalues --  -10.19618 -10.19540 -10.19522 -10.19435 -10.19280
 Alpha  occ. eigenvalues --  -10.19235 -10.19147 -10.19087 -10.19080 -10.19080
 Alpha  occ. eigenvalues --  -10.19045 -10.18977 -10.18940 -10.18705 -10.18470
 Alpha  occ. eigenvalues --  -10.18414 -10.18345 -10.18235 -10.18153 -10.18053
 Alpha  occ. eigenvalues --  -10.17874 -10.17340 -10.17195 -10.16857 -10.16586
 Alpha  occ. eigenvalues --   -0.92045  -0.89504  -0.87281  -0.85665  -0.84365
 Alpha  occ. eigenvalues --   -0.82306  -0.81215  -0.79304  -0.78953  -0.76359
 Alpha  occ. eigenvalues --   -0.74850  -0.74489  -0.72925  -0.72321  -0.71537
 Alpha  occ. eigenvalues --   -0.66457  -0.65049  -0.63467  -0.63107  -0.62444
 Alpha  occ. eigenvalues --   -0.61078  -0.59976  -0.58857  -0.56819  -0.54345
 Alpha  occ. eigenvalues --   -0.53470  -0.52925  -0.51664  -0.50780  -0.50384
 Alpha  occ. eigenvalues --   -0.49365  -0.48172  -0.47386  -0.46970  -0.45059
 Alpha  occ. eigenvalues --   -0.44538  -0.44181  -0.44040  -0.43822  -0.43455
 Alpha  occ. eigenvalues --   -0.43055  -0.42529  -0.42288  -0.41352  -0.41156
 Alpha  occ. eigenvalues --   -0.40220  -0.40138  -0.39906  -0.38102  -0.37507
 Alpha  occ. eigenvalues --   -0.36992  -0.36491  -0.36334  -0.35402  -0.34477
 Alpha  occ. eigenvalues --   -0.34239  -0.33855  -0.33142  -0.32690  -0.31622
 Alpha  occ. eigenvalues --   -0.29345  -0.29227  -0.27707  -0.25529  -0.23990
 Alpha  occ. eigenvalues --   -0.23248  -0.22912  -0.21536  -0.20779
 Alpha virt. eigenvalues --   -0.09410  -0.05838  -0.04989  -0.04218  -0.01852
 Alpha virt. eigenvalues --   -0.00371   0.00136   0.00592   0.00704   0.00901
 Alpha virt. eigenvalues --    0.01478   0.01611   0.01648   0.02442   0.02754
 Alpha virt. eigenvalues --    0.03070   0.03445   0.03765   0.04292   0.04453
 Alpha virt. eigenvalues --    0.04845   0.04972   0.05189   0.05682   0.05975
 Alpha virt. eigenvalues --    0.06169   0.06914   0.06941   0.07299   0.07542
 Alpha virt. eigenvalues --    0.08162   0.08165   0.08673   0.08907   0.09455
 Alpha virt. eigenvalues --    0.09642   0.09696   0.10437   0.10624   0.10903
 Alpha virt. eigenvalues --    0.11241   0.11434   0.11891   0.12163   0.12278
 Alpha virt. eigenvalues --    0.12897   0.12941   0.13570   0.13750   0.14185
 Alpha virt. eigenvalues --    0.14378   0.14815   0.14935   0.15159   0.15787
 Alpha virt. eigenvalues --    0.15949   0.16227   0.16429   0.16689   0.16887
 Alpha virt. eigenvalues --    0.17074   0.17118   0.17399   0.17672   0.17853
 Alpha virt. eigenvalues --    0.18150   0.18260   0.18345   0.18678   0.18850
 Alpha virt. eigenvalues --    0.19016   0.19301   0.19387   0.19732   0.19883
 Alpha virt. eigenvalues --    0.20013   0.20153   0.20423   0.20598   0.20764
 Alpha virt. eigenvalues --    0.21109   0.21281   0.21605   0.21908   0.22101
 Alpha virt. eigenvalues --    0.22526   0.22530   0.22684   0.22907   0.23141
 Alpha virt. eigenvalues --    0.23392   0.23588   0.23708   0.23814   0.24187
 Alpha virt. eigenvalues --    0.24327   0.24732   0.24824   0.24867   0.25172
 Alpha virt. eigenvalues --    0.25452   0.25616   0.25672   0.26323   0.26454
 Alpha virt. eigenvalues --    0.26705   0.27096   0.27301   0.27525   0.27735
 Alpha virt. eigenvalues --    0.28127   0.28469   0.28553   0.28831   0.28966
 Alpha virt. eigenvalues --    0.29392   0.29423   0.29862   0.29985   0.30436
 Alpha virt. eigenvalues --    0.30704   0.30919   0.31331   0.31383   0.31672
 Alpha virt. eigenvalues --    0.31800   0.32045   0.32486   0.32794   0.32947
 Alpha virt. eigenvalues --    0.33522   0.33721   0.33978   0.34280   0.35067
 Alpha virt. eigenvalues --    0.35324   0.35735   0.36240   0.36983   0.37468
 Alpha virt. eigenvalues --    0.38078   0.38218   0.38657   0.39322   0.39994
 Alpha virt. eigenvalues --    0.40111   0.40777   0.41296   0.42516   0.42798
 Alpha virt. eigenvalues --    0.43453   0.43871   0.44203   0.45311   0.45961
 Alpha virt. eigenvalues --    0.46656   0.47940   0.48413   0.48702   0.49024
 Alpha virt. eigenvalues --    0.49424   0.50510   0.51164   0.51849   0.52134
 Alpha virt. eigenvalues --    0.52712   0.53052   0.53401   0.53691   0.53853
 Alpha virt. eigenvalues --    0.54290   0.54549   0.54877   0.55082   0.55663
 Alpha virt. eigenvalues --    0.55847   0.56388   0.56674   0.57453   0.57537
 Alpha virt. eigenvalues --    0.57841   0.58170   0.58582   0.58976   0.59236
 Alpha virt. eigenvalues --    0.59893   0.60248   0.60832   0.60979   0.61411
 Alpha virt. eigenvalues --    0.61506   0.62076   0.62677   0.62948   0.63155
 Alpha virt. eigenvalues --    0.64092   0.64549   0.64690   0.65016   0.65737
 Alpha virt. eigenvalues --    0.66425   0.66805   0.67020   0.67261   0.67577
 Alpha virt. eigenvalues --    0.68354   0.68694   0.69139   0.69420   0.69766
 Alpha virt. eigenvalues --    0.70310   0.70594   0.71103   0.71305   0.71670
 Alpha virt. eigenvalues --    0.72010   0.72339   0.72407   0.72818   0.73603
 Alpha virt. eigenvalues --    0.73782   0.73807   0.74097   0.74560   0.74942
 Alpha virt. eigenvalues --    0.75226   0.75746   0.75999   0.76277   0.76806
 Alpha virt. eigenvalues --    0.77156   0.77343   0.77995   0.79019   0.79660
 Alpha virt. eigenvalues --    0.80084   0.80934   0.81266   0.81693   0.82946
 Alpha virt. eigenvalues --    0.83296   0.83575   0.83988   0.84292   0.84574
 Alpha virt. eigenvalues --    0.84826   0.85832   0.86512   0.87207   0.87523
 Alpha virt. eigenvalues --    0.87976   0.88149   0.88576   0.88798   0.89529
 Alpha virt. eigenvalues --    0.89882   0.90747   0.91411   0.92054   0.92172
 Alpha virt. eigenvalues --    0.92818   0.93006   0.93527   0.94008   0.94552
 Alpha virt. eigenvalues --    0.95022   0.95346   0.95449   0.95954   0.96169
 Alpha virt. eigenvalues --    0.96403   0.96655   0.97384   0.98052   0.98266
 Alpha virt. eigenvalues --    0.99421   0.99707   1.00117   1.00951   1.01078
 Alpha virt. eigenvalues --    1.01416   1.02152   1.02621   1.03880   1.04074
 Alpha virt. eigenvalues --    1.04900   1.05461   1.06391   1.06466   1.06809
 Alpha virt. eigenvalues --    1.06840   1.07556   1.08135   1.08698   1.09042
 Alpha virt. eigenvalues --    1.09908   1.10525   1.10958   1.11748   1.13012
 Alpha virt. eigenvalues --    1.13194   1.14844   1.14967   1.15576   1.15681
 Alpha virt. eigenvalues --    1.16753   1.18020   1.18288   1.19738   1.21119
 Alpha virt. eigenvalues --    1.21818   1.23381   1.23548   1.24255   1.25537
 Alpha virt. eigenvalues --    1.26305   1.27697   1.29752   1.29818   1.31498
 Alpha virt. eigenvalues --    1.33113   1.33954   1.34615   1.36593   1.37991
 Alpha virt. eigenvalues --    1.38744   1.39271   1.40727   1.42821   1.43508
 Alpha virt. eigenvalues --    1.44169   1.45905   1.46316   1.47179   1.48093
 Alpha virt. eigenvalues --    1.48474   1.48927   1.49756   1.49982   1.50153
 Alpha virt. eigenvalues --    1.50712   1.51126   1.51670   1.52084   1.53651
 Alpha virt. eigenvalues --    1.54029   1.54550   1.55559   1.55651   1.56152
 Alpha virt. eigenvalues --    1.56456   1.57375   1.58189   1.58794   1.59043
 Alpha virt. eigenvalues --    1.59481   1.60068   1.60996   1.61495   1.61991
 Alpha virt. eigenvalues --    1.63720   1.64263   1.64643   1.65490   1.65982
 Alpha virt. eigenvalues --    1.67243   1.67623   1.68619   1.70035   1.70221
 Alpha virt. eigenvalues --    1.70416   1.71052   1.72529   1.73182   1.73644
 Alpha virt. eigenvalues --    1.74317   1.74514   1.75559   1.76142   1.76374
 Alpha virt. eigenvalues --    1.77178   1.77544   1.78034   1.78859   1.79855
 Alpha virt. eigenvalues --    1.80833   1.81725   1.81956   1.82642   1.83278
 Alpha virt. eigenvalues --    1.83658   1.84319   1.84635   1.85125   1.86893
 Alpha virt. eigenvalues --    1.87088   1.87154   1.87287   1.88271   1.89078
 Alpha virt. eigenvalues --    1.89450   1.89509   1.90035   1.90498   1.91422
 Alpha virt. eigenvalues --    1.91709   1.92734   1.93234   1.93731   1.95012
 Alpha virt. eigenvalues --    1.95501   1.96075   1.97119   1.97185   1.97983
 Alpha virt. eigenvalues --    1.98683   1.99348   1.99940   2.00130   2.01592
 Alpha virt. eigenvalues --    2.02163   2.02774   2.03672   2.04115   2.04572
 Alpha virt. eigenvalues --    2.05098   2.05712   2.06597   2.07909   2.08467
 Alpha virt. eigenvalues --    2.08993   2.09714   2.10609   2.11604   2.12156
 Alpha virt. eigenvalues --    2.12476   2.13759   2.14581   2.15222   2.16317
 Alpha virt. eigenvalues --    2.16859   2.17739   2.18395   2.19848   2.21215
 Alpha virt. eigenvalues --    2.21793   2.22631   2.23974   2.25282   2.26059
 Alpha virt. eigenvalues --    2.26556   2.26964   2.28247   2.28738   2.32883
 Alpha virt. eigenvalues --    2.33289   2.35871   2.36207   2.37630   2.37781
 Alpha virt. eigenvalues --    2.39691   2.41860   2.42593   2.42914   2.43667
 Alpha virt. eigenvalues --    2.44080   2.45401   2.45618   2.46816   2.47701
 Alpha virt. eigenvalues --    2.48426   2.51427   2.52931   2.54317   2.56123
 Alpha virt. eigenvalues --    2.56611   2.57222   2.58766   2.59445   2.61577
 Alpha virt. eigenvalues --    2.63368   2.64190   2.66082   2.67565   2.68712
 Alpha virt. eigenvalues --    2.69857   2.70135   2.70475   2.71040   2.71358
 Alpha virt. eigenvalues --    2.71849   2.72297   2.72563   2.73371   2.73780
 Alpha virt. eigenvalues --    2.73981   2.74508   2.74684   2.75771   2.75927
 Alpha virt. eigenvalues --    2.76008   2.76211   2.76527   2.77146   2.77419
 Alpha virt. eigenvalues --    2.77579   2.78470   2.78728   2.79480   2.79969
 Alpha virt. eigenvalues --    2.80246   2.80571   2.81107   2.82734   2.83612
 Alpha virt. eigenvalues --    2.84403   2.84950   2.85170   2.85618   2.86561
 Alpha virt. eigenvalues --    2.88004   2.88321   2.88514   2.89302   2.89839
 Alpha virt. eigenvalues --    2.90633   2.92534   2.92974   2.93554   2.95000
 Alpha virt. eigenvalues --    2.95807   2.97329   2.98268   3.00617   3.02469
 Alpha virt. eigenvalues --    3.02930   3.04278   3.05323   3.06310   3.07683
 Alpha virt. eigenvalues --    3.11069   3.11465   3.13564   3.15538   3.16423
 Alpha virt. eigenvalues --    3.18421   3.19725   3.20540   3.21716   3.22606
 Alpha virt. eigenvalues --    3.23729   3.24740   3.25640   3.26898   3.30279
 Alpha virt. eigenvalues --    3.31192   3.33951   3.34188   3.36493   3.37409
 Alpha virt. eigenvalues --    3.39950   3.41157   3.41536   3.42437   3.44302
 Alpha virt. eigenvalues --    3.45070   3.45460   3.46879   3.47951   3.48909
 Alpha virt. eigenvalues --    3.50024   3.51375   3.53320   3.55535   3.56972
 Alpha virt. eigenvalues --    3.58130   3.60492   3.62408   3.62932   3.64823
 Alpha virt. eigenvalues --    3.67681   3.68936   3.72904   3.76086   3.82637
 Alpha virt. eigenvalues --    3.83339   3.85692   3.93027   3.98400   4.05118
 Alpha virt. eigenvalues --    4.05992   4.06435   4.06930   4.08348   4.09131
 Alpha virt. eigenvalues --    4.09377   4.10823   4.21445   4.24281   4.26478
 Alpha virt. eigenvalues --    4.29503   4.34956   4.42246   4.64922   4.74534
[...]
 000005,-0.00000016,-0.00000141,0.00000120,-0.00000058,-0.00000182,0.00
 000285,-0.00000211,0.00000340,0.00000362,-0.00000607,-0.00000089,0.000
 00941,0.00000064,0.00001121,-0.00010152,0.00002156,0.00000137,0.000024
 48,-0.00005489,0.00007338,-0.00055415,0.00197814,0.09065882,0.00000483
 ,-0.00000878,0.00000867,0.00005944,-0.00004194,-0.00005025,-0.00002789
 ,0.00000195,-0.00002130,-0.00001008,0.00000894,-0.00001472,0.00001688,
 -0.00000900,0.00000897,-0.00000003,0.00001486,0.00000147,0.00000780,-0
 .00000254,0.00000254,-0.00000289,0.00000914,-0.00000174,0.00000160,-0.
 00001482,0.00000737,0.00001831,-0.00000467,0.00000174,-0.00002922,0.00
 000984,-0.00000372,0.00001306,0.00001728,-0.00000166,-0.00001885,-0.00
 001814,-0.00000066,0.00000957,-0.00001519,0.00001144,0.00000365,0.0000
 0183,-0.00000344,-0.00000308,0.00006350,0.00005425,0.00006031,-0.00002
 665,0.00000933,-0.00001774,0.00000044,0.00000617,-0.00013965,-0.000014
 54,0.00035036,-0.00016062,0.00007238,-0.00012542,0.00002962,0.00001177
 ,-0.00001060,-0.00001707,-0.00000424,-0.00000667,-0.00023786,0.0001834
 6,0.00041727,-0.00185934,0.00159545,-0.00451525,0.00078867,-0.00033095
 ,-0.00004509,-0.00030207,-0.00037931,0.00006515,0.00863108,-0.01237363
 ,-0.00466284,0.09124849,-0.26872254,-0.08274969,0.00084658,-0.00437972
 ,-0.00369598,0.00244434,0.00229638,-0.00056534,0.00001053,0.00000084,0
 .00000733,-0.00000176,0.00000399,-0.00000538,0.00000602,0.00000367,-0.
 00000142,0.00000322,0.00000390,-0.00000078,0.00000568,-0.00000050,-0.0
 0000004,0.00000564,-0.00000060,-0.00000015,0.00000184,-0.00000521,0.00
 000009,0.00000119,-0.00000487,-0.00000134,0.00000906,-0.00000701,-0.00
 000570,-0.00000896,-0.00000252,0.00000079,0.00002192,-0.00010930,0.000
 01669,-0.00001342,0.00002269,-0.00007304,-0.00110086,-0.00020595,0.001
 90918,-0.09981319,0.28278518,-0.00003896,-0.00005077,-0.00001585,-0.00
 009486,0.00002393,0.00005177,0.00005398,-0.00001114,0.00003225,0.00001
 536,0.00000922,-0.00001241,-0.00003105,-0.00001212,-0.00000217,-0.0000
 2310,0.00001804,-0.00000191,0.00001427,-0.00000707,0.00000237,0.000000
 68,0.00001523,-0.00000219,0.00001030,-0.00003972,0.00000464,0.00006367
 ,0.00004779,0.00000608,-0.00004231,0.00000249,-0.00000723,0.00002589,0
 .00003213,-0.00000236,0.00002983,0.00000257,-0.00000402,-0.00002965,-0
 .00003162,0.00001874,0.00002975,0.00000399,0.00000563,-0.00006623,-0.0
 0008679,-0.00008197,0.00006568,0.00001885,0.00000819,-0.00007810,-0.00
 000069,-0.00002408,0.00039099,0.00031051,-0.00049700,-0.00009877,0.000
 03654,0.00006696,0.00003812,-0.00004123,0.00005834,-0.00003400,-0.0000
 3546,-0.00002071,-0.00051982,0.00022533,-0.00088556,-0.00472733,-0.004
 23951,0.00395308,0.00063756,-0.00077780,0.00011015,-0.00005085,-0.0000
 7581,-0.00053655,0.00833722,-0.01645457,-0.00150556,0.02299258,-0.0830
 5867,-0.07114509,-0.00363080,0.00903330,0.00612772,-0.00374624,-0.0010
 6721,0.00318074,0.00003099,0.00000367,0.00001518,0.00001074,0.00001103
 ,-0.00001854,0.00000246,0.00000034,-0.00000051,0.00000078,-0.00000030,
 -0.00000063,-0.00000037,0.00000085,0.00000019,-0.00000039,0.00000192,0
 .00000036,0.00000045,-0.00000042,-0.00000066,0.00000086,-0.00000303,0.
 00000646,-0.00000097,-0.00000357,0.00001005,0.00000216,0.00000238,0.00
 000041,0.00002969,-0.00008073,-0.00001812,-0.00006621,-0.00001280,0.00
 007635,0.00153509,0.00221088,-0.00281053,-0.02236689,0.09251941,0.0652
 0846,-0.00000545,0.00006318,-0.00001272,-0.00005034,0.00006587,0.00004
 856,0.00004329,-0.00001754,0.00002793,-0.00002873,0.00001129,0.0000094
 1,-0.00002215,0.00000298,-0.00001323,0.00001076,-0.00001725,0.00000130
 ,-0.00002791,0.00000398,-0.00000515,-0.00000211,-0.00001941,0.00000285
 ,0.00002718,0.00000445,0.00000154,0.00000287,0.00002130,-0.00000763,-0
 .00000676,-0.00000344,0.00000240,-0.00000732,0.00001717,-0.00000350,0.
 00002949,-0.00005336,-0.00001466,0.00002293,-0.00001803,0.00001983,-0.
 00004072,0.00000203,0.00000184,-0.00002362,0.00000965,-0.00011043,0.00
 001350,-0.00003775,0.00000726,-0.00003169,-0.00000327,0.00000195,0.000
 49882,0.00034383,0.00027813,-0.00017476,0.00003305,0.00019545,0.000040
 02,0.00003096,0.00001543,0.00000514,-0.00001735,-0.00000388,0.00093232
 ,0.00373865,-0.00159693,-0.00043038,0.00048686,0.00041285,-0.00003137,
 -0.00018317,0.00034012,0.00008985,-0.00004111,-0.00004694,-0.00334246,
 0.00392680,-0.00266681,-0.01051022,-0.01755673,-0.01801169,-0.13257906
 ,-0.07889561,-0.10129076,0.00938540,0.00875681,0.00855808,0.00000509,-
 0.00000609,-0.00001761,-0.00000030,0.00000234,0.00000006,0.00000275,0.
 00000099,0.00000153,0.00000234,0.00000281,0.00000050,0.00000367,-0.000
 00141,0.00000090,0.00000386,-0.00000156,0.00000069,0.00000015,-0.00000
 399,-0.00000007,-0.00000109,-0.00000304,-0.00000105,0.00000278,-0.0000
 0209,-0.00000215,-0.00000364,0.00000980,0.00000365,0.00001067,-0.00001
 160,-0.00002883,0.00005334,0.00004308,0.00002521,-0.00067478,-0.000885
 07,-0.00072479,0.00026827,-0.00046333,0.00157649,0.13659237,-0.0000052
 4,-0.00002432,-0.00000282,-0.00011935,0.00001118,0.00005510,0.00009219
 ,-0.00001136,0.00003929,0.00002669,0.00000452,0.00000072,-0.00002816,-
 0.00002905,0.00001386,0.00000369,0.00002563,0.00000758,0.00001889,-0.0
 0000010,0.00000534,-0.00000300,0.00001435,-0.00000174,0.00004399,-0.00
 005050,0.00001118,0.00006053,0.00005498,-0.00000090,-0.00006017,0.0000
 0333,-0.00000724,0.00002698,0.00005891,-0.00000215,-0.00007879,0.00003
 816,-0.00004325,0.00000514,0.00001495,0.00001548,0.00001372,0.00000269
 ,-0.00000275,-0.00006329,0.00002381,-0.00006640,0.00013445,0.00000760,
 0.00001926,-0.00011435,-0.00001602,-0.00000852,-0.00111398,0.00033196,
 -0.00053651,-0.00019985,-0.00044913,0.00000316,-0.00006957,-0.00011234
 ,0.00002688,-0.00011432,-0.00006372,-0.00003541,0.00449089,-0.00221698
 ,-0.00413820,0.00038594,-0.00092144,0.00026934,-0.00007044,0.00037409,
 0.00056936,0.00045965,-0.00030105,-0.00005448,0.00330758,0.00150174,-0
 .00087749,0.00594569,0.00906723,0.00698550,-0.07733674,-0.14142170,-0.
 10569877,-0.01602599,-0.01073944,-0.01776689,0.00000008,-0.00000647,-0
 .00000805,-0.00000693,-0.00000255,0.00001135,0.00000008,0.00000033,-0.
 00000046,0.00000066,0.00000115,-0.00000384,0.00000345,-0.00000020,-0.0
 0000276,0.00000407,0.00000075,-0.00000261,0.00000126,-0.00000436,-0.00
 000342,0.00000387,-0.00000608,0.00000421,0.00001051,-0.00000475,-0.000
 01029,0.00000625,-0.00005782,0.00000484,-0.00000428,-0.00000601,-0.000
 02704,-0.00003870,-0.00001692,-0.00003999,0.00049271,0.00040489,0.0002
 3287,-0.00124540,-0.00010659,0.00115152,0.08210769,0.14499844,0.000045
 01,-0.00019687,-0.00000829,0.00019925,-0.00011907,-0.00008882,-0.00017
 448,0.00007969,-0.00007287,0.00004770,-0.00000032,-0.00002306,0.000093
 56,0.00000430,0.00001660,-0.00004548,0.00004354,-0.00004152,0.00009917
 ,-0.00001429,0.00001758,-0.00001614,0.00008558,-0.00002579,-0.00008653
 ,-0.00003961,0.00001297,0.00000887,-0.00006088,0.00002172,-0.00001835,
 0.00002690,-0.00000641,0.00004043,-0.00001293,0.00000208,-0.00013007,0
 .00005702,0.00009228,-0.00004948,0.00000921,0.00002676,0.00015272,0.00
 001543,0.00005087,-0.00015168,-0.00002178,0.00012861,-0.00004298,-0.00
 000504,-0.00006624,0.00005646,0.00002243,0.00000536,-0.00042468,-0.000
 66045,-0.00017153,0.00060809,0.00002043,-0.00029562,-0.00000519,0.0000
 7839,-0.00001976,0.00005020,-0.00004751,0.00002041,-0.00078057,-0.0030
 0960,0.00580662,0.00061348,0.00095050,0.00000146,0.00008893,-0.0001486
 8,-0.00077271,-0.00038348,0.00026970,0.00009326,-0.00326710,-0.0005285
 0,0.00348745,-0.00240091,-0.00638195,-0.00216034,-0.10187652,-0.105169
 02,-0.15658134,-0.00612507,-0.00609975,-0.00314755,-0.00002053,-0.0000
 1553,0.00000700,0.00000747,0.00001483,-0.00007522,0.00000889,0.0000003
 2,-0.00000811,0.00000061,-0.00000158,0.00000014,-0.00000144,0.00000448
 ,-0.00000191,-0.00000232,0.00000357,-0.00000092,0.00000197,0.00000146,
 0.00000083,0.00000257,0.00000095,0.00000053,0.00000297,-0.00000050,0.0
 0000760,-0.00000261,-0.00000972,-0.00000343,-0.00002102,-0.00001670,0.
 00003667,-0.00001469,0.00000163,0.00002738,-0.00026607,-0.00047307,-0.
 00014543,0.00114019,0.00142269,-0.00157116,0.11126751,0.11773846,0.157
 91666,-0.00175298,0.00015873,0.00238542,-0.00102072,0.00113587,0.00139
 395,-0.00002552,0.00002882,0.00013520,0.00026542,0.00004303,0.00029403
 ,-0.00018187,0.00005902,-0.00014890,0.00003090,-0.00024424,0.00002332,
 -0.00007963,0.00005995,-0.00001812,-0.00001749,-0.00008514,0.00003422,
 0.00009626,0.00001886,-0.00002422,0.00000907,0.00009501,-0.00004631,-0
 .00004011,0.00000077,0.00000120,0.00000713,0.00004242,0.00000728,-0.00
 054038,-0.00016166,0.00055285,0.00026494,0.00028872,-0.00001741,-0.000
 23062,0.00006851,-0.00006868,0.00052322,0.00043937,0.00075224,0.000209
 05,-0.00042369,0.00001684,-0.00010033,-0.00001426,0.00000373,-0.001006
 99,0.00090850,0.00174208,-0.00033644,-0.00022427,-0.00016689,-0.000036
 67,0.00007338,-0.00003531,0.00002448,0.00001876,0.00000394,-0.01106321
 ,0.00452486,-0.00488441,0.00137704,-0.00140580,-0.00341009,-0.00045621
 ,0.00068634,0.00000015,0.00015234,-0.00013588,0.00001679,0.00033244,-0
 .00020811,0.00056651,0.00214922,0.00298771,-0.00113679,-0.00621137,0.0
 0176120,-0.00477067,-0.28259117,0.07891786,-0.09445831,-0.00000956,-0.
 00000445,-0.00004554,0.00000302,0.00000149,0.00000694,-0.00000118,0.00
 000278,-0.00001070,0.00000233,0.00000007,-0.00000930,0.00000239,0.,0.0
 0000079,0.00000293,-0.00000126,0.00000092,0.00000219,-0.00000507,-0.00
 000804,-0.00000785,-0.00000126,0.00000651,0.00001653,0.00000154,-0.000
 01006,-0.00000055,-0.00001148,-0.00000196,0.00000861,-0.00003291,-0.00
 000395,-0.00014592,-0.00015643,-0.00003660,-0.00020539,-0.00011961,0.0
 0030616,-0.00036869,-0.00001487,-0.00022600,-0.00004814,-0.00097345,0.
 00179427,0.30099736,0.00045392,0.00052772,-0.00060996,0.00133054,-0.00
 006482,-0.00095545,0.00031267,-0.00014402,-0.00004334,-0.00039217,-0.0
 0007269,-0.00008603,0.00012310,0.00003272,0.00003844,0.00000067,-0.000
 00312,0.00000126,-0.00005279,-0.00004200,0.00000867,0.00004951,-0.0000
 2005,-0.00000467,-0.00006698,0.00008478,-0.00000491,-0.00004979,-0.000
 00767,0.00007800,0.00013436,-0.00004583,0.00001383,-0.00008822,-0.0000
 7365,0.00000344,-0.00000722,-0.00036748,0.00030496,0.00002112,-0.00010
 116,0.00003240,-0.00006690,-0.00001664,0.00000543,-0.00030767,-0.00065
 019,-0.00067011,-0.00011328,-0.00028480,0.00009863,0.00010109,0.000092
 52,-0.00004811,-0.00043659,0.00031410,0.00133612,-0.00025393,-0.000233
 36,0.00005485,-0.00003082,0.00021222,-0.00009541,0.00010416,0.00003346
 ,0.00007085,-0.01724298,0.00842658,-0.00635780,-0.00097304,-0.00127033
 ,-0.00415775,-0.00077278,0.00047221,-0.00004199,0.00000242,-0.00000281
 ,0.00008079,-0.00054358,-0.00046861,-0.00002989,0.00236195,-0.00251622
 ,-0.00516404,0.02669304,-0.00448631,0.00903140,0.07837666,-0.07659126,
 0.02055331,-0.00001649,0.00001900,0.00000752,0.00000168,0.00000211,0.0
 0000380,0.00000305,-0.00000196,0.00000447,0.00000182,-0.00000127,0.000
 00649,-0.00000485,-0.00000555,0.00000270,-0.00000392,-0.00000817,0.000
 00089,-0.00000717,0.00000419,0.00000445,-0.00000721,0.00001064,-0.0000
 2040,0.00001306,0.00001319,0.00000442,0.00000331,0.00001277,-0.0000044
 8,0.00003057,-0.00001744,-0.00001726,-0.00017021,-0.00013894,-0.000225
 89,-0.00015126,-0.00013385,0.00047817,0.00117085,-0.00032155,0.0004008
 3,-0.00144362,-0.00037341,0.00216699,-0.08809831,0.07820111,0.00127289
 ,0.00003369,-0.00111214,0.00050708,-0.00086070,-0.00037555,0.00057443,
 0.00001479,0.00030640,0.00032575,-0.00018906,0.00009650,-0.00032671,-0
 .00002056,-0.00007814,-0.00008773,-0.00001756,0.00001210,0.00001252,-0
 .00002593,-0.00000102,-0.00001150,-0.00000174,0.00000822,0.00014054,-0
 .00015607,0.00001188,0.00021763,0.00027923,0.00001560,-0.00013665,0.00
 001551,-0.00003267,0.00008651,0.00013237,-0.00001215,-0.00013765,0.000
 51828,-0.00045802,0.00000948,-0.00001368,0.00000213,0.00001330,-0.0000
 5459,-0.00000045,-0.00066776,-0.00085414,-0.00090965,0.00019363,-0.000
 07179,0.00012767,-0.00032155,0.00010943,-0.00011767,0.00142316,0.00074
 801,-0.00151852,0.00029225,0.00032897,0.00018668,0.00013711,-0.0000648
 1,0.00014367,-0.00011288,-0.00011741,-0.00006102,-0.01691236,0.0084600
 2,-0.00125010,-0.00269148,-0.00469456,0.00158908,-0.00100972,0.0007044
 3,0.00006369,-0.00009343,0.00004031,-0.00015920,0.00042948,-0.00072277
 ,-0.00112903,-0.00107122,-0.00447509,0.00460474,0.00973379,-0.00402867
 ,0.00721907,-0.09348123,0.01924880,-0.07831371,0.00003953,0.00000538,-
 0.00000555,-0.00001199,-0.00003763,0.00001069,-0.00001186,-0.00000898,
 0.00000879,-0.00001437,-0.00000943,-0.00000288,-0.00001585,0.00000154,
 0.,-0.00001484,0.00001152,0.00000005,-0.00000746,0.00001077,-0.0000044
 6,-0.00000257,0.00000547,0.00000727,0.00001109,0.00001237,0.00001697,0
 .00000996,0.00000112,0.00000407,0.00001601,-0.00003070,0.00000433,-0.0
 0025072,-0.00026479,-0.00012365,0.00022871,0.00039756,-0.00059787,0.00
 048000,-0.00025499,0.00021902,0.00175911,0.00217791,-0.00249998,0.0994
 7152,-0.01626510,0.07412320,-0.00031473,-0.00136388,0.00133586,0.00024
 586,0.00021552,-0.00062842,-0.00007969,0.00010266,0.00000148,-0.000710
 78,0.00108450,0.00091504,-0.00021053,-0.00000898,-0.00006893,-0.000075
 90,0.00014101,-0.00020088,0.00020198,-0.00012160,-0.00003453,-0.000044
 85,0.00013899,-0.00001221,-0.00007261,-0.00001711,-0.00008982,0.000061
 03,0.00003219,0.00003497,-0.00004659,0.00002227,-0.00000849,0.00000789
 ,0.00001924,-0.00000611,-0.06627051,0.00752995,-0.03240365,0.00398161,
 0.00283556,0.00064156,0.00011853,-0.00002996,0.00059877,-0.00026996,0.
 00019239,-0.00008044,0.00008267,-0.00000880,0.00003286,-0.00006233,0.0
 0003828,-0.00002252,-0.00002628,0.00017044,0.00009706,0.00001141,-0.00
 000962,-0.00002638,0.00002447,0.00002197,0.00001735,-0.00003541,-0.000
 03107,-0.00001863,-0.00006403,-0.00018170,0.00073335,0.00006573,-0.000
 58276,0.00014909,0.00001934,0.00006913,0.00012764,0.00003971,-0.000028
 40,-0.00001367,-0.00005648,0.00023280,0.00001845,0.00013575,0.00003303
 ,0.00001020,-0.00000639,-0.00030137,0.00007930,-0.00057694,-0.00036525
 ,0.00028349,-0.06155117,0.01356903,-0.02924098,0.00071567,-0.00114801,
 0.00046683,-0.00008650,-0.00011401,-0.00006674,-0.00002087,-0.00000743
 ,0.00000622,-0.00000656,0.00000177,-0.00000023,-0.00001168,0.00001812,
 -0.00000761,-0.00000167,0.00000846,-0.00000467,0.00000117,0.00000737,0
 .00000330,0.00000612,0.00000822,0.00000459,0.00000709,-0.00000194,0.00
 000065,0.00000539,0.00000456,-0.00000342,0.00000956,-0.00000388,-0.000
 01460,0.00001359,0.00000865,-0.00000982,0.00000609,-0.00000657,-0.0000
 2271,-0.00000383,0.00002535,-0.00002288,0.00000214,0.00001223,0.000006
 01,0.12484347,-0.00032332,0.00047963,-0.00088294,-0.00007881,-0.000019
 64,0.00004909,0.00001026,-0.00000144,-0.00001263,-0.00020819,-0.000181
 78,-0.00009791,0.00007506,0.00000697,0.00005365,-0.00003837,0.00004644
 ,-0.00001049,-0.00002417,0.00002926,-0.00000430,0.00002021,-0.00001740
 ,0.00000038,-0.00000589,0.00000515,0.00000959,-0.00002030,-0.00003001,
 -0.00000928,0.00000459,-0.00000283,0.00000813,0.00000139,-0.00000586,-
 0.00000038,0.01248936,0.00323927,0.00688209,-0.00044803,-0.00028026,-0
 .00056986,0.00055233,0.00008245,-0.00018393,0.00003283,-0.00006042,-0.
 00001064,-0.00003496,0.00003058,0.00002140,0.00003384,-0.00001598,0.00
 000655,-0.00004118,-0.00000572,0.00007955,0.00008176,0.00001546,0.0000
 6286,-0.00001583,-0.00000379,-0.00001705,0.00001397,0.00000811,0.00000
 743,-0.00008998,-0.00027625,0.00054648,-0.00007782,-0.00011862,0.00021
 720,-0.00002291,-0.00001119,-0.00003473,-0.00004091,0.00002070,-0.0000
 1858,-0.00002499,0.00007860,0.00008442,-0.00010982,0.00002546,-0.00016
 352,0.00008817,0.00001101,-0.00010185,-0.00005127,-0.00026210,-0.00001
 554,0.01012491,-0.01563018,0.00580461,0.00033387,0.00049155,0.00001956
 ,0.00002922,0.00006199,0.00003104,0.00000762,0.00000031,-0.00000262,0.
 00000133,0.00000335,0.00000445,0.00000347,-0.00000507,-0.00000151,0.00
 000104,-0.00000305,0.00000142,0.00000192,-0.00000297,-0.00000302,-0.00
 000049,-0.00000337,-0.00000438,-0.00000231,-0.00000281,-0.00000050,-0.
 00000493,-0.00000020,-0.00000275,-0.00001052,-0.00000383,0.00000452,-0
 .00000522,0.00000103,0.00000660,-0.00001438,0.00000324,0.00000827,0.00
 000021,0.00000163,0.00001484,-0.00000142,0.00000583,-0.00001674,-0.022
 21134,0.01229676,0.00005087,-0.00117541,-0.00032871,0.00005884,0.00022
 488,-0.00005123,-0.00000225,0.00005402,-0.00001997,-0.00015212,0.00052
 788,0.00011851,-0.00018809,-0.00000233,-0.00001278,0.00004420,-0.00002
 635,-0.00006400,0.00004887,-0.00006725,-0.00007596,-0.00000625,0.00001
 999,-0.00000190,0.00000763,0.00005636,-0.00000767,0.00001696,0.0000111
 4,-0.00000303,-0.00001416,0.00001618,0.00000577,-0.00001166,0.00000252
 ,0.00001084,-0.03445207,0.00479732,-0.00896127,0.00217639,0.00093922,-
 0.00059202,-0.00030127,-0.00006011,0.00046289,-0.00007099,0.00005414,-
 0.00011121,0.00003677,-0.00000922,0.00000156,-0.00002867,0.00002212,-0
 .00000450,-0.00002598,0.00003773,0.00000744,-0.00002576,0.00001074,0.0
 0002064,0.00003329,-0.00000130,0.00000405,-0.00002615,-0.00001903,-0.0
 0001196,-0.00004178,0.00011668,-0.00033886,0.00019049,0.00018724,-0.00
 018587,0.00002829,0.00000331,0.00003153,0.00000825,-0.00001254,0.00001
 862,0.00009843,0.00000093,0.00005101,-0.00004242,-0.00009244,0.0000685
 5,-0.00021983,0.00025636,-0.00002620,0.00006844,0.00007600,-0.00036505
 ,-0.02491300,0.00657932,-0.02630433,0.00026291,-0.00078593,-0.00005753
 ,-0.00009156,-0.00001157,0.00010364,-0.00000882,-0.00000263,0.00000105
 ,-0.00000550,0.00000344,0.00001562,-0.00000519,0.00000910,-0.00001464,
 -0.00000151,0.00000425,-0.00000242,0.00000055,0.00000395,0.00000014,0.
 00000199,0.00000419,0.00000266,0.00000401,0.00000115,-0.00000022,0.000
 00452,-0.00000051,-0.00000276,0.00000717,0.00000129,-0.00000516,0.0000
 1593,-0.00000033,-0.00000301,0.00000625,-0.00000370,0.00000168,-0.0000
 0175,-0.00000125,0.00000715,0.00002147,0.00000945,-0.00001843,0.057444
 26,-0.01175898,0.03663737\\-0.00001125,-0.00001069,-0.00001162,-0.0000
 0113,0.00000440,0.00002518,-0.00000080,0.00000147,0.00000537,0.0000067
 2,0.00000303,-0.00001303,-0.00000143,-0.00000341,-0.00000610,-0.000003
 00,0.00000176,0.00000488,0.00000122,-0.00000004,-0.00000045,0.00000024
 ,-0.00000108,-0.00000950,-0.00000056,0.00000274,0.00000966,0.00000008,
 -0.00000100,-0.00000264,-0.00000042,0.00000031,-0.00000043,0.00000085,
 -0.00000144,-0.00000797,0.00004463,-0.00001069,0.00004375,-0.00002563,
 0.00000384,-0.00001772,0.00000243,-0.00000065,0.00000635,0.00000198,-0
 .00001224,-0.00002403,0.00000066,0.00000199,-0.00000719,-0.00000260,-0
 .00000147,0.00000701,0.00000502,0.00001526,-0.00000749,0.00000105,0.00
 000177,-0.00000070,-0.00000125,0.00000035,0.00000359,-0.00000144,-0.00
 000285,0.00000201,-0.00001099,0.00001213,-0.00000073,0.00001483,0.0000
 0318,0.00000018,-0.00000122,-0.00000168,0.00000383,-0.00000227,-0.0000
 0013,0.00000475,0.00000014,-0.00000495,0.00000375,0.00000123,-0.000001
 51,0.00000894,-0.00000800,0.00000720,-0.00000438,-0.00004824,0.0000315
 6,-0.00006003,0.00000623,-0.00001085,0.00006680,0.00000197,-0.00000364
 ,-0.00001279,-0.00000072,-0.00000062,-0.00000256,-0.00000061,0.0000006
 4,0.00000057,-0.00000017,0.00000046,0.00000085,-0.00000003,0.00000052,
 0.00000087,-0.00000008,-0.00000002,-0.00000043,0.00000053,-0.00000004,
 -0.00000376,0.00000144,0.00000044,-0.00000591,0.00000084,0.00000098,-0
 .00000400,-0.00000059,0.00000007,0.00000156,-0.00000061,0.00000014,0.0
 0000164,-0.00000110,-0.00000061,0.00000377,0.00000196,0.00000160,-0.00
 000135,0.00000183,0.00000020,-0.00000033,0.00007343,-0.00003026,0.0000
 3723,-0.00004521,0.00000385,-0.00003737\\\@


 WHEN ALL ELSE FAILS, TRY THE BOSS'S SUGGESTION.
 Job cpu time:       2 days  4 hours 11 minutes 37.4 seconds.
 Elapsed time:       0 days  2 hours 37 minutes  0.4 seconds.
 File lengths (MBytes):  RWF=   4598 Int=      0 D2E=      0 Chk=     65 Scr=      1
 Normal termination of Gaussian 16 at Wed Jul 24 06:19:39 2019.
