 Entering Gaussian System, Link 0=/share/apps/gaussian16/g16/g16
 Initial command:
 /share/apps/gaussian16/g16/l1.exe "/home/amen01//scratch/715/Gau-28226.inp" -scrdir="/home/amen01//scratch/715/"
 Entering Link 1 = /share/apps/gaussian16/g16/l1.exe PID=     28227.
  
 Copyright (c) 1988-2017, Gaussian, Inc.  All Rights Reserved.
  
 This is part of the Gaussian(R) 16 program.  It is based on
 the Gaussian(R) 09 system (copyright 2009, Gaussian, Inc.),
 the Gaussian(R) 03 system (copyright 2003, Gaussian, Inc.),
 the Gaussian(R) 98 system (copyright 1998, Gaussian, Inc.),
 the Gaussian(R) 94 system (copyright 1995, Gaussian, Inc.),
 the Gaussian 92(TM) system (copyright 1992, Gaussian, Inc.),
 the Gaussian 90(TM) system (copyright 1990, Gaussian, Inc.),
 the Gaussian 88(TM) system (copyright 1988, Gaussian, Inc.),
 the Gaussian 86(TM) system (copyright 1986, Carnegie Mellon
 University), and the Gaussian 82(TM) system (copyright 1983,
 Carnegie Mellon University). Gaussian is a federally registered
 trademark of Gaussian, Inc.
  
 This software contains proprietary and confidential information,
 including trade secrets, belonging to Gaussian, Inc.
  
 This software is provided under written license and may be
 used, copied, transmitted, or stored only in accord with that
 written license.
  
 The following legend is applicable only to US Government
 contracts under FAR:
  
                    RESTRICTED RIGHTS LEGEND
  
 Use, reproduction and disclosure by the US Government is
 subject to restrictions as set forth in subparagraphs (a)
 and (c) of the Commercial Computer Software - Restricted
 Rights clause in FAR 52.227-19.
  
 Gaussian, Inc.
 340 Quinnipiac St., Bldg. 40, Wallingford CT 06492
  
  
 ---------------------------------------------------------------
 Warning -- This program may not be used in any manner that
 competes with the business of Gaussian, Inc. or will provide
 assistance to any competitor of Gaussian, Inc.  The licensee
 of this program is prohibited from giving any competitor of
 Gaussian, Inc. access to this program.  By using this program,
 the user acknowledges that Gaussian, Inc. is engaged in the
 business of creating and licensing software in the field of
 computational chemistry and represents and warrants to the
 licensee that it is not a competitor of Gaussian, Inc. and that
 it will not use this program in any manner prohibited above.
 ---------------------------------------------------------------
  

 Cite this work as:
 Gaussian 16, Revision B.01,
 M. J. Frisch, G. W. Trucks, H. B. Schlegel, G. E. Scuseria, 
 M. A. Robb, J. R. Cheeseman, G. Scalmani, V. Barone, 
 G. A. Petersson, H. Nakatsuji, X. Li, M. Caricato, A. V. Marenich, 
 J. Bloino, B. G. Janesko, R. Gomperts, B. Mennucci, H. P. Hratchian, 
 J. V. Ortiz, A. F. Izmaylov, J. L. Sonnenberg, D. Williams-Young, 
 F. Ding, F. Lipparini, F. Egidi, J. Goings, B. Peng, A. Petrone, 
 T. Henderson, D. Ranasinghe, V. G. Zakrzewski, J. Gao, N. Rega, 
 G. Zheng, W. Liang, M. Hada, M. Ehara, K. Toyota, R. Fukuda, 
 J. Hasegawa, M. Ishida, T. Nakajima, Y. Honda, O. Kitao, H. Nakai, 
 T. Vreven, K. Throssell, J. A. Montgomery, Jr., J. E. Peralta, 
 F. Ogliaro, M. J. Bearpark, J. J. Heyd, E. N. Brothers, K. N. Kudin, 
 V. N. Staroverov, T. A. Keith, R. Kobayashi, J. Normand, 
 K. Raghavachari, A. P. Rendell, J. C. Burant, S. S. Iyengar, 
 J. Tomasi, M. Cossi, J. M. Millam, M. Klene, C. Adamo, R. Cammi, 
 J. W. Ochterski, R. L. Martin, K. Morokuma, O. Farkas, 
 J. B. Foresman, and D. J. Fox, Gaussian, Inc., Wallingford CT, 2016.
 
 ******************************************
 Gaussian 16:  ES64L-G16RevB.01 20-Dec-2017
                26-Jul-2019 
 ******************************************
 %nprocshared=20
 Will use up to   20 processors via shared memory.
 %mem=160GB
 %chk=7-memb2-haddTSguess-1b.chk
 ---------------------------------------------------------------
 # opt=(ts,calcfc,noeigen) freq b3lyp/6-311+g(d,p) int=grid=fine
 ---------------------------------------------------------------
 1/5=1,10=4,11=1,18=20,26=3,38=1/1,3;
 2/9=110,12=2,17=6,18=5,40=1/2;
 3/5=4,6=6,7=111,11=2,25=1,30=1,71=2,74=-5,75=-4,140=1/1,2,3;
 4//1;
 5/5=2,38=5/2;
 8/6=4,10=90,11=11/1;
 11/6=1,8=1,9=11,15=111,16=1/1,2,10;
 10/6=1,13=1/2;
 6/7=2,8=2,9=2,10=2,28=1/1;
 7/10=1,18=20,25=1/1,2,3,16;
 1/5=1,10=4,11=1,18=20,26=3/3(2);
 2/9=110/2;
 99//99;
 2/9=110/2;
 3/5=4,6=6,7=111,11=2,25=1,30=1,71=1,74=-5,75=-4/1,2,3;
 4/5=5,16=3,69=1/1;
 5/5=2,38=5/2;
 7//1,2,3,16;
 1/5=1,11=1,18=20,26=3/3(-5);
 2/9=110/2;
 6/7=2,8=2,9=2,10=2,19=2,28=1/1;
 99/9=1/99;
 ----------------------
 7-memb2-haddTSguess-1b
 ----------------------
 Symbolic Z-matrix:
 Charge =  0 Multiplicity = 2
 C                     0.82114  -1.00932  -0.366 
 C                     0.47502   0.41337   0.00822 
 C                     1.71603   1.02413   0.30682 
 C                     2.22958  -1.12576  -0.19109 
 C                     2.76332   0.09414   0.221 
 C                     3.05266  -2.1959   -0.52751 
 C                     4.46611  -1.96236  -0.34618 
 C                     4.97308  -0.74039   0.06204 
 C                     4.10724   0.37859   0.33348 
 C                     1.99639   2.37944   0.50191 
 C                     3.39509   2.7091    0.69683 
 C                     4.39827   1.7665    0.62279 
 C                     0.20715  -2.11316  -0.93117 
 C                     0.99947  -3.2527   -1.25765 
 C                     2.37224  -3.32008  -1.06847 
 C                    -0.65654   1.25943  -0.0025 
 C                    -0.37868   2.69442   0.04365 
 C                     0.89349   3.22564   0.33123 
 C                    -2.04747   0.84314  -0.12554 
 C                    -2.97665   1.76961  -0.65024 
 C                    -2.62671   3.15461  -0.76612 
 C                    -1.42078   3.60389  -0.33941 
 C                    -2.56108  -0.43051   0.34387 
 C                    -3.89499  -0.81922  -0.00893 
 C                    -4.71602   0.07566  -0.74742 
 C                    -4.2902    1.34587  -1.00425 
 C                    -4.42511  -2.04553   0.4738 
 C                    -3.71359  -2.83866   1.33413 
 C                    -2.41167  -2.43996   1.73914 
 C                    -1.87277  -1.2462    1.27304 
 H                    -0.85252  -2.14167  -1.14689 
 H                     2.91377  -4.21493  -1.35679 
 H                     5.16093  -2.7671   -0.56449 
 H                     6.04832  -0.62242   0.14953 
 H                     5.42791   2.08395   0.75229 
 H                     3.66269   3.74503   0.87842 
 H                     1.00887   4.30492   0.34708 
 H                    -1.19681   4.66519  -0.34115 
 H                    -3.37588   3.84631  -1.13577 
 H                    -4.95254   2.06307  -1.47724 
 H                    -5.71309  -0.24198  -1.03325 
 H                    -5.43317  -2.32089   0.18165 
 H                    -4.1373   -3.76052   1.71489 
 H                    -1.92341  -2.95593   2.5568 
 H                    -0.91246  -0.92709   1.6503 
 H                     0.49182  -4.10903  -1.68725 
 H                    -1.46125  -3.83373   0.75495 
 
 Add virtual bond connecting atoms H47        and C29        Dist= 3.69D+00.
 Add virtual bond connecting atoms H47        and H44        Dist= 3.89D+00.

 GradGradGradGradGradGradGradGradGradGradGradGradGradGradGradGradGradGrad
 Berny optimization.
 Initialization pass.
                           ----------------------------
                           !    Initial Parameters    !
                           ! (Angstroms and Degrees)  !
 --------------------------                            --------------------------
 ! Name  Definition              Value          Derivative Info.                !
 --------------------------------------------------------------------------------
 ! R1    R(1,2)                  1.5113         calculate D2E/DX2 analytically  !
 ! R2    R(1,4)                  1.424          calculate D2E/DX2 analytically  !
 ! R3    R(1,13)                 1.3838         calculate D2E/DX2 analytically  !
 ! R4    R(2,3)                  1.415          calculate D2E/DX2 analytically  !
 ! R5    R(2,16)                 1.4129         calculate D2E/DX2 analytically  !
 ! R6    R(3,5)                  1.4032         calculate D2E/DX2 analytically  !
 ! R7    R(3,10)                 1.3977         calculate D2E/DX2 analytically  !
 ! R8    R(4,5)                  1.3939         calculate D2E/DX2 analytically  !
 ! R9    R(4,6)                  1.3913         calculate D2E/DX2 analytically  !
 ! R10   R(5,9)                  1.3783         calculate D2E/DX2 analytically  !
 ! R11   R(6,7)                  1.444          calculate D2E/DX2 analytically  !
 ! R12   R(6,15)                 1.421          calculate D2E/DX2 analytically  !
 ! R13   R(7,8)                  1.3845         calculate D2E/DX2 analytically  !
 ! R14   R(7,33)                 1.0854         calculate D2E/DX2 analytically  !
 ! R15   R(8,9)                  1.4406         calculate D2E/DX2 analytically  !
 ! R16   R(8,34)                 1.0852         calculate D2E/DX2 analytically  !
 ! R17   R(9,12)                 1.4473         calculate D2E/DX2 analytically  !
 ! R18   R(10,11)                1.4502         calculate D2E/DX2 analytically  !
 ! R19   R(10,18)                1.4006         calculate D2E/DX2 analytically  !
 ! R20   R(11,12)                1.3785         calculate D2E/DX2 analytically  !
 ! R21   R(11,36)                1.0852         calculate D2E/DX2 analytically  !
 ! R22   R(12,35)                1.0852         calculate D2E/DX2 analytically  !
 ! R23   R(13,14)                1.4258         calculate D2E/DX2 analytically  !
 ! R24   R(13,31)                1.0818         calculate D2E/DX2 analytically  !
 ! R25   R(14,15)                1.3874         calculate D2E/DX2 analytically  !
 ! R26   R(14,46)                1.0842         calculate D2E/DX2 analytically  !
 ! R27   R(15,32)                1.085          calculate D2E/DX2 analytically  !
 ! R28   R(16,17)                1.4624         calculate D2E/DX2 analytically  !
 ! R29   R(16,19)                1.4571         calculate D2E/DX2 analytically  !
 ! R30   R(17,18)                1.4083         calculate D2E/DX2 analytically  !
 ! R31   R(17,22)                1.4352         calculate D2E/DX2 analytically  !
 ! R32   R(18,37)                1.0856         calculate D2E/DX2 analytically  !
 ! R33   R(19,20)                1.4132         calculate D2E/DX2 analytically  !
 ! R34   R(19,23)                1.4513         calculate D2E/DX2 analytically  !
 ! R35   R(20,21)                1.4332         calculate D2E/DX2 analytically  !
 ! R36   R(20,26)                1.4249         calculate D2E/DX2 analytically  !
 ! R37   R(21,22)                1.3558         calculate D2E/DX2 analytically  !
 ! R38   R(21,39)                1.0846         calculate D2E/DX2 analytically  !
 ! R39   R(22,38)                1.0847         calculate D2E/DX2 analytically  !
 ! R40   R(23,24)                1.4335         calculate D2E/DX2 analytically  !
 ! R41   R(23,30)                1.4151         calculate D2E/DX2 analytically  !
 ! R42   R(24,25)                1.4214         calculate D2E/DX2 analytically  !
 ! R43   R(24,27)                1.4205         calculate D2E/DX2 analytically  !
 ! R44   R(25,26)                1.3641         calculate D2E/DX2 analytically  !
 ! R45   R(25,41)                1.0848         calculate D2E/DX2 analytically  !
 ! R46   R(26,40)                1.0848         calculate D2E/DX2 analytically  !
 ! R47   R(27,28)                1.3695         calculate D2E/DX2 analytically  !
 ! R48   R(27,42)                1.0851         calculate D2E/DX2 analytically  !
 ! R49   R(28,29)                1.4206         calculate D2E/DX2 analytically  !
 ! R50   R(28,43)                1.0837         calculate D2E/DX2 analytically  !
 ! R51   R(29,30)                1.3902         calculate D2E/DX2 analytically  !
 ! R52   R(29,44)                1.0831         calculate D2E/DX2 analytically  !
 ! R53   R(29,47)                1.9531         calculate D2E/DX2 analytically  !
 ! R54   R(30,45)                1.08           calculate D2E/DX2 analytically  !
 ! R55   R(44,47)                2.0569         calculate D2E/DX2 analytically  !
 ! A1    A(2,1,4)              105.8478         calculate D2E/DX2 analytically  !
 ! A2    A(2,1,13)             138.6301         calculate D2E/DX2 analytically  !
 ! A3    A(4,1,13)             115.0742         calculate D2E/DX2 analytically  !
 ! A4    A(1,2,3)              104.9346         calculate D2E/DX2 analytically  !
 ! A5    A(1,2,16)             138.1811         calculate D2E/DX2 analytically  !
 ! A6    A(3,2,16)             116.4564         calculate D2E/DX2 analytically  !
 ! A7    A(2,3,5)              110.8304         calculate D2E/DX2 analytically  !
 ! A8    A(2,3,10)             128.6022         calculate D2E/DX2 analytically  !
 ! A9    A(5,3,10)             120.0979         calculate D2E/DX2 analytically  !
 ! A10   A(1,4,5)              110.0894         calculate D2E/DX2 analytically  !
 ! A11   A(1,4,6)              128.1912         calculate D2E/DX2 analytically  !
 ! A12   A(5,4,6)              121.2052         calculate D2E/DX2 analytically  !
 ! A13   A(3,5,4)              108.1988         calculate D2E/DX2 analytically  !
 ! A14   A(3,5,9)              125.8717         calculate D2E/DX2 analytically  !
 ! A15   A(4,5,9)              125.3183         calculate D2E/DX2 analytically  !
 ! A16   A(4,6,7)              115.1057         calculate D2E/DX2 analytically  !
 ! A17   A(4,6,15)             114.6613         calculate D2E/DX2 analytically  !
 ! A18   A(7,6,15)             130.1214         calculate D2E/DX2 analytically  !
 ! A19   A(6,7,8)              122.5595         calculate D2E/DX2 analytically  !
 ! A20   A(6,7,33)             118.7794         calculate D2E/DX2 analytically  !
 ! A21   A(8,7,33)             118.639          calculate D2E/DX2 analytically  !
 ! A22   A(7,8,9)              121.4005         calculate D2E/DX2 analytically  !
 ! A23   A(7,8,34)             118.8502         calculate D2E/DX2 analytically  !
 ! A24   A(9,8,34)             119.7255         calculate D2E/DX2 analytically  !
 ! A25   A(5,9,8)              114.2267         calculate D2E/DX2 analytically  !
 ! A26   A(5,9,12)             114.2226         calculate D2E/DX2 analytically  !
 ! A27   A(8,9,12)             131.4265         calculate D2E/DX2 analytically  !
 ! A28   A(3,10,11)            115.6364         calculate D2E/DX2 analytically  !
 ! A29   A(3,10,18)            114.2613         calculate D2E/DX2 analytically  !
 ! A30   A(11,10,18)           129.6839         calculate D2E/DX2 analytically  !
 ! A31   A(10,11,12)           122.6307         calculate D2E/DX2 analytically  !
 ! A32   A(10,11,36)           118.5097         calculate D2E/DX2 analytically  !
 ! A33   A(12,11,36)           118.8332         calculate D2E/DX2 analytically  !
 ! A34   A(9,12,11)            121.3405         calculate D2E/DX2 analytically  !
 ! A35   A(9,12,35)            119.6798         calculate D2E/DX2 analytically  !
 ! A36   A(11,12,35)           118.9479         calculate D2E/DX2 analytically  !
 ! A37   A(1,13,14)            118.979          calculate D2E/DX2 analytically  !
 ! A38   A(1,13,31)            122.4872         calculate D2E/DX2 analytically  !
 ! A39   A(14,13,31)           118.5297         calculate D2E/DX2 analytically  !
 ! A40   A(13,14,15)           123.879          calculate D2E/DX2 analytically  !
 ! A41   A(13,14,46)           117.5019         calculate D2E/DX2 analytically  !
 ! A42   A(15,14,46)           118.6165         calculate D2E/DX2 analytically  !
 ! A43   A(6,15,14)            119.1606         calculate D2E/DX2 analytically  !
 ! A44   A(6,15,32)            120.9741         calculate D2E/DX2 analytically  !
 ! A45   A(14,15,32)           119.8469         calculate D2E/DX2 analytically  !
 ! A46   A(2,16,17)            115.7971         calculate D2E/DX2 analytically  !
 ! A47   A(2,16,19)            126.4455         calculate D2E/DX2 analytically  !
 ! A48   A(17,16,19)           117.6708         calculate D2E/DX2 analytically  !
 ! A49   A(16,17,18)           123.2454         calculate D2E/DX2 analytically  !
 ! A50   A(16,17,22)           118.3876         calculate D2E/DX2 analytically  !
 ! A51   A(18,17,22)           118.1237         calculate D2E/DX2 analytically  !
 ! A52   A(10,18,17)           120.553          calculate D2E/DX2 analytically  !
 ! A53   A(10,18,37)           121.0118         calculate D2E/DX2 analytically  !
 ! A54   A(17,18,37)           118.2961         calculate D2E/DX2 analytically  !
 ! A55   A(16,19,20)           118.1456         calculate D2E/DX2 analytically  !
 ! A56   A(16,19,23)           124.1412         calculate D2E/DX2 analytically  !
 ! A57   A(20,19,23)           117.564          calculate D2E/DX2 analytically  !
 ! A58   A(19,20,21)           120.1997         calculate D2E/DX2 analytically  !
 ! A59   A(19,20,26)           120.2272         calculate D2E/DX2 analytically  !
 ! A60   A(21,20,26)           119.497          calculate D2E/DX2 analytically  !
 ! A61   A(20,21,22)           120.7947         calculate D2E/DX2 analytically  !
 ! A62   A(20,21,39)           118.372          calculate D2E/DX2 analytically  !
 ! A63   A(22,21,39)           120.6843         calculate D2E/DX2 analytically  !
 ! A64   A(17,22,21)           121.3213         calculate D2E/DX2 analytically  !
 ! A65   A(17,22,38)           118.0683         calculate D2E/DX2 analytically  !
 ! A66   A(21,22,38)           120.4908         calculate D2E/DX2 analytically  !
 ! A67   A(19,23,24)           119.1882         calculate D2E/DX2 analytically  !
 ! A68   A(19,23,30)           123.0996         calculate D2E/DX2 analytically  !
 ! A69   A(24,23,30)           117.2525         calculate D2E/DX2 analytically  !
 ! A70   A(23,24,25)           119.6472         calculate D2E/DX2 analytically  !
 ! A71   A(23,24,27)           119.8495         calculate D2E/DX2 analytically  !
 ! A72   A(25,24,27)           120.2986         calculate D2E/DX2 analytically  !
 ! A73   A(24,25,26)           120.2499         calculate D2E/DX2 analytically  !
 ! A74   A(24,25,41)           118.9127         calculate D2E/DX2 analytically  !
 ! A75   A(26,25,41)           120.6627         calculate D2E/DX2 analytically  !
 ! A76   A(20,26,25)           121.1924         calculate D2E/DX2 analytically  !
 ! A77   A(20,26,40)           118.3319         calculate D2E/DX2 analytically  !
 ! A78   A(25,26,40)           120.4731         calculate D2E/DX2 analytically  !
 ! A79   A(24,27,28)           121.3022         calculate D2E/DX2 analytically  !
 ! A80   A(24,27,42)           118.3128         calculate D2E/DX2 analytically  !
 ! A81   A(28,27,42)           120.322          calculate D2E/DX2 analytically  !
 ! A82   A(27,28,29)           119.5202         calculate D2E/DX2 analytically  !
 ! A83   A(27,28,43)           120.6809         calculate D2E/DX2 analytically  !
 ! A84   A(29,28,43)           119.7964         calculate D2E/DX2 analytically  !
 ! A85   A(28,29,30)           120.0444         calculate D2E/DX2 analytically  !
 ! A86   A(28,29,44)           119.6475         calculate D2E/DX2 analytically  !
 ! A87   A(28,29,47)            95.8557         calculate D2E/DX2 analytically  !
 ! A88   A(30,29,44)           119.1702         calculate D2E/DX2 analytically  !
 ! A89   A(30,29,47)           104.7851         calculate D2E/DX2 analytically  !
 ! A90   A(23,30,29)           121.7733         calculate D2E/DX2 analytically  !
 ! A91   A(23,30,45)           119.4432         calculate D2E/DX2 analytically  !
 ! A92   A(29,30,45)           118.7694         calculate D2E/DX2 analytically  !
 ! D1    D(4,1,2,3)              2.7431         calculate D2E/DX2 analytically  !
 ! D2    D(4,1,2,16)           174.4892         calculate D2E/DX2 analytically  !
 ! D3    D(13,1,2,3)          -168.7053         calculate D2E/DX2 analytically  !
 ! D4    D(13,1,2,16)            3.0408         calculate D2E/DX2 analytically  !
 ! D5    D(2,1,4,5)             -1.3481         calculate D2E/DX2 analytically  !
 ! D6    D(2,1,4,6)           -173.0885         calculate D2E/DX2 analytically  !
 ! D7    D(13,1,4,5)           172.4228         calculate D2E/DX2 analytically  !
 ! D8    D(13,1,4,6)             0.6824         calculate D2E/DX2 analytically  !
 ! D9    D(2,1,13,14)          172.166          calculate D2E/DX2 analytically  !
 ! D10   D(2,1,13,31)           -7.0865         calculate D2E/DX2 analytically  !
 ! D11   D(4,1,13,14)            1.2529         calculate D2E/DX2 analytically  !
 ! D12   D(4,1,13,31)         -177.9997         calculate D2E/DX2 analytically  !
 ! D13   D(1,2,3,5)             -3.2321         calculate D2E/DX2 analytically  !
 ! D14   D(1,2,3,10)           168.7878         calculate D2E/DX2 analytically  !
 ! D15   D(16,2,3,5)          -177.0943         calculate D2E/DX2 analytically  !
 ! D16   D(16,2,3,10)           -5.0744         calculate D2E/DX2 analytically  !
 ! D17   D(1,2,16,17)         -159.8944         calculate D2E/DX2 analytically  !
 ! D18   D(1,2,16,19)           16.6216         calculate D2E/DX2 analytically  !
 ! D19   D(3,2,16,17)           11.1925         calculate D2E/DX2 analytically  !
 ! D20   D(3,2,16,19)         -172.2915         calculate D2E/DX2 analytically  !
 ! D21   D(2,3,5,4)              2.5078         calculate D2E/DX2 analytically  !
 ! D22   D(2,3,5,9)            173.8997         calculate D2E/DX2 analytically  !
 ! D23   D(10,3,5,4)          -170.2882         calculate D2E/DX2 analytically  !
 ! D24   D(10,3,5,9)             1.1037         calculate D2E/DX2 analytically  !
 ! D25   D(2,3,10,11)         -175.54           calculate D2E/DX2 analytically  !
 ! D26   D(2,3,10,18)           -2.2338         calculate D2E/DX2 analytically  !
 ! D27   D(5,3,10,11)           -4.1655         calculate D2E/DX2 analytically  !
 ! D28   D(5,3,10,18)          169.1407         calculate D2E/DX2 analytically  !
 ! D29   D(1,4,5,3)             -0.6097         calculate D2E/DX2 analytically  !
 ! D30   D(1,4,5,9)           -172.0613         calculate D2E/DX2 analytically  !
 ! D31   D(6,4,5,3)            171.8047         calculate D2E/DX2 analytically  !
 ! D32   D(6,4,5,9)              0.353          calculate D2E/DX2 analytically  !
 ! D33   D(1,4,6,7)            174.1288         calculate D2E/DX2 analytically  !
 ! D34   D(1,4,6,15)            -2.423          calculate D2E/DX2 analytically  !
 ! D35   D(5,4,6,7)              3.2045         calculate D2E/DX2 analytically  !
 ! D36   D(5,4,6,15)          -173.3473         calculate D2E/DX2 analytically  !
 ! D37   D(3,5,9,8)           -173.6234         calculate D2E/DX2 analytically  !
 ! D38   D(3,5,9,12)             2.7956         calculate D2E/DX2 analytically  !
 ! D39   D(4,5,9,8)             -3.659          calculate D2E/DX2 analytically  !
 ! D40   D(4,5,9,12)           172.7601         calculate D2E/DX2 analytically  !
 ! D41   D(4,6,7,8)             -3.4038         calculate D2E/DX2 analytically  !
 ! D42   D(4,6,7,33)           178.333          calculate D2E/DX2 analytically  !
 ! D43   D(15,6,7,8)           172.4971         calculate D2E/DX2 analytically  !
 ! D44   D(15,6,7,33)           -5.7661         calculate D2E/DX2 analytically  !
 ! D45   D(4,6,15,14)            2.1771         calculate D2E/DX2 analytically  !
 ! D46   D(4,6,15,32)         -179.3874         calculate D2E/DX2 analytically  !
 ! D47   D(7,6,15,14)         -173.7386         calculate D2E/DX2 analytically  !
 ! D48   D(7,6,15,32)            4.6969         calculate D2E/DX2 analytically  !
 ! D49   D(6,7,8,9)              0.0888         calculate D2E/DX2 analytically  !
 ! D50   D(6,7,8,34)          -178.1322         calculate D2E/DX2 analytically  !
 ! D51   D(33,7,8,9)           178.3543         calculate D2E/DX2 analytically  !
 ! D52   D(33,7,8,34)            0.1334         calculate D2E/DX2 analytically  !
 ! D53   D(7,8,9,5)              3.3489         calculate D2E/DX2 analytically  !
 ! D54   D(7,8,9,12)          -172.2944         calculate D2E/DX2 analytically  !
 ! D55   D(34,8,9,5)          -178.4455         calculate D2E/DX2 analytically  !
 ! D56   D(34,8,9,12)            5.9112         calculate D2E/DX2 analytically  !
 ! D57   D(5,9,12,11)           -3.47           calculate D2E/DX2 analytically  !
 ! D58   D(5,9,12,35)          178.6039         calculate D2E/DX2 analytically  !
 ! D59   D(8,9,12,11)          172.1734         calculate D2E/DX2 analytically  !
 ! D60   D(8,9,12,35)           -5.7527         calculate D2E/DX2 analytically  !
 ! D61   D(3,10,11,12)           3.468          calculate D2E/DX2 analytically  !
 ! D62   D(3,10,11,36)        -178.4245         calculate D2E/DX2 analytically  !
 ! D63   D(18,10,11,12)       -168.5948         calculate D2E/DX2 analytically  !
 ! D64   D(18,10,11,36)          9.5126         calculate D2E/DX2 analytically  !
 ! D65   D(3,10,18,17)           2.5172         calculate D2E/DX2 analytically  !
 ! D66   D(3,10,18,37)        -173.1216         calculate D2E/DX2 analytically  !
 ! D67   D(11,10,18,17)        174.6687         calculate D2E/DX2 analytically  !
 ! D68   D(11,10,18,37)         -0.9701         calculate D2E/DX2 analytically  !
 ! D69   D(10,11,12,9)           0.4302         calculate D2E/DX2 analytically  !
 ! D70   D(10,11,12,35)        178.3711         calculate D2E/DX2 analytically  !
 ! D71   D(36,11,12,9)        -177.6714         calculate D2E/DX2 analytically  !
 ! D72   D(36,11,12,35)          0.2695         calculate D2E/DX2 analytically  !
 ! D73   D(1,13,14,15)          -1.3806         calculate D2E/DX2 analytically  !
 ! D74   D(1,13,14,46)         179.2127         calculate D2E/DX2 analytically  !
 ! D75   D(31,13,14,15)        177.9018         calculate D2E/DX2 analytically  !
 ! D76   D(31,13,14,46)         -1.5049         calculate D2E/DX2 analytically  !
 ! D77   D(13,14,15,6)          -0.4675         calculate D2E/DX2 analytically  !
 ! D78   D(13,14,15,32)       -178.921          calculate D2E/DX2 analytically  !
 ! D79   D(46,14,15,6)         178.933          calculate D2E/DX2 analytically  !
 ! D80   D(46,14,15,32)          0.4795         calculate D2E/DX2 analytically  !
 ! D81   D(2,16,17,18)         -11.5627         calculate D2E/DX2 analytically  !
 ! D82   D(2,16,17,22)         162.6585         calculate D2E/DX2 analytically  !
 ! D83   D(19,16,17,18)        171.6015         calculate D2E/DX2 analytically  !
 ! D84   D(19,16,17,22)        -14.1773         calculate D2E/DX2 analytically  !
 ! D85   D(2,16,19,20)        -154.7907         calculate D2E/DX2 analytically  !
 ! D86   D(2,16,19,23)          29.7662         calculate D2E/DX2 analytically  !
 ! D87   D(17,16,19,20)         21.6674         calculate D2E/DX2 analytically  !
 ! D88   D(17,16,19,23)       -153.7757         calculate D2E/DX2 analytically  !
 ! D89   D(16,17,18,10)          4.4079         calculate D2E/DX2 analytically  !
 ! D90   D(16,17,18,37)       -179.8369         calculate D2E/DX2 analytically  !
 ! D91   D(22,17,18,10)       -169.8276         calculate D2E/DX2 analytically  !
 ! D92   D(22,17,18,37)          5.9276         calculate D2E/DX2 analytically  !
 ! D93   D(16,17,22,21)         -1.571          calculate D2E/DX2 analytically  !
 ! D94   D(16,17,22,38)       -177.6121         calculate D2E/DX2 analytically  !
 ! D95   D(18,17,22,21)        172.9499         calculate D2E/DX2 analytically  !
 ! D96   D(18,17,22,38)         -3.0912         calculate D2E/DX2 analytically  !
 ! D97   D(16,19,20,21)        -13.9454         calculate D2E/DX2 analytically  !
 ! D98   D(16,19,20,26)        169.2411         calculate D2E/DX2 analytically  !
 ! D99   D(23,19,20,21)        161.8007         calculate D2E/DX2 analytically  !
 ! D100  D(23,19,20,26)        -15.0127         calculate D2E/DX2 analytically  !
 ! D101  D(16,19,23,24)       -170.5866         calculate D2E/DX2 analytically  !
 ! D102  D(16,19,23,30)         17.4133         calculate D2E/DX2 analytically  !
 ! D103  D(20,19,23,24)         13.9459         calculate D2E/DX2 analytically  !
 ! D104  D(20,19,23,30)       -158.0542         calculate D2E/DX2 analytically  !
 ! D105  D(19,20,21,22)         -2.0079         calculate D2E/DX2 analytically  !
 ! D106  D(19,20,21,39)       -177.6011         calculate D2E/DX2 analytically  !
 ! D107  D(26,20,21,22)        174.8288         calculate D2E/DX2 analytically  !
 ! D108  D(26,20,21,39)         -0.7644         calculate D2E/DX2 analytically  !
 ! D109  D(19,20,26,25)          5.38           calculate D2E/DX2 analytically  !
 ! D110  D(19,20,26,40)       -175.2023         calculate D2E/DX2 analytically  !
 ! D111  D(21,20,26,25)       -171.4558         calculate D2E/DX2 analytically  !
 ! D112  D(21,20,26,40)          7.9619         calculate D2E/DX2 analytically  !
 ! D113  D(20,21,22,17)          9.9449         calculate D2E/DX2 analytically  !
 ! D114  D(20,21,22,38)       -174.1092         calculate D2E/DX2 analytically  !
 ! D115  D(39,21,22,17)       -174.5641         calculate D2E/DX2 analytically  !
 ! D116  D(39,21,22,38)          1.3819         calculate D2E/DX2 analytically  !
 ! D117  D(19,23,24,25)         -3.4246         calculate D2E/DX2 analytically  !
 ! D118  D(19,23,24,27)       -178.2423         calculate D2E/DX2 analytically  !
 ! D119  D(30,23,24,25)        169.0397         calculate D2E/DX2 analytically  !
 ! D120  D(30,23,24,27)         -5.7781         calculate D2E/DX2 analytically  !
 ! D121  D(19,23,30,29)        177.7479         calculate D2E/DX2 analytically  !
 ! D122  D(19,23,30,45)         -0.8709         calculate D2E/DX2 analytically  !
 ! D123  D(24,23,30,29)          5.6031         calculate D2E/DX2 analytically  !
 ! D124  D(24,23,30,45)       -173.0157         calculate D2E/DX2 analytically  !
 ! D125  D(23,24,25,26)         -6.5526         calculate D2E/DX2 analytically  !
 ! D126  D(23,24,25,41)        178.2179         calculate D2E/DX2 analytically  !
 ! D127  D(27,24,25,26)        168.2415         calculate D2E/DX2 analytically  !
 ! D128  D(27,24,25,41)         -6.988          calculate D2E/DX2 analytically  !
 ! D129  D(23,24,27,28)          3.5958         calculate D2E/DX2 analytically  !
 ! D130  D(23,24,27,42)       -179.2795         calculate D2E/DX2 analytically  !
 ! D131  D(25,24,27,28)       -171.1877         calculate D2E/DX2 analytically  !
 ! D132  D(25,24,27,42)          5.9369         calculate D2E/DX2 analytically  !
 ! D133  D(24,25,26,20)          5.7234         calculate D2E/DX2 analytically  !
 ! D134  D(24,25,26,40)       -173.6819         calculate D2E/DX2 analytically  !
 ! D135  D(41,25,26,20)       -179.1314         calculate D2E/DX2 analytically  !
 ! D136  D(41,25,26,40)          1.4633         calculate D2E/DX2 analytically  !
 ! D137  D(24,27,28,29)         -0.9097         calculate D2E/DX2 analytically  !
 ! D138  D(24,27,28,43)        178.5189         calculate D2E/DX2 analytically  !
 ! D139  D(42,27,28,29)       -177.9772         calculate D2E/DX2 analytically  !
 ! D140  D(42,27,28,43)          1.4515         calculate D2E/DX2 analytically  !
 ! D141  D(27,28,29,30)          0.6077         calculate D2E/DX2 analytically  !
 ! D142  D(27,28,29,44)        168.3169         calculate D2E/DX2 analytically  !
 ! D143  D(27,28,29,47)       -110.2267         calculate D2E/DX2 analytically  !
 ! D144  D(43,28,29,30)       -178.826          calculate D2E/DX2 analytically  !
 ! D145  D(43,28,29,44)        -11.1168         calculate D2E/DX2 analytically  !
 ! D146  D(43,28,29,47)         70.3395         calculate D2E/DX2 analytically  !
 ! D147  D(28,29,30,23)         -3.0863         calculate D2E/DX2 analytically  !
 ! D148  D(28,29,30,45)        175.5416         calculate D2E/DX2 analytically  !
 ! D149  D(44,29,30,23)       -170.854          calculate D2E/DX2 analytically  !
 ! D150  D(44,29,30,45)          7.7739         calculate D2E/DX2 analytically  !
 ! D151  D(47,29,30,23)        102.849          calculate D2E/DX2 analytically  !
 ! D152  D(47,29,30,45)        -78.5232         calculate D2E/DX2 analytically  !
 --------------------------------------------------------------------------------
 Trust Radius=3.00D-01 FncErr=1.00D-07 GrdErr=1.00D-06 EigMax=2.50D+02 EigMin=1.00D-04
 Number of steps in this run=    282 maximum allowed number of steps=    282.
 Search for a saddle point of order  1.
 GradGradGradGradGradGradGradGradGradGradGradGradGradGradGradGradGradGrad

                          Input orientation:                          
 ---------------------------------------------------------------------
 Center     Atomic      Atomic             Coordinates (Angstroms)
 Number     Number       Type             X           Y           Z
 ---------------------------------------------------------------------
      1          6           0        0.821138   -1.009324   -0.365997
      2          6           0        0.475016    0.413370    0.008216
      3          6           0        1.716029    1.024126    0.306823
      4          6           0        2.229577   -1.125761   -0.191086
      5          6           0        2.763324    0.094144    0.221004
      6          6           0        3.052657   -2.195899   -0.527507
      7          6           0        4.466113   -1.962361   -0.346180
      8          6           0        4.973079   -0.740394    0.062037
      9          6           0        4.107244    0.378586    0.333475
     10          6           0        1.996389    2.379443    0.501906
     11          6           0        3.395093    2.709103    0.696832
     12          6           0        4.398268    1.766497    0.622793
     13          6           0        0.207145   -2.113156   -0.931167
     14          6           0        0.999468   -3.252697   -1.257646
     15          6           0        2.372241   -3.320075   -1.068466
     16          6           0       -0.656535    1.259434   -0.002502
     17          6           0       -0.378678    2.694419    0.043648
     18          6           0        0.893486    3.225638    0.331231
     19          6           0       -2.047472    0.843144   -0.125541
     20          6           0       -2.976650    1.769605   -0.650244
     21          6           0       -2.626708    3.154605   -0.766116
     22          6           0       -1.420779    3.603894   -0.339414
     23          6           0       -2.561083   -0.430506    0.343868
     24          6           0       -3.894985   -0.819222   -0.008933
     25          6           0       -4.716018    0.075660   -0.747421
     26          6           0       -4.290200    1.345873   -1.004248
     27          6           0       -4.425112   -2.045529    0.473803
     28          6           0       -3.713589   -2.838655    1.334130
     29          6           0       -2.411670   -2.439957    1.739144
     30          6           0       -1.872770   -1.246201    1.273040
     31          1           0       -0.852520   -2.141670   -1.146893
     32          1           0        2.913767   -4.214926   -1.356785
     33          1           0        5.160933   -2.767098   -0.564494
     34          1           0        6.048321   -0.622418    0.149531
     35          1           0        5.427908    2.083948    0.752290
     36          1           0        3.662685    3.745032    0.878420
     37          1           0        1.008871    4.304922    0.347082
     38          1           0       -1.196806    4.665193   -0.341150
     39          1           0       -3.375877    3.846305   -1.135775
     40          1           0       -4.952539    2.063068   -1.477236
     41          1           0       -5.713086   -0.241982   -1.033248
     42          1           0       -5.433166   -2.320889    0.181653
     43          1           0       -4.137301   -3.760521    1.714894
     44          1           0       -1.923408   -2.955933    2.556802
     45          1           0       -0.912455   -0.927091    1.650301
     46          1           0        0.491824   -4.109032   -1.687251
     47          1           0       -1.461250   -3.833731    0.754950
 ---------------------------------------------------------------------
                    Distance matrix (angstroms):
                    1          2          3          4          5
     1  C    0.000000
     2  C    1.511256   0.000000
     3  C    2.321300   1.415027   0.000000
     4  C    1.424027   2.342462   2.265758   0.000000
     5  C    2.309610   2.320245   1.403231   1.393870   0.000000
     6  C    2.532533   3.706685   3.584863   1.391343   2.426578
     7  C    3.767561   4.658170   4.111992   2.392916   2.729542
     8  C    4.182601   4.643990   3.712388   2.781975   2.367433
     9  C    3.635113   3.646928   2.476962   2.462490   1.378288
    10  C    3.690286   2.534512   1.397692   3.580652   2.426868
    11  C    4.645595   3.777755   2.410500   4.105242   2.731951
    12  C    4.634517   4.195303   2.800957   3.705506   2.373024
    13  C    1.383781   2.708787   3.694846   2.369156   3.568434
    14  C    2.420653   3.913758   4.610015   2.678540   4.061889
    15  C    2.870358   4.324040   4.603707   2.367522   3.670500
    16  C    2.731833   1.412921   2.404186   3.748915   3.619847
    17  C    3.914726   2.435823   2.692014   4.631616   4.082286
    18  C    4.292582   2.861522   2.350282   4.581771   3.648931
    19  C    3.423212   2.562331   3.792576   4.708931   4.881071
    20  C    4.714492   3.766556   4.846953   5.974845   6.042644
    21  C    5.420889   4.211253   4.954746   6.498900   6.276406
    22  C    5.129199   3.727510   4.112468   5.976348   5.489912
    23  C    3.504049   3.169020   4.517855   4.870316   5.351604
    24  C    4.733440   4.540538   5.914483   6.134933   6.724596
    25  C    5.655331   5.256602   6.586520   7.070658   7.541800
    26  C    5.663929   4.960033   6.156071   7.019808   7.267755
    27  C    5.413144   5.502200   6.867625   6.750773   7.504380
    28  C    5.176933   5.466089   6.742195   6.370362   7.196580
    29  C    4.114532   4.412544   5.575779   5.195582   5.958773
    30  C    3.162229   3.141028   4.355162   4.357456   4.939299
    31  H    2.166365   3.102396   4.328163   3.383040   4.465908
    32  H    3.954319   5.406649   5.625818   3.371930   4.591311
    33  H    4.686469   5.692204   5.196146   3.380276   3.814740
    34  H    5.266774   5.670499   4.637305   3.866805   3.363001
    35  H    5.660497   5.279736   3.885834   4.628338   3.367728
    36  H    5.676871   4.692383   3.394042   5.188667   3.817071
    37  H    5.365159   3.942589   3.356384   5.592143   4.563404
    38  H    6.022695   4.582035   4.707637   6.730362   6.073972
    39  H    6.464103   5.284235   5.997774   7.552151   7.321841
    40  H    6.633988   5.863994   6.980836   7.962763   8.142188
    41  H    6.612875   6.309258   7.654448   8.035932   8.575293
    42  H    6.413770   6.512516   7.894035   7.764335   8.544962
    43  H    6.040307   6.450394   7.690057   7.149256   8.044176
    44  H    4.456969   4.857976   5.843695   5.305441   6.060064
    45  H    2.660369   2.533447   3.538518   3.647265   4.073961
    46  H    3.385609   4.829804   5.641305   3.762739   5.144690
    47  H    3.800407   4.727008   5.821915   4.674429   5.793127
                    6          7          8          9         10
     6  C    0.000000
     7  C    1.444049   0.000000
     8  C    2.480741   1.384507   0.000000
     9  C    2.912287   2.463889   1.440647   0.000000
    10  C    4.807197   5.066562   4.334461   2.913333   0.000000
    11  C    5.067081   4.904848   3.846041   2.463838   1.450188
    12  C    4.339866   3.853296   2.632367   1.447307   2.481802
    13  C    2.875192   4.301599   5.058167   4.797798   5.043663
    14  C    2.421882   3.809641   4.882910   5.037475   5.984219
    15  C    1.421047   2.597958   3.833686   4.319232   5.923836
    16  C    5.096377   6.061320   5.974616   4.856168   2.923500
    17  C    6.001291   6.731238   6.359212   5.056736   2.439294
    18  C    5.898518   6.335447   5.696047   4.293478   1.400561
    19  C    5.950519   7.095515   7.199369   6.189268   4.371123
    20  C    7.217536   8.331551   8.366937   7.285890   5.141057
    21  C    7.806409   8.756015   8.579838   7.366240   4.856108
    22  C    7.326978   8.101774   7.740505   6.435404   3.726142
    23  C    5.948948   7.225249   7.545797   6.717241   5.356430
    24  C    7.101682   8.445618   8.868698   8.098621   6.723147
    25  C    8.096953   9.414141   9.757037   8.894383   7.205876
    26  C    8.166332   9.383522   9.554989   8.558166   6.546600
    27  C    7.546010   8.929343   9.497311   8.871140   7.798515
    28  C    7.047050   8.396360   9.026579   8.515714   7.779781
    29  C    5.920823   7.202817   7.761167   7.239912   6.647432
    30  C    5.329515   6.581504   6.970511   6.267638   5.358202
    31  H    3.954363   5.381556   6.112503   5.756947   5.592431
    32  H    2.187113   2.916359   4.280910   5.038027   6.912454
    33  H    2.184597   1.085374   2.129638   3.436850   6.135017
    34  H    3.450830   2.131797   1.085228   2.191717   5.055046
    35  H    5.059327   4.301663   2.942826   2.197230   3.453307
    36  H    6.135424   5.892324   4.743697   3.439121   2.187039
    37  H    6.870418   7.191104   6.422726   5.001621   2.169477
    38  H    8.072623   8.717405   8.212820   6.852960   4.016453
    39  H    8.843318   9.790856   9.600918   8.377402   5.804733
    40  H    9.117234  10.305065  10.428166   9.391263   7.232199
    41  H    8.995100  10.346394  10.753706   9.934381   8.286409
    42  H    8.516321   9.919822  10.526263   9.916130   8.797384
    43  H    7.692327   9.027743   9.739206   9.328078   8.763142
    44  H    5.903544   7.088051   7.661201   7.240923   6.932074
    45  H    4.698386   5.829813   6.098930   5.351280   4.551192
    46  H    3.400434   4.711862   5.872766   6.106825   7.011165
    47  H    4.970166   6.312539   7.172827   6.994954   7.114972
                   11         12         13         14         15
    11  C    0.000000
    12  C    1.378531   0.000000
    13  C    6.005629   5.918785   0.000000
    14  C    6.715807   6.346668   1.425804   0.000000
    15  C    6.365021   5.730476   2.482568   1.387384   0.000000
    16  C    4.359621   5.118510   3.603155   4.967601   5.593002
    17  C    3.829910   4.900578   4.940266   6.241862   6.706601
    18  C    2.580409   3.807571   5.528782   6.671176   6.855088
    19  C    5.812023   6.554399   3.804214   5.228902   6.144539
    20  C    6.579998   7.483986   5.029046   6.434436   7.395295
    21  C    6.212952   7.294258   5.983918   7.378636   8.185499
    22  C    5.006703   6.177635   5.973690   7.328955   7.928421
    23  C    6.742237   7.303231   3.481395   4.817378   5.889141
    24  C    8.129724   8.709941   4.399119   5.606849   6.830446
    25  C    8.649336   9.370519   5.390938   6.633632   7.866225
    26  C    7.988479   8.849501   5.674181   7.013676   8.134084
    27  C    9.154883   9.612792   4.841107   5.820759   7.085695
    28  C    9.039753   9.354980   4.585856   5.394594   6.560607
    29  C    7.830564   8.081816   3.754404   4.612717   5.616323
    30  C    6.612626   6.987495   3.152172   4.322054   5.272923
    31  H    6.706082   6.780585   1.081777   2.162523   3.434221
    32  H    7.238176   6.473013   3.453171   2.144820   1.084959
    33  H    5.890493   4.748136   5.010200   4.246652   2.887313
    34  H    4.293971   2.941695   6.124504   5.864250   4.719580
    35  H    2.127494   1.085220   6.906959   7.220160   6.469600
    36  H    1.085232   2.126271   7.038020   7.786123   7.441193
    37  H    2.891888   4.243540   6.593058   7.726115   7.874207
    38  H    5.097963   6.374675   6.947317   8.267803   8.776764
    39  H    7.106174   8.237445   6.956658   8.339924   9.187078
    40  H    8.650254   9.588309   6.660434   7.983230   9.099325
    41  H    9.729389  10.441070   6.209738   7.360241   8.651498
    42  H   10.173711  10.656379   5.752793   6.657224   7.967782
    43  H    9.981455  10.227246   5.346930   5.956532   7.093322
    44  H    7.989905   8.124366   4.173183   4.814695   5.632741
    45  H    5.717165   6.042762   3.053560   4.185696   4.889509
    46  H    7.784587   7.424180   2.153190   1.084238   2.131036
    47  H    8.148382   8.106415   2.930343   3.231606   4.276019
                   16         17         18         19         20
    16  C    0.000000
    17  C    1.462367   0.000000
    18  C    2.525847   1.408296   0.000000
    19  C    1.457100   2.498143   3.812368   0.000000
    20  C    2.462271   2.843629   4.249856   1.413158   0.000000
    21  C    2.838373   2.433337   3.687951   2.467530   1.433217
    22  C    2.488789   1.435220   2.438988   2.839054   2.425276
    23  C    2.569664   3.823373   5.030069   1.451319   2.449784
    24  C    3.848170   4.971202   6.277425   2.488044   2.820752
    25  C    4.293673   5.127983   6.523219   2.845506   2.429875
    26  C    3.770211   4.268099   5.673414   2.460628   1.424879
    27  C    5.035059   6.247061   7.489527   3.789039   4.232821
    28  C    5.284553   6.588011   7.681575   4.296770   5.071181
    29  C    4.449643   5.776641   6.708595   3.793210   4.873273
    30  C    3.063404   4.390012   5.341958   2.520300   3.743349
    31  H    3.593821   5.002966   5.834499   3.373453   4.478466
    32  H    6.674560   7.780775   7.892587   7.191240   8.426792
    33  H    7.097304   7.802903   7.411229   8.073886   9.317150
    34  H    6.965599   7.233183   6.435284   8.231974   9.370780
    35  H    6.186274   5.881436   4.694862   7.628335   8.526577
    36  H    5.060621   4.258315   2.870130   6.483424   7.093652
    37  H    3.488665   2.147344   1.085550   4.642037   4.827719
    38  H    3.464934   2.168260   2.625592   3.921502   3.412889
    39  H    3.920591   3.420684   4.556840   3.435725   2.169748
    40  H    4.612626   4.861265   6.228815   3.428514   2.161984
    41  H    5.374513   6.183693   7.585050   3.929142   3.417785
    42  H    5.972339   7.121812   8.415038   4.644179   4.843415
    43  H    6.345481   7.654186   8.719504   5.380364   6.125625
    44  H    5.091593   6.374058   7.148418   4.652241   5.807338
    45  H    2.752843   3.997698   4.716622   2.752383   4.101899
    46  H    5.742607   7.073947   7.617938   5.780226   6.903917
    47  H    5.211682   6.655423   7.453792   4.795006   5.972301
                   21         22         23         24         25
    21  C    0.000000
    22  C    1.355802   0.000000
    23  C    3.753584   4.247770   0.000000
    24  C    4.239476   5.078865   1.433479   0.000000
    25  C    3.720950   4.844946   2.467967   1.421363   0.000000
    26  C    2.468891   3.711366   2.821841   2.415467   1.364083
    27  C    5.640306   6.450063   2.469775   1.420527   2.464844
    28  C    6.442943   7.040182   2.847467   2.432043   3.718999
    29  C    6.133652   6.467643   2.450921   2.807629   4.221535
    30  C    4.908531   5.131055   1.415095   2.432102   3.730099
    31  H    5.598505   5.829790   2.840711   3.507195   4.472443
    32  H    9.238817   8.997626   6.869355   7.727006   8.774627
    33  H    9.785426   9.162922   8.118763   9.279683  10.279538
    34  H    9.505811   8.595827   8.613735   9.946516  10.824178
    35  H    8.266118   7.099758   8.385301   9.794090  10.448999
    36  H    6.527600   5.229211   7.513731   8.873454   9.290334
    37  H    3.972389   2.620289   5.930334   7.101507   7.201316
    38  H    2.122991   1.084676   5.319460   6.121221   5.797734
    39  H    1.084597   2.124938   4.598298   4.827669   4.020517
    40  H    2.665827   4.017725   3.905559   3.403223   2.130343
    41  H    4.597161   5.804831   3.444868   2.165160   1.084776
    42  H    6.225392   7.174525   3.442197   2.158084   2.668506
    43  H    7.500418   8.113833   3.931053   3.417826   4.595018
    44  H    6.991072   7.188326   3.417819   3.877582   5.282719
    45  H    5.043608   4.974654   2.161328   3.414700   4.606699
    46  H    7.958276   8.060021   5.193962   5.734431   6.746595
    47  H    7.246294   7.517815   3.600078   3.948905   5.304147
                   26         27         28         29         30
    26  C    0.000000
    27  C    3.701951   0.000000
    28  C    4.828122   1.369480   0.000000
    29  C    5.038609   2.410521   1.420560   0.000000
    30  C    4.212939   2.791443   2.434801   1.390223   0.000000
    31  H    4.899076   3.924196   3.850582   3.293802   2.774680
    32  H    9.107355   7.868703   7.284023   6.410583   6.216128
    33  H   10.316677   9.669073   9.075629   7.922000   7.427155
    34  H   10.587275  10.574649  10.080172   8.797827   8.024653
    35  H    9.903121  10.687008  10.398919   9.104866   8.041205
    36  H    8.517557   9.955238   9.897577   8.711643   7.463873
    37  H    6.217895   8.358975   8.620127   7.689690   6.322675
    38  H    4.585485   7.491321   8.090024   7.502445   6.164991
    39  H    2.665604   6.197204   7.134646   6.979394   5.830552
    40  H    1.084795   4.578788   5.784952   6.089199   5.291527
    41  H    2.132306   2.680086   4.042917   4.839070   4.590800
    42  H    4.019686   1.085057   2.133830   3.401381   3.875887
    43  H    5.787259   2.136432   1.083674   2.173081   3.412498
    44  H    6.065337   3.380273   2.171043   1.083142   2.138643
    45  H    4.860263   3.869601   3.405935   2.131737   1.079982
    46  H    7.286305   5.753647   5.331801   4.791270   4.748729
    47  H    6.158412   3.472922   2.529557   1.953085   2.670782
                   31         32         33         34         35
    31  H    0.000000
    32  H    4.304342   0.000000
    33  H    6.073876   2.788133   0.000000
    34  H    7.184041   5.000053   2.428362   0.000000
    35  H    7.804263   7.102458   5.033671   2.841241   0.000000
    36  H    7.690399   8.301684   6.836270   5.029628   2.427163
    37  H    6.874248   8.894920   8.251306   7.050799   4.962339
    38  H    6.863027   9.837929   9.783132   8.982843   7.193419
    39  H    6.497946  10.227019  10.813907  10.508901   9.174820
    40  H    5.882100  10.065112  11.244817  11.440154  10.617198
    41  H    5.219850   9.503239  11.173192  11.826850  11.520410
    42  H    4.772784   8.696290  10.629712  11.606480  11.734187
    43  H    4.647611   7.704496   9.624950  10.772416  11.250673
    44  H    3.940455   6.348188   7.743774   8.648047   9.093872
    45  H    3.050096   5.873023   6.721383   7.127239   7.076227
    46  H    2.443309   2.446677   4.986176   6.812115   8.286693
    47  H    2.617371   4.872936   6.836077   8.189794   9.081819
                   36         37         38         39         40
    36  H    0.000000
    37  H    2.763788   0.000000
    38  H    5.093987   2.338476   0.000000
    39  H    7.321789   4.651366   2.459747   0.000000
    40  H    9.088465   6.625138   4.708214   2.404661   0.000000
    41  H   10.366091   8.231911   6.704935   4.710324   2.467552
    42  H   10.955153   9.242758   8.186905   6.633426   4.711899
    43  H   10.856924   9.664645   9.157865   8.159037   6.690926
    44  H    8.883937   8.136408   8.185819   7.874975   7.116141
    45  H    6.584561   5.723970   5.943095   6.051114   5.919866
    46  H    8.850048   8.671820   9.036066   8.862879   8.232862
    47  H    9.149186   8.515018   8.573393   8.137788   7.207218
                   41         42         43         44         45
    41  H    0.000000
    42  H    2.424086   0.000000
    43  H    4.734501   2.470351   0.000000
    44  H    5.883506   4.285209   2.501498   0.000000
    45  H    5.542280   4.953426   4.293266   2.441305   0.000000
    46  H    7.340484   6.464964   5.755419   5.017466   4.820374
    47  H    5.846060   4.288762   2.843959   2.056888   3.090532
                   46         47
    46  H    0.000000
    47  H    3.139209   0.000000
 Stoichiometry    C30H17(2)
 Framework group  C1[X(C30H17)]
 Deg. of freedom   135
 Full point group                 C1      NOp   1
 Largest Abelian subgroup         C1      NOp   1
 Largest concise Abelian subgroup C1      NOp   1
                         Standard orientation:                         
 ---------------------------------------------------------------------
 Center     Atomic      Atomic             Coordinates (Angstroms)
 Number     Number       Type             X           Y           Z
 ---------------------------------------------------------------------
      1          6           0        0.821138   -1.009324   -0.365997
      2          6           0        0.475016    0.413370    0.008216
      3          6           0        1.716029    1.024126    0.306823
      4          6           0        2.229577   -1.125761   -0.191086
      5          6           0        2.763324    0.094144    0.221004
      6          6           0        3.052657   -2.195899   -0.527507
      7          6           0        4.466113   -1.962361   -0.346180
      8          6           0        4.973079   -0.740394    0.062037
      9          6           0        4.107244    0.378586    0.333475
     10          6           0        1.996389    2.379443    0.501906
     11          6           0        3.395093    2.709103    0.696832
     12          6           0        4.398268    1.766497    0.622793
     13          6           0        0.207145   -2.113156   -0.931167
     14          6           0        0.999468   -3.252697   -1.257646
     15          6           0        2.372241   -3.320075   -1.068466
     16          6           0       -0.656535    1.259434   -0.002502
     17          6           0       -0.378678    2.694419    0.043648
     18          6           0        0.893486    3.225638    0.331231
     19          6           0       -2.047472    0.843144   -0.125541
     20          6           0       -2.976650    1.769605   -0.650244
     21          6           0       -2.626708    3.154605   -0.766116
     22          6           0       -1.420779    3.603894   -0.339414
     23          6           0       -2.561083   -0.430506    0.343868
     24          6           0       -3.894985   -0.819222   -0.008933
     25          6           0       -4.716018    0.075660   -0.747421
     26          6           0       -4.290200    1.345873   -1.004248
     27          6           0       -4.425112   -2.045529    0.473803
     28          6           0       -3.713589   -2.838655    1.334130
     29          6           0       -2.411670   -2.439957    1.739144
     30          6           0       -1.872770   -1.246201    1.273040
     31          1           0       -0.852520   -2.141670   -1.146893
     32          1           0        2.913767   -4.214926   -1.356785
     33          1           0        5.160933   -2.767098   -0.564494
     34          1           0        6.048321   -0.622418    0.149531
     35          1           0        5.427908    2.083948    0.752290
     36          1           0        3.662685    3.745032    0.878420
     37          1           0        1.008871    4.304922    0.347082
     38          1           0       -1.196806    4.665193   -0.341150
     39          1           0       -3.375877    3.846305   -1.135775
     40          1           0       -4.952539    2.063068   -1.477236
     41          1           0       -5.713086   -0.241982   -1.033248
     42          1           0       -5.433166   -2.320889    0.181653
     43          1           0       -4.137301   -3.760521    1.714894
     44          1           0       -1.923408   -2.955933    2.556802
     45          1           0       -0.912455   -0.927091    1.650301
     46          1           0        0.491824   -4.109032   -1.687251
     47          1           0       -1.461250   -3.833731    0.754950
 ---------------------------------------------------------------------
 Rotational constants (GHZ):           0.2718143           0.1429287           0.1014580
 Standard basis: 6-311+G(d,p) (5D, 7F)
 There are   792 symmetry adapted cartesian basis functions of A   symmetry.
 There are   762 symmetry adapted basis functions of A   symmetry.
   762 basis functions,  1216 primitive gaussians,   792 cartesian basis functions
    99 alpha electrons       98 beta electrons
       nuclear repulsion energy      2613.2651639635 Hartrees.
 NAtoms=   47 NActive=   47 NUniq=   47 SFac= 1.00D+00 NAtFMM=   60 NAOKFM=F Big=F
 Integral buffers will be    131072 words long.
 Raffenetti 2 integral format.
 Two-electron integral symmetry is turned on.
 One-electron integrals computed using PRISM.
 NBasis=   762 RedAO= T EigKep=  1.55D-06  NBF=   762
 NBsUse=   741 1.00D-06 EigRej=  9.58D-07 NBFU=   741
 ExpMin= 4.38D-02 ExpMax= 4.56D+03 ExpMxC= 6.82D+02 IAcc=2 IRadAn=         4 AccDes= 0.00D+00
 Harris functional with IExCor=  402 and IRadAn=       4 diagonalized for initial guess.
 HarFok:  IExCor=  402 AccDes= 0.00D+00 IRadAn=         4 IDoV= 1 UseB2=F ITyADJ=14
 ICtDFT=  3500011 ScaDFX=  1.000000  1.000000  1.000000  1.000000
 FoFCou: FMM=F IPFlag=           0 FMFlag=      100000 FMFlg1=           0
         NFxFlg=           0 DoJE=T BraDBF=F KetDBF=T FulRan=T
         wScrn=  0.000000 ICntrl=       500 IOpCl=  0 I1Cent=   200000004 NGrid=           0
         NMat0=    1 NMatS0=      1 NMatT0=    0 NMatD0=    1 NMtDS0=    0 NMtDT0=    0
 Petite list used in FoFCou.
 Initial guess <Sx>= 0.0000 <Sy>= 0.0000 <Sz>= 0.5000 <S**2>= 0.7500 S= 0.5000
 Requested convergence on RMS density matrix=1.00D-08 within 128 cycles.
 Requested convergence on MAX density matrix=1.00D-06.
 Requested convergence on             energy=1.00D-06.
 No special actions if energy rises.
 Restarting incremental Fock formation.
 SCF Done:  E(UB3LYP) =  -1153.63082682     A.U. after   25 cycles
            NFock= 25  Conv=0.60D-08     -V/T= 2.0045
 <Sx>= 0.0000 <Sy>= 0.0000 <Sz>= 0.5000 <S**2>= 0.7689 S= 0.5094
 <L.S>=  0.00000000000    
 Annihilation of the first spin contaminant:
 S**2 before annihilation     0.7689,   after     0.7502
 DoSCS=F DFT=T ScalE2(SS,OS)=  1.000000  1.000000
 Range of M.O.s used for correlation:     1   741
 NBasis=   762 NAE=    99 NBE=    98 NFC=     0 NFV=     0
 NROrb=    741 NOA=    99 NOB=    98 NVA=   642 NVB=   643

 **** Warning!!: The largest alpha MO coefficient is  0.11264468D+03


 **** Warning!!: The largest beta MO coefficient is  0.11018000D+03

 Symmetrizing basis deriv contribution to polar:
 IMax=3 JMax=2 DiffMx= 0.00D+00
 G2DrvN: will do    48 centers at a time, making    1 passes.
 Calling FoFCou, ICntrl=  3107 FMM=F I1Cent=   0 AccDes= 0.00D+00.
 End of G2Drv F.D. properties file   721 does not exist.
 End of G2Drv F.D. properties file   722 does not exist.
 End of G2Drv F.D. properties file   788 does not exist.
          IDoAtm=11111111111111111111111111111111111111111111111
          Differentiating once with respect to nuclear coordinates.
 CalDSu exits because no D1Ps are significant.
          There are   144 degrees of freedom in the 1st order CPHF.  IDoFFX=6 NUNeed=     0.
    138 vectors produced by pass  0 Test12= 1.27D-13 1.00D-09 XBig12= 5.37D-01 1.38D-01.
 AX will form   138 AO Fock derivatives at one time.
    138 vectors produced by pass  1 Test12= 1.27D-13 1.00D-09 XBig12= 1.28D-01 4.69D-02.
    138 vectors produced by pass  2 Test12= 1.27D-13 1.00D-09 XBig12= 1.80D-03 7.30D-03.
    138 vectors produced by pass  3 Test12= 1.27D-13 1.00D-09 XBig12= 1.56D-05 8.48D-04.
    138 vectors produced by pass  4 Test12= 1.27D-13 1.00D-09 XBig12= 1.34D-07 4.04D-05.
    138 vectors produced by pass  5 Test12= 1.27D-13 1.00D-09 XBig12= 7.33D-10 1.66D-06.
    136 vectors produced by pass  6 Test12= 1.27D-13 1.00D-09 XBig12= 4.69D-11 4.79D-07.
    105 vectors produced by pass  7 Test12= 1.27D-13 1.00D-09 XBig12= 6.72D-12 1.00D-07.
     79 vectors produced by pass  8 Test12= 1.27D-13 1.00D-09 XBig12= 3.53D-13 2.69D-08.
      7 vectors produced by pass  9 Test12= 1.27D-13 1.00D-09 XBig12= 2.32D-15 2.35D-09.
      2 vectors produced by pass 10 Test12= 1.27D-13 1.00D-09 XBig12= 4.63D-16 1.19D-09.
      1 vectors produced by pass 11 Test12= 1.27D-13 1.00D-09 XBig12= 5.46D-16 1.36D-09.
 InvSVY:  IOpt=1 It=  1 EMax= 8.33D-16
 Solved reduced A of dimension  1158 with   144 vectors.
 End of Minotr F.D. properties file   721 does not exist.
 End of Minotr F.D. properties file   722 does not exist.
 End of Minotr F.D. properties file   788 does not exist.

 **********************************************************************

            Population analysis using the SCF Density.

 **********************************************************************

 Orbital symmetries:
 Alpha Orbitals:
       Occupied  (A) (A) (A) (A) (A) (A) (A) (A) (A) (A) (A) (A)
                 (A) (A) (A) (A) (A) (A) (A) (A) (A) (A) (A) (A)
                 (A) (A) (A) (A) (A) (A) (A) (A) (A) (A) (A) (A)
                 (A) (A) (A) (A) (A) (A) (A) (A) (A) (A) (A) (A)
                 (A) (A) (A) (A) (A) (A) (A) (A) (A) (A) (A) (A)
                 (A) (A) (A) (A) (A) (A) (A) (A) (A) (A) (A) (A)
                 (A) (A) (A) (A) (A) (A) (A) (A) (A) (A) (A) (A)
                 (A) (A) (A) (A) (A) (A) (A) (A) (A) (A) (A) (A)
                 (A) (A) (A)
       Virtual   (A) (A) (A) (A) (A) (A) (A) (A) (A) (A) (A) (A)
                 (A) (A) (A) (A) (A) (A) (A) (A) (A) (A) (A) (A)
                 (A) (A) (A) (A) (A) (A) (A) (A) (A) (A) (A) (A)
                 (A) (A) (A) (A) (A) (A) (A) (A) (A) (A) (A) (A)
                 (A) (A) (A) (A) (A) (A) (A) (A) (A) (A) (A) (A)
                 (A) (A) (A) (A) (A) (A) (A) (A) (A) (A) (A) (A)
                 (A) (A) (A) (A) (A) (A) (A) (A) (A) (A) (A) (A)
                 (A) (A) (A) (A) (A) (A) (A) (A) (A) (A) (A) (A)
                 (A) (A) (A) (A) (A) (A) (A) (A) (A) (A) (A) (A)
                 (A) (A) (A) (A) (A) (A) (A) (A) (A) (A) (A) (A)
                 (A) (A) (A) (A) (A) (A) (A) (A) (A) (A) (A) (A)
                 (A) (A) (A) (A) (A) (A) (A) (A) (A) (A) (A) (A)
                 (A) (A) (A) (A) (A) (A) (A) (A) (A) (A) (A) (A)
                 (A) (A) (A) (A) (A) (A) (A) (A) (A) (A) (A) (A)
                 (A) (A) (A) (A) (A) (A) (A) (A) (A) (A) (A) (A)
                 (A) (A) (A) (A) (A) (A) (A) (A) (A) (A) (A) (A)
                 (A) (A) (A) (A) (A) (A) (A) (A) (A) (A) (A) (A)
                 (A) (A) (A) (A) (A) (A) (A) (A) (A) (A) (A) (A)
                 (A) (A) (A) (A) (A) (A) (A) (A) (A) (A) (A) (A)
                 (A) (A) (A) (A) (A) (A) (A) (A) (A) (A) (A) (A)
                 (A) (A) (A) (A) (A) (A) (A) (A) (A) (A) (A) (A)
                 (A) (A) (A) (A) (A) (A) (A) (A) (A) (A) (A) (A)
                 (A) (A) (A) (A) (A) (A) (A) (A) (A) (A) (A) (A)
                 (A) (A) (A) (A) (A) (A) (A) (A) (A) (A) (A) (A)
                 (A) (A) (A) (A) (A) (A) (A) (A) (A) (A) (A) (A)
                 (A) (A) (A) (A) (A) (A) (A) (A) (A) (A) (A) (A)
                 (A) (A) (A) (A) (A) (A) (A) (A) (A) (A) (A) (A)
                 (A) (A) (A) (A) (A) (A) (A) (A) (A) (A) (A) (A)
                 (A) (A) (A) (A) (A) (A) (A) (A) (A) (A) (A) (A)
                 (A) (A) (A) (A) (A) (A) (A) (A) (A) (A) (A) (A)
                 (A) (A) (A) (A) (A) (A) (A) (A) (A) (A) (A) (A)
                 (A) (A) (A) (A) (A) (A) (A) (A) (A) (A) (A) (A)
                 (A) (A) (A) (A) (A) (A) (A) (A) (A) (A) (A) (A)
                 (A) (A) (A) (A) (A) (A) (A) (A) (A) (A) (A) (A)
                 (A) (A) (A) (A) (A) (A) (A) (A) (A) (A) (A) (A)
                 (A) (A) (A) (A) (A) (A) (A) (A) (A) (A) (A) (A)
                 (A) (A) (A) (A) (A) (A) (A) (A) (A) (A) (A) (A)
                 (A) (A) (A) (A) (A) (A) (A) (A) (A) (A) (A) (A)
                 (A) (A) (A) (A) (A) (A) (A) (A) (A) (A) (A) (A)
                 (A) (A) (A) (A) (A) (A) (A) (A) (A) (A) (A) (A)
                 (A) (A) (A) (A) (A) (A) (A) (A) (A) (A) (A) (A)
                 (A) (A) (A) (A) (A) (A) (A) (A) (A) (A) (A) (A)
                 (A) (A) (A) (A) (A) (A) (A) (A) (A) (A) (A) (A)
                 (A) (A) (A) (A) (A) (A) (A) (A) (A) (A) (A) (A)
                 (A) (A) (A) (A) (A) (A) (A) (A) (A) (A) (A) (A)
                 (A) (A) (A) (A) (A) (A) (A) (A) (A) (A) (A) (A)
                 (A) (A) (A) (A) (A) (A) (A) (A) (A) (A) (A) (A)
                 (A) (A) (A) (A) (A) (A) (A) (A) (A) (A) (A) (A)
                 (A) (A) (A) (A) (A) (A) (A) (A) (A) (A) (A) (A)
                 (A) (A) (A) (A) (A) (A) (A) (A) (A) (A) (A) (A)
                 (A) (A) (A) (A) (A) (A) (A) (A) (A) (A) (A) (A)
                 (A) (A) (A) (A) (A) (A) (A) (A) (A) (A) (A) (A)
                 (A) (A) (A) (A) (A) (A) (A) (A) (A) (A) (A) (A)
                 (A) (A) (A) (A) (A) (A)
 Beta  Orbitals:
       Occupied  (A) (A) (A) (A) (A) (A) (A) (A) (A) (A) (A) (A)
                 (A) (A) (A) (A) (A) (A) (A) (A) (A) (A) (A) (A)
                 (A) (A) (A) (A) (A) (A) (A) (A) (A) (A) (A) (A)
                 (A) (A) (A) (A) (A) (A) (A) (A) (A) (A) (A) (A)
                 (A) (A) (A) (A) (A) (A) (A) (A) (A) (A) (A) (A)
                 (A) (A) (A) (A) (A) (A) (A) (A) (A) (A) (A) (A)
                 (A) (A) (A) (A) (A) (A) (A) (A) (A) (A) (A) (A)
                 (A) (A) (A) (A) (A) (A) (A) (A) (A) (A) (A) (A)
                 (A) (A)
       Virtual   (A) (A) (A) (A) (A) (A) (A) (A) (A) (A) (A) (A)
                 (A) (A) (A) (A) (A) (A) (A) (A) (A) (A) (A) (A)
                 (A) (A) (A) (A) (A) (A) (A) (A) (A) (A) (A) (A)
                 (A) (A) (A) (A) (A) (A) (A) (A) (A) (A) (A) (A)
                 (A) (A) (A) (A) (A) (A) (A) (A) (A) (A) (A) (A)
                 (A) (A) (A) (A) (A) (A) (A) (A) (A) (A) (A) (A)
                 (A) (A) (A) (A) (A) (A) (A) (A) (A) (A) (A) (A)
                 (A) (A) (A) (A) (A) (A) (A) (A) (A) (A) (A) (A)
                 (A) (A) (A) (A) (A) (A) (A) (A) (A) (A) (A) (A)
                 (A) (A) (A) (A) (A) (A) (A) (A) (A) (A) (A) (A)
                 (A) (A) (A) (A) (A) (A) (A) (A) (A) (A) (A) (A)
                 (A) (A) (A) (A) (A) (A) (A) (A) (A) (A) (A) (A)
                 (A) (A) (A) (A) (A) (A) (A) (A) (A) (A) (A) (A)
                 (A) (A) (A) (A) (A) (A) (A) (A) (A) (A) (A) (A)
                 (A) (A) (A) (A) (A) (A) (A) (A) (A) (A) (A) (A)
                 (A) (A) (A) (A) (A) (A) (A) (A) (A) (A) (A) (A)
                 (A) (A) (A) (A) (A) (A) (A) (A) (A) (A) (A) (A)
                 (A) (A) (A) (A) (A) (A) (A) (A) (A) (A) (A) (A)
                 (A) (A) (A) (A) (A) (A) (A) (A) (A) (A) (A) (A)
                 (A) (A) (A) (A) (A) (A) (A) (A) (A) (A) (A) (A)
                 (A) (A) (A) (A) (A) (A) (A) (A) (A) (A) (A) (A)
                 (A) (A) (A) (A) (A) (A) (A) (A) (A) (A) (A) (A)
                 (A) (A) (A) (A) (A) (A) (A) (A) (A) (A) (A) (A)
                 (A) (A) (A) (A) (A) (A) (A) (A) (A) (A) (A) (A)
                 (A) (A) (A) (A) (A) (A) (A) (A) (A) (A) (A) (A)
                 (A) (A) (A) (A) (A) (A) (A) (A) (A) (A) (A) (A)
                 (A) (A) (A) (A) (A) (A) (A) (A) (A) (A) (A) (A)
                 (A) (A) (A) (A) (A) (A) (A) (A) (A) (A) (A) (A)
                 (A) (A) (A) (A) (A) (A) (A) (A) (A) (A) (A) (A)
                 (A) (A) (A) (A) (A) (A) (A) (A) (A) (A) (A) (A)
                 (A) (A) (A) (A) (A) (A) (A) (A) (A) (A) (A) (A)
                 (A) (A) (A) (A) (A) (A) (A) (A) (A) (A) (A) (A)
                 (A) (A) (A) (A) (A) (A) (A) (A) (A) (A) (A) (A)
                 (A) (A) (A) (A) (A) (A) (A) (A) (A) (A) (A) (A)
                 (A) (A) (A) (A) (A) (A) (A) (A) (A) (A) (A) (A)
                 (A) (A) (A) (A) (A) (A) (A) (A) (A) (A) (A) (A)
                 (A) (A) (A) (A) (A) (A) (A) (A) (A) (A) (A) (A)
                 (A) (A) (A) (A) (A) (A) (A) (A) (A) (A) (A) (A)
                 (A) (A) (A) (A) (A) (A) (A) (A) (A) (A) (A) (A)
                 (A) (A) (A) (A) (A) (A) (A) (A) (A) (A) (A) (A)
                 (A) (A) (A) (A) (A) (A) (A) (A) (A) (A) (A) (A)
                 (A) (A) (A) (A) (A) (A) (A) (A) (A) (A) (A) (A)
                 (A) (A) (A) (A) (A) (A) (A) (A) (A) (A) (A) (A)
                 (A) (A) (A) (A) (A) (A) (A) (A) (A) (A) (A) (A)
                 (A) (A) (A) (A) (A) (A) (A) (A) (A) (A) (A) (A)
                 (A) (A) (A) (A) (A) (A) (A) (A) (A) (A) (A) (A)
                 (A) (A) (A) (A) (A) (A) (A) (A) (A) (A) (A) (A)
                 (A) (A) (A) (A) (A) (A) (A) (A) (A) (A) (A) (A)
                 (A) (A) (A) (A) (A) (A) (A) (A) (A) (A) (A) (A)
                 (A) (A) (A) (A) (A) (A) (A) (A) (A) (A) (A) (A)
                 (A) (A) (A) (A) (A) (A) (A) (A) (A) (A) (A) (A)
                 (A) (A) (A) (A) (A) (A) (A) (A) (A) (A) (A) (A)
                 (A) (A) (A) (A) (A) (A) (A) (A) (A) (A) (A) (A)
                 (A) (A) (A) (A) (A) (A) (A)
 The electronic state is 2-A.
 Alpha  occ. eigenvalues --  -10.20785 -10.20092 -10.19920 -10.19836 -10.19714
 Alpha  occ. eigenvalues --  -10.19601 -10.19562 -10.19413 -10.19256 -10.19186
 Alpha  occ. eigenvalues --  -10.19174 -10.19088 -10.19070 -10.19026 -10.18912
 Alpha  occ. eigenvalues --  -10.18867 -10.18817 -10.18647 -10.18607 -10.18530
 Alpha  occ. eigenvalues --  -10.18509 -10.18499 -10.18480 -10.18327 -10.18283
 Alpha  occ. eigenvalues --  -10.18277 -10.18114 -10.17317 -10.16771 -10.16708
 Alpha  occ. eigenvalues --   -0.91873  -0.89588  -0.87238  -0.85576  -0.84328
 Alpha  occ. eigenvalues --   -0.82320  -0.81088  -0.79320  -0.79034  -0.76394
 Alpha  occ. eigenvalues --   -0.74948  -0.74561  -0.72728  -0.72310  -0.71523
 Alpha  occ. eigenvalues --   -0.66525  -0.65030  -0.63634  -0.63005  -0.62648
 Alpha  occ. eigenvalues --   -0.60997  -0.59985  -0.58746  -0.56812  -0.54425
 Alpha  occ. eigenvalues --   -0.53515  -0.53114  -0.51649  -0.50846  -0.50306
 Alpha  occ. eigenvalues --   -0.49417  -0.48107  -0.47391  -0.46925  -0.45018
 Alpha  occ. eigenvalues --   -0.44370  -0.44248  -0.43954  -0.43491  -0.43355
 Alpha  occ. eigenvalues --   -0.42809  -0.42341  -0.41687  -0.41509  -0.41121
 Alpha  occ. eigenvalues --   -0.40353  -0.40029  -0.39312  -0.38412  -0.37857
 Alpha  occ. eigenvalues --   -0.37152  -0.36306  -0.35988  -0.35556  -0.34591
 Alpha  occ. eigenvalues --   -0.34191  -0.33613  -0.33357  -0.32849  -0.31708
 Alpha  occ. eigenvalues --   -0.30097  -0.29537  -0.28314  -0.26333  -0.24480
 Alpha  occ. eigenvalues --   -0.23167  -0.22927  -0.20979  -0.20431
 Alpha virt. eigenvalues --   -0.09335  -0.05613  -0.04993  -0.04084  -0.01840
 Alpha virt. eigenvalues --   -0.00435   0.00097   0.00496   0.00685   0.00976
 Alpha virt. eigenvalues --    0.01461   0.01703   0.01793   0.02314   0.02577
 Alpha virt. eigenvalues --    0.03101   0.03246   0.03488   0.04218   0.04397
 Alpha virt. eigenvalues --    0.04529   0.04912   0.05250   0.05537   0.05920
 Alpha virt. eigenvalues --    0.06223   0.06768   0.06997   0.07105   0.07723
 Alpha virt. eigenvalues --    0.08061   0.08221   0.08486   0.08965   0.09297
 Alpha virt. eigenvalues --    0.09540   0.09883   0.10396   0.10750   0.11118
 Alpha virt. eigenvalues --    0.11255   0.11601   0.11744   0.12021   0.12199
 Alpha virt. eigenvalues --    0.12741   0.12917   0.13517   0.13818   0.14244
 Alpha virt. eigenvalues --    0.14418   0.14526   0.15062   0.15211   0.15650
 Alpha virt. eigenvalues --    0.15908   0.16278   0.16361   0.16654   0.16749
 Alpha virt. eigenvalues --    0.16964   0.17140   0.17221   0.17508   0.17864
 Alpha virt. eigenvalues --    0.17983   0.18129   0.18434   0.18559   0.18783
 Alpha virt. eigenvalues --    0.18974   0.19158   0.19321   0.19588   0.19735
 Alpha virt. eigenvalues --    0.19965   0.20133   0.20306   0.20495   0.20559
 Alpha virt. eigenvalues --    0.21072   0.21418   0.21597   0.21912   0.22183
 Alpha virt. eigenvalues --    0.22269   0.22330   0.22661   0.22778   0.23022
 Alpha virt. eigenvalues --    0.23330   0.23528   0.23673   0.23929   0.24320
 Alpha virt. eigenvalues --    0.24413   0.24552   0.24749   0.24936   0.25175
 Alpha virt. eigenvalues --    0.25412   0.25622   0.26189   0.26355   0.26470
 Alpha virt. eigenvalues --    0.26808   0.27033   0.27225   0.27614   0.27936
 Alpha virt. eigenvalues --    0.28139   0.28328   0.28725   0.28803   0.28828
 Alpha virt. eigenvalues --    0.29314   0.29590   0.29682   0.30011   0.30274
 Alpha virt. eigenvalues --    0.30455   0.30699   0.31308   0.31391   0.31579
 Alpha virt. eigenvalues --    0.31970   0.32021   0.32414   0.32851   0.33228
 Alpha virt. eigenvalues --    0.33470   0.33663   0.33833   0.34443   0.34813
 Alpha virt. eigenvalues --    0.35143   0.35457   0.35672   0.36673   0.37299
 Alpha virt. eigenvalues --    0.37734   0.38397   0.38578   0.39156   0.39760
 Alpha virt. eigenvalues --    0.40005   0.40267   0.41480   0.42032   0.42346
 Alpha virt. eigenvalues --    0.43196   0.43926   0.44295   0.45274   0.45785
 Alpha virt. eigenvalues --    0.46168   0.47225   0.47861   0.48168   0.48587
 Alpha virt. eigenvalues --    0.49258   0.49494   0.50638   0.51829   0.52099
 Alpha virt. eigenvalues --    0.52220   0.53054   0.53443   0.53521   0.53909
 Alpha virt. eigenvalues --    0.54480   0.54611   0.54939   0.55447   0.55761
 Alpha virt. eigenvalues --    0.56030   0.56193   0.57113   0.57310   0.57651
 Alpha virt. eigenvalues --    0.58023   0.58281   0.58343   0.58957   0.59213
 Alpha virt. eigenvalues --    0.60056   0.60265   0.60677   0.61213   0.61459
 Alpha virt. eigenvalues --    0.61757   0.62168   0.62602   0.63182   0.63591
 Alpha virt. eigenvalues --    0.64170   0.64752   0.65099   0.65194   0.65514
 Alpha virt. eigenvalues --    0.66292   0.66972   0.67421   0.67770   0.68096
 Alpha virt. eigenvalues --    0.68619   0.68958   0.69295   0.69626   0.70001
 Alpha virt. eigenvalues --    0.70336   0.70634   0.70938   0.71346   0.71482
 Alpha virt. eigenvalues --    0.71757   0.72038   0.72782   0.72914   0.73210
 Alpha virt. eigenvalues --    0.73617   0.73745   0.74231   0.74787   0.74933
 Alpha virt. eigenvalues --    0.75061   0.75451   0.76024   0.76102   0.76256
 Alpha virt. eigenvalues --    0.76503   0.77013   0.77795   0.78466   0.78667
 Alpha virt. eigenvalues --    0.79406   0.79757   0.81394   0.81579   0.81829
 Alpha virt. eigenvalues --    0.82498   0.82734   0.83118   0.83744   0.84103
 Alpha virt. eigenvalues --    0.84727   0.84804   0.85925   0.86137   0.87172
 Alpha virt. eigenvalues --    0.87564   0.87980   0.88369   0.88528   0.89398
 Alpha virt. eigenvalues --    0.89845   0.89902   0.91153   0.91659   0.91818
 Alpha virt. eigenvalues --    0.92724   0.92955   0.93375   0.93684   0.93855
 Alpha virt. eigenvalues --    0.94297   0.94929   0.95236   0.95564   0.96082
 Alpha virt. eigenvalues --    0.96248   0.96665   0.97045   0.97171   0.97906
 Alpha virt. eigenvalues --    0.98513   0.99667   0.99991   1.00099   1.00697
 Alpha virt. eigenvalues --    1.01270   1.01943   1.02223   1.03668   1.04108
 Alpha virt. eigenvalues --    1.04608   1.05074   1.05981   1.06333   1.06697
 Alpha virt. eigenvalues --    1.07053   1.07331   1.07953   1.08383   1.09025
 Alpha virt. eigenvalues --    1.09528   1.10326   1.10845   1.12156   1.12785
 Alpha virt. eigenvalues --    1.12997   1.13325   1.14853   1.15006   1.15532
 Alpha virt. eigenvalues --    1.16733   1.16935   1.17617   1.19949   1.20445
 Alpha virt. eigenvalues --    1.21081   1.22032   1.23437   1.24126   1.24845
 Alpha virt. eigenvalues --    1.25068   1.27743   1.29353   1.29849   1.31961
 Alpha virt. eigenvalues --    1.33277   1.33705   1.34804   1.37072   1.38028
 Alpha virt. eigenvalues --    1.38993   1.40189   1.40959   1.42853   1.43613
 Alpha virt. eigenvalues --    1.45534   1.46134   1.46574   1.46830   1.48118
 Alpha virt. eigenvalues --    1.48333   1.48640   1.49120   1.49831   1.50584
 Alpha virt. eigenvalues --    1.51191   1.51354   1.52186   1.52587   1.53013
 Alpha virt. eigenvalues --    1.54251   1.54714   1.55294   1.55485   1.55927
 Alpha virt. eigenvalues --    1.56617   1.57185   1.57513   1.58391   1.58843
 Alpha virt. eigenvalues --    1.59156   1.59898   1.60513   1.60840   1.61293
 Alpha virt. eigenvalues --    1.62905   1.63682   1.64210   1.64807   1.66047
 Alpha virt. eigenvalues --    1.67066   1.68187   1.69095   1.69420   1.69927
 Alpha virt. eigenvalues --    1.70392   1.70862   1.72366   1.72625   1.73230
 Alpha virt. eigenvalues --    1.73611   1.73934   1.74251   1.75544   1.76501
 Alpha virt. eigenvalues --    1.76689   1.77111   1.77656   1.77902   1.79936
 Alpha virt. eigenvalues --    1.80664   1.81118   1.81827   1.82543   1.83321
 Alpha virt. eigenvalues --    1.83499   1.83995   1.84778   1.86247   1.86518
 Alpha virt. eigenvalues --    1.86622   1.86788   1.88052   1.88538   1.89089
 Alpha virt. eigenvalues --    1.89240   1.89829   1.89923   1.90371   1.91054
 Alpha virt. eigenvalues --    1.91663   1.92397   1.92921   1.93515   1.94518
 Alpha virt. eigenvalues --    1.94812   1.95725   1.96124   1.96744   1.97135
 Alpha virt. eigenvalues --    1.97919   1.98170   1.99046   1.99957   2.00785
 Alpha virt. eigenvalues --    2.01778   2.02134   2.02781   2.03486   2.04241
 Alpha virt. eigenvalues --    2.05244   2.05533   2.06371   2.06758   2.07952
 Alpha virt. eigenvalues --    2.08781   2.09223   2.10386   2.11227   2.11574
 Alpha virt. eigenvalues --    2.13062   2.13351   2.13963   2.14990   2.16266
 Alpha virt. eigenvalues --    2.17111   2.17634   2.18334   2.19106   2.20861
 Alpha virt. eigenvalues --    2.22200   2.22734   2.24345   2.24695   2.25995
 Alpha virt. eigenvalues --    2.26406   2.26994   2.28056   2.29000   2.32260
 Alpha virt. eigenvalues --    2.32792   2.34526   2.35981   2.36991   2.38164
 Alpha virt. eigenvalues --    2.39252   2.40791   2.41525   2.42375   2.43493
 Alpha virt. eigenvalues --    2.43997   2.45090   2.45667   2.46644   2.47393
 Alpha virt. eigenvalues --    2.48304   2.50113   2.51308   2.54449   2.55369
 Alpha virt. eigenvalues --    2.56287   2.56770   2.57708   2.59143   2.59261
 Alpha virt. eigenvalues --    2.61280   2.63919   2.65099   2.65980   2.67037
 Alpha virt. eigenvalues --    2.68681   2.69316   2.69667   2.70641   2.70957
 Alpha virt. eigenvalues --    2.71321   2.72078   2.72309   2.72842   2.73336
 Alpha virt. eigenvalues --    2.73689   2.74101   2.74851   2.75061   2.75403
 Alpha virt. eigenvalues --    2.75924   2.76032   2.76540   2.76680   2.76901
 Alpha virt. eigenvalues --    2.77123   2.77789   2.78770   2.79125   2.79401
 Alpha virt. eigenvalues --    2.79853   2.80594   2.82197   2.83620   2.84073
 Alpha virt. eigenvalues --    2.84852   2.85590   2.85917   2.86355   2.87470
 Alpha virt. eigenvalues --    2.87833   2.88777   2.89073   2.89363   2.89908
 Alpha virt. eigenvalues --    2.91399   2.91933   2.92351   2.93768   2.94328
 Alpha virt. eigenvalues --    2.94489   2.96126   2.98570   3.00230   3.01231
 Alpha virt. eigenvalues --    3.02167   3.03299   3.05185   3.06622   3.08022
 Alpha virt. eigenvalues --    3.11321   3.11898   3.13467   3.15180   3.16516
 Alpha virt. eigenvalues --    3.17910   3.19503   3.20209   3.21424   3.21803
 Alpha virt. eigenvalues --    3.22640   3.23977   3.25916   3.26817   3.29066
 Alpha virt. eigenvalues --    3.31610   3.33839   3.34095   3.35570   3.37430
 Alpha virt. eigenvalues --    3.37561   3.40145   3.41629   3.42059   3.43767
 Alpha virt. eigenvalues --    3.44726   3.45474   3.46146   3.47809   3.48975
 Alpha virt. eigenvalues --    3.49391   3.51212   3.52898   3.54875   3.55983
 Alpha virt. eigenvalues --    3.56278   3.58747   3.62404   3.63162   3.63646
 Alpha virt. eigenvalues --    3.64725   3.68923   3.72888   3.76461   3.81508
[...]
 2,-0.00001453,0.00000371,0.00001919,0.00001056,-0.00003169,0.00005570,
 -0.00004301,0.00006259,-0.00072695,0.00095717,-0.00065604,0.00033543,0
 .00061963,0.00151387,0.11100229,0.00004267,0.00009141,0.00000737,0.000
 11809,-0.00000498,-0.00008189,-0.00008960,-0.00000717,-0.00005820,0.00
 000908,0.00001776,-0.00001223,0.00004370,-0.00002660,0.00001178,-0.000
 00148,0.00002440,-0.00000498,0.00000448,0.00000321,0.00000349,0.000001
 27,-0.00000521,-0.00000246,-0.00004823,-0.00001571,-0.00000570,-0.0000
 4686,0.00003835,0.00000358,0.00004511,-0.00000905,0.00000383,-0.000006
 57,0.00004414,0.00000319,-0.00002542,0.00002598,0.00002411,0.00000102,
 -0.00001722,-0.00000543,0.00000093,-0.00000963,0.00001356,0.00006100,0
 .00004002,0.00010744,-0.00011930,0.00000959,-0.00002291,0.00010137,-0.
 00002169,0.00000148,0.00098020,0.00013200,0.00052858,0.00030318,-0.000
 52065,0.00001809,0.00008854,-0.00014124,-0.00000990,0.00011561,-0.0000
 4230,0.00004109,-0.00530987,-0.00168579,0.00368479,-0.00009155,-0.0018
 3908,0.00038711,-0.00006189,0.00109935,-0.00094786,-0.00071705,-0.0007
 1917,0.00007562,-0.00337444,0.00304809,-0.00005677,-0.00009534,0.00618
 603,-0.00708726,0.04698290,-0.10498513,0.10970791,0.01332569,-0.012378
 27,0.02171142,0.00001152,-0.00002647,-0.00001725,0.00000456,-0.0000004
 3,-0.00000848,0.00000227,-0.00000035,-0.00000014,-0.00000031,-0.000000
 42,0.00000064,-0.00000170,0.00000021,0.00000192,0.00000025,-0.00000197
 ,0.00000337,-0.00000254,-0.00000320,-0.00000330,-0.00000699,-0.0000017
 7,0.00001018,-0.00000920,-0.00005405,-0.00000317,-0.00000383,-0.000005
 87,0.00002634,0.00002824,-0.00000932,0.00002389,-0.00051077,0.00054797
 ,0.00003986,0.00101895,-0.00039220,-0.00107508,-0.05615923,0.11602689,
 0.00002289,0.00019948,0.00001441,0.00013404,0.00000949,-0.00009993,-0.
 00010267,-0.00005565,-0.00004212,0.00004299,0.00000647,-0.00000877,0.0
 0005506,-0.00000918,0.00001396,-0.00002388,-0.00002114,-0.00001681,0.0
 0006375,0.00001104,0.00001339,-0.00000280,-0.00005355,-0.00001540,-0.0
 0004886,0.00003620,0.00000803,-0.00000141,0.00003795,0.00000833,-0.000
 01373,-0.00001515,-0.00000329,0.00002579,-0.00000458,0.00000010,-0.000
 07617,-0.00004457,-0.00003403,-0.00001711,-0.00002872,0.00001789,0.000
 07381,-0.00001542,0.00002932,-0.00011761,0.00002932,0.00011318,-0.0000
 4766,0.00001622,-0.00005835,0.00004762,-0.00001047,0.00001091,-0.00052
 798,0.00043953,-0.00013421,0.00066292,-0.00001060,-0.00015402,-0.00002
 266,-0.00006923,-0.00001869,0.00005328,0.00003414,0.00002123,-0.000726
 99,0.00272421,0.00378548,0.00073832,-0.00180702,0.00081645,-0.00015588
 ,0.00086187,-0.00096274,-0.00050593,-0.00071634,0.00015515,-0.00262562
 ,0.00168667,0.00129348,0.00250517,0.00362355,-0.00135914,-0.10925177,0
 .11802491,-0.20657580,-0.00572846,0.00083146,-0.00319800,-0.00000795,0
 .00003155,-0.00000769,0.00000613,0.00000027,-0.00001025,0.00000140,0.0
 0000086,-0.00000165,0.00000017,-0.00000261,-0.00000190,-0.00000054,-0.
 00000200,0.00000004,0.00000149,-0.00000058,0.00000005,0.00000228,-0.00
 000014,0.00000012,0.00000286,0.00000078,0.00000554,-0.00000055,0.00001
 300,-0.00000332,-0.00002529,0.00000900,0.00002077,-0.00000966,0.000002
 64,0.00000144,-0.00017011,0.00047455,-0.00003904,0.00052471,-0.0010982
 4,-0.00079005,0.11101284,-0.11854457,0.21540389,-0.00167483,-0.0001608
 1,0.00209925,-0.00104754,-0.00105959,0.00126628,-0.00008365,-0.0000290
 9,0.00010567,0.00024077,-0.00003159,0.00017891,-0.00016528,-0.00005605
 ,-0.00012224,0.00002079,0.00021376,0.00004174,-0.00006860,-0.00005269,
 -0.00001765,-0.00002170,0.00007454,0.00003099,0.00008344,-0.00002390,-
 0.00001764,0.00000006,-0.00008704,-0.00005265,-0.00003664,-0.00000171,
 0.00000535,0.00000083,-0.00003768,0.00000554,-0.00045469,0.00006887,0.
 00047832,0.00023321,-0.00026934,-0.00000146,-0.00020129,-0.00006943,-0
 .00006825,0.00056520,-0.00048133,0.00082103,0.00021145,0.00040141,0.00
 002209,-0.00009830,0.00002732,0.00000969,-0.00116296,-0.00092463,0.001
 79587,-0.00034954,0.00024345,-0.00018236,-0.00004013,-0.00006009,-0.00
 004068,0.00002272,-0.00002015,0.00000370,-0.01003577,-0.00399934,-0.00
 506382,0.00164775,0.00099963,-0.00343593,-0.00044104,-0.00059515,0.000
 01438,0.00017519,0.00010747,0.00002706,0.00027844,0.00017877,0.0006025
 9,0.00185930,-0.00308314,-0.00103725,-0.00563364,-0.00169344,-0.004685
 56,-0.27920874,-0.07983676,-0.09830174,0.00003166,0.00000614,-0.000152
 81,-0.00000218,-0.00000306,-0.00000665,0.00000186,-0.00000066,-0.00000
 695,0.00000326,-0.00000017,0.00000039,0.00000359,0.00000173,0.00000014
 ,0.00000216,0.00000495,-0.00000673,-0.00000731,0.00000154,0.00000398,0
 .00001520,-0.00000056,-0.00000960,-0.00000054,0.00001253,-0.00000242,0
 .00000816,0.00002981,-0.00000650,-0.00013471,0.00015355,-0.00001950,-0
 .00019205,0.00013964,0.00030604,-0.00032976,-0.00001535,-0.00025611,-0
 .00019323,0.00113430,0.00140028,0.29637157,-0.00035391,0.00047572,0.00
 058769,-0.00126839,0.00001799,0.00084687,-0.00034491,-0.00014541,0.000
 01256,0.00032035,-0.00007911,0.00005215,-0.00006580,0.00003215,-0.0000
 2868,0.00002058,0.00000698,-0.00000076,0.00004753,-0.00004783,-0.00000
 968,-0.00004659,-0.00002131,0.00000531,0.00003427,0.00006759,0.0000037
 3,0.00002409,0.00001453,-0.00007713,-0.00010748,-0.00005007,-0.0000117
 4,0.00008255,-0.00004428,-0.00000035,0.00007514,-0.00035708,-0.0002790
 4,-0.00004320,-0.00009308,-0.00003046,0.00003544,-0.00000849,-0.000006
 72,0.00035056,-0.00063408,0.00063198,0.00008275,-0.00030113,-0.0001006
 3,-0.00006113,0.00008705,0.00005229,0.00059603,0.00035695,-0.00137911,
 0.00034071,-0.00024216,-0.00001472,-0.00000011,0.00018956,0.00009326,-
 0.00006476,0.00001687,-0.00006147,0.01643948,0.00824522,0.00685339,0.0
 0069871,-0.00106866,0.00433905,0.00073704,0.00045337,-0.00002235,-0.00
 006238,-0.00004829,-0.00006667,0.00045349,-0.00031901,-0.00007631,-0.0
 0187730,-0.00246788,0.00498566,-0.02648273,-0.00498602,-0.00930726,-0.
 07874335,-0.07564753,-0.02221415,-0.00009760,-0.00003197,-0.00004705,-
 0.00000529,-0.00000042,-0.00000858,-0.00000059,-0.00000155,-0.00000515
 ,0.00000509,-0.00000504,-0.00000332,0.00000386,-0.00000737,-0.00000118
 ,0.00000790,0.00000414,-0.00000339,0.00000762,0.00001092,0.00001942,-0
 .00001408,0.00001374,-0.00000312,-0.00000416,0.00001024,0.00000244,-0.
 00003193,-0.00001710,0.00001964,0.00017172,-0.00014491,0.00019759,0.00
 013407,-0.00013954,-0.00044981,-0.00123778,-0.00019804,-0.00034415,0.0
 0146849,-0.00052191,-0.00156114,0.08881906,0.07736318,0.00104236,0.000
 01239,-0.00080907,0.00048208,0.00085246,-0.00034414,0.00053201,-0.0000
 1931,0.00028616,0.00027334,0.00015731,0.00011306,-0.00029021,0.0000345
 8,-0.00008565,-0.00007262,0.00002508,0.00001382,0.00000654,0.00001651,
 0.00000193,-0.00001121,0.00000424,0.00000868,0.00010673,0.00013180,0.0
 0000802,0.00018052,-0.00024660,0.00002198,-0.00010324,-0.00001988,-0.0
 0003175,0.00007667,-0.00009435,-0.00001093,0.00006719,-0.00040933,-0.0
 0046033,-0.00002333,-0.00002993,0.00000704,-0.00001699,0.00006998,-0.0
 0000463,-0.00055269,0.00083641,-0.00090447,0.00015001,0.00008483,0.000
 13532,-0.00025842,-0.00012705,-0.00011755,0.00142051,-0.00070019,-0.00
 146531,0.00042264,-0.00035877,0.00025741,0.00011325,0.00003689,0.00014
 075,-0.00008390,0.00009947,-0.00005032,-0.01815950,-0.00882708,-0.0016
 1957,-0.00265934,0.00486794,0.00121345,-0.00107917,-0.00069467,0.00003
 518,-0.00019246,-0.00010485,-0.00015075,0.00044445,0.00068133,-0.00112
 419,-0.00060699,0.00447966,0.00371379,0.00953521,0.00349041,0.00712312
 ,-0.09693129,-0.01993372,-0.08216936,-0.00011788,0.00001017,-0.0000459
 2,-0.00001622,0.00001113,-0.00000090,-0.00001417,0.00000997,-0.0000036
 6,-0.00001607,-0.00000157,0.00000022,-0.00001566,-0.00001154,0.0000012
 4,-0.00000700,-0.00001149,-0.00000408,-0.00000202,-0.00000634,0.000005
 98,0.00001150,-0.00001265,0.00001603,0.00000943,-0.00000243,0.00000414
 ,0.00001582,0.00002886,0.00000469,-0.00023624,0.00025401,-0.00017727,0
 .00018676,-0.00039790,-0.00052582,0.00047790,0.00031236,0.00023824,0.0
 0166787,-0.00225526,-0.00145747,0.10423223,0.01737470,0.07807924,-0.00
 135398,0.00348366,0.00035665,0.00060819,0.00031537,0.00021503,-0.00007
 488,0.00029363,0.00006168,-0.00076546,0.00053650,0.00025503,0.00019079
 ,0.00010801,0.00009146,-0.00558277,0.00162784,-0.00139132,0.00042398,-
 0.00115910,-0.00052976,-0.00050077,-0.00020728,0.00001173,-0.00021100,
 0.00022539,0.00001498,0.00012147,-0.00007660,0.00003651,-0.00005702,0.
 00002833,-0.00000348,0.00006480,-0.00003697,-0.00000788,0.01020798,0.0
 1531146,0.00763035,-0.11764477,-0.10139784,-0.05485740,-0.01107433,-0.
 02586466,-0.01295319,0.00010882,-0.00000512,0.00001698,0.00000527,0.00
 002628,-0.00002161,-0.00004223,0.00003962,0.00000397,-0.00000668,0.000
 00984,0.00000869,0.00000588,-0.00001580,0.00000928,0.00000983,0.000012
 26,0.00000186,-0.00000120,0.00001786,-0.00000318,0.00001939,0.00000673
 ,-0.00000941,-0.00000636,0.00000463,0.00000282,-0.00001430,-0.00000169
 ,-0.00001096,0.00000645,-0.00000744,0.00000608,-0.00001172,-0.00001580
 ,-0.00001536,-0.00001494,-0.00002092,-0.00000743,0.00000948,-0.0000155
 7,0.00000405,0.00002987,0.00001709,0.,0.00074477,-0.00060673,0.0004409
 9,0.00081671,-0.00002557,0.00086114,-0.00003798,0.00004093,-0.00000318
 ,-0.00005187,-0.00014903,-0.00002060,-0.00000365,0.00000025,0.00000041
 ,0.00001436,-0.00000089,-0.00001157,-0.00000094,-0.00000129,0.00000144
 ,-0.00000486,0.00000115,-0.00000207,0.00000186,-0.00000095,0.00000003,
 -0.00000022,-0.00000339,-0.00000004,0.00000072,0.00000209,0.00000138,-
 0.00000230,0.00000193,0.00000443,-0.00000399,0.00000182,0.00000742,0.0
 0000817,-0.00000529,0.00000185,0.00000473,-0.00000165,-0.00001427,0.12
 413136,0.00356329,-0.00231343,-0.00224636,-0.00062978,0.00022704,-0.00
 045313,0.00002644,-0.00044552,-0.00005561,0.00085685,0.00008702,0.0005
 5017,-0.00006431,-0.00013877,0.00002631,0.00131185,0.00219395,-0.00211
 989,0.00006903,0.00023213,-0.00013608,-0.00003773,0.00004425,0.0002147
 0,0.00008095,-0.00003390,-0.00006468,-0.00009129,0.00003767,0.00010962
 ,0.00003275,-0.00005036,-0.00000309,-0.00001469,0.00002592,0.00001663,
 -0.01297106,-0.01594952,-0.00975187,-0.10136900,-0.22815503,-0.0945574
 6,0.00268228,0.00431212,0.00084017,-0.00019290,-0.00009520,-0.00005479
 ,0.00005492,-0.00002302,-0.00001763,-0.00000273,-0.00006530,-0.0000094
 0,-0.00001517,-0.00002356,0.00002053,0.00000183,0.00000474,-0.00001857
 ,0.00002354,-0.00001517,0.00001261,-0.00003779,0.00001402,-0.00000060,
 0.00000610,-0.00003505,0.00002960,0.00001829,-0.00000862,-0.00000913,0
 .00003397,0.00001162,0.00002078,-0.00001738,0.00002462,-0.00001358,0.0
 0000974,0.00002091,0.00001196,0.00002391,0.00004239,0.00001878,-0.0000
 0560,0.00002428,-0.00000584,-0.00007396,0.00001032,0.00002177,-0.00008
 861,0.00032552,0.00136142,-0.00058201,0.00003592,0.00191636,-0.0000204
 5,0.00000941,-0.00003543,0.00000306,0.00000671,0.00002669,-0.00001012,
 -0.00000629,-0.00000049,-0.00001323,-0.00000684,-0.00003299,0.00000270
 ,-0.00001061,0.00000299,0.00000529,-0.00001084,0.00000346,0.00000759,-
 0.00000224,0.00000038,0.00000663,-0.00000225,0.00000249,0.00000813,0.0
 0000065,-0.00000463,0.00000998,-0.00000102,-0.00000552,0.00000503,0.00
 000292,-0.00000691,-0.00000803,0.00000392,-0.00000634,-0.00000104,-0.0
 0000388,0.00003660,0.10744633,0.23970797,0.00078709,-0.00213171,0.0042
 5236,-0.00032396,-0.00013162,0.00042463,0.00004670,-0.00008655,-0.0000
 7410,0.00015072,0.00073617,-0.00049942,0.00002155,0.00003937,-0.000290
 13,-0.00166055,-0.00202216,0.00684970,0.00005145,-0.00046903,0.0003803
 6,-0.00012483,0.00015712,-0.00047984,-0.00004414,-0.00002882,0.0001569
 3,0.00001918,-0.00005028,-0.00023102,0.00003254,-0.00001306,0.00000256
 ,0.00000271,0.00004374,-0.00001156,-0.00381180,-0.00562592,-0.00022532
 ,-0.05528818,-0.09399532,-0.08274740,-0.00084231,-0.00405752,0.0016810
 0,-0.00012412,-0.00002149,-0.00001113,0.00004135,0.00000214,0.00002399
 ,-0.00002370,-0.00002079,-0.00002187,-0.00003553,-0.00001647,-0.000020
 91,-0.00002002,-0.00001772,-0.00003200,0.00003042,-0.00000692,0.000010
 59,-0.00002706,0.00002509,-0.00001767,-0.00001804,-0.00002765,-0.00001
 652,0.00000676,0.00001703,-0.00004940,0.00005206,0.00000628,0.00002264
 ,-0.00002737,0.00005681,-0.00003542,0.00001915,-0.00000670,0.00002646,
 -0.00000557,0.00008446,0.00003997,0.00004867,0.00000928,-0.00003362,-0
 .00001134,-0.00006012,0.00006271,0.00065862,0.00137338,-0.00242955,0.0
 0062057,0.00207227,-0.00396023,-0.00002047,-0.00001841,0.00008332,-0.0
 0000571,-0.00000847,-0.00007026,-0.00000033,-0.00000120,-0.00000099,-0
 .00000857,-0.00001328,0.00006993,0.00000004,-0.00000196,0.00000318,0.0
 0000351,-0.00000211,0.00000534,0.00000005,0.00000267,0.00000371,0.0000
 0086,0.00000551,0.00000433,-0.00000618,0.00000096,0.00000054,-0.000004
 81,0.00000015,-0.00000326,0.00001229,-0.00000191,-0.00000864,-0.000004
 06,-0.00000504,-0.00003257,-0.00000369,0.00000335,0.00002417,0.0598339
 7,0.10429879,0.07713604,0.00001409,-0.00022509,0.00002565,-0.00004245,
 0.00014649,0.00003922,-0.00000311,0.00006519,-0.00000718,0.00003745,-0
 .00002633,-0.00005273,0.00006439,0.00002812,0.00001644,-0.00007623,-0.
 00002608,-0.00005244,0.00004834,0.00004462,0.00001830,-0.00000114,-0.0
 0005118,-0.00001194,-0.00004725,0.00000805,0.00000539,0.00006490,-0.00
 004015,0.00000449,-0.00001628,-0.00000814,0.00000096,0.00001878,0.0000
 1972,0.00000981,0.00017604,-0.00023011,0.00005618,-0.00059494,0.000182
 86,0.00041607,0.00017068,0.00004314,0.00012301,0.00003476,-0.00011796,
 0.00002367,0.00011239,-0.00002592,0.00004430,-0.00007885,-0.00000196,-
 0.00001663,0.00019349,-0.00018996,-0.00012158,-0.00064294,0.00003333,-
 0.00018161,-0.00001706,0.00002060,0.00000861,-0.00005783,-0.00000127,-
 0.00001210,0.00105171,-0.00059222,0.00096634,-0.00040466,0.00283273,-0
 .00202179,0.00057809,-0.00198837,0.00097847,0.00070175,0.00137974,-0.0
 0021333,0.00026597,-0.00398854,0.00397760,-0.01411746,0.00493193,-0.00
 054743,0.00918594,-0.01675125,-0.00620206,0.00233837,0.00817730,-0.001
 75950,-0.00020986,-0.00030149,0.00031846,0.00001631,-0.00000518,-0.000
 00545,0.00000521,-0.00000091,-0.00000258,0.00000151,0.00000010,-0.0000
 0011,0.00000114,0.00000035,-0.00000213,0.00000174,0.00000243,-0.000001
 30,-0.00000008,0.00000317,-0.00000118,0.00000138,0.00000302,-0.0000056
 0,-0.00000121,-0.00000795,-0.00000087,0.00001607,0.00001480,0.00002253
 ,0.00000054,-0.00002277,0.00004477,0.00023861,-0.00028780,-0.00012679,
 0.00038259,-0.00007861,-0.00032384,-0.00138274,0.00226253,0.00283164,-
 0.00019721,-0.00004142,0.00002588,-0.00006666,-0.00004360,0.00000208,0
 .00223573,0.00005254,0.00016773,0.00000529,-0.00001749,-0.00025849,-0.
 00006520,0.00008519,0.00000486,0.00003453,-0.00002804,0.00005499,-0.00
 008304,-0.00000919,0.00001825,0.00001283,-0.00014060,-0.00010820,-0.00
 008669,0.00011408,0.00005123,0.00001881,0.00000187,-0.00008322,-0.0000
 2752,-0.00003584,0.00006861,0.00001320,-0.00002917,-0.00007129,-0.0000
 2595,-0.00000231,0.00001682,0.00000052,-0.00000359,-0.00005948,-0.0000
 1716,-0.00003717,-0.00035366,-0.00005577,-0.00040111,0.00006386,0.0002
 1964,0.00030589,0.00004331,0.00015099,-0.00001829,0.00001403,-0.000025
 04,-0.00008330,0.00010136,-0.00005874,-0.00001188,0.00002668,0.0000208
 6,-0.00034654,-0.00021395,0.00040392,0.00069608,0.00009595,0.00012355,
 -0.00006578,-0.00007350,-0.00001544,0.00010425,0.00001397,0.00002810,-
 0.00216511,0.00183166,-0.00282310,0.00084035,-0.00430540,0.00347764,-0
 .00092948,0.00303123,-0.00172844,-0.00070111,-0.00213512,0.00052597,-0
 .00156777,0.00559482,-0.00523841,0.01514163,-0.00277695,0.00226653,-0.
 01789421,0.02575211,0.01043466,-0.00064186,-0.01980507,0.00171297,-0.0
 0013740,-0.00011226,0.00019308,0.00000063,0.00000511,-0.00000040,-0.00
 000154,0.00000477,0.00000215,-0.00000341,-0.00000465,0.00000160,-0.000
 00272,-0.00000097,0.00000269,-0.00000162,-0.00000415,-0.00000006,-0.00
 000170,-0.00000516,-0.00000006,-0.00000415,-0.00000718,0.00000378,0.00
 000443,0.00001272,-0.00000582,-0.00003782,-0.00000776,-0.00001532,0.00
 004533,0.00001775,-0.00004730,-0.00014135,0.00026669,0.00005199,-0.000
 35950,0.00011355,0.00033176,0.00353882,-0.00389249,-0.00502791,-0.0000
 2467,0.00026693,0.00034582,0.00006060,-0.00000962,-0.00009236,0.004854
 04,-0.00335044,0.00004544,0.00014285,0.00003452,0.00000153,-0.00012181
 ,-0.00006309,-0.00000212,-0.00004114,0.00000432,0.00003681,0.00002827,
 0.00012243,-0.00004168,-0.00004740,-0.00002321,0.00013449,0.00008793,0
 .00005936,-0.00008059,-0.00004882,-0.00000061,0.00001233,0.00007484,0.
 00001795,0.00005484,-0.00002324,-0.00000684,-0.00008284,0.00004587,-0.
 00001350,0.00003919,0.00000840,0.00000363,-0.00002805,-0.00000050,-0.0
 0000607,-0.00001489,0.00049882,-0.00024388,0.00051977,-0.00022674,-0.0
 0027503,-0.00019328,-0.00003223,-0.00009375,0.00008328,0.00013054,0.00
 001050,-0.00012288,-0.00001715,-0.00003023,0.00009792,0.00000848,0.000
 02115,-0.00029258,-0.00011829,0.00012473,0.00063071,-0.00001355,0.0001
 6729,-0.00002596,-0.00003677,-0.00001995,0.00007702,-0.00000682,0.0000
 2359,-0.00138592,0.00113754,-0.00170600,0.00085186,-0.00319997,0.00228
 863,-0.00068380,0.00231079,-0.00119843,-0.00071399,-0.00157763,0.00032
 614,-0.00100675,0.00379036,-0.00331412,0.00879282,-0.00121675,0.002704
 78,-0.01098331,0.01828474,0.00106100,-0.00235674,-0.00914171,0.0036843
 3,0.00036824,0.00016702,-0.00043327,-0.00000433,0.00000616,-0.00002434
 ,-0.00000110,-0.00000026,-0.00000178,-0.00000043,0.00000205,-0.0000023
 2,-0.00000012,0.00000161,0.00000153,-0.00000129,-0.00000157,0.00000079
 ,0.00000111,-0.00000203,-0.00000150,-0.00000299,-0.00000241,0.00000365
 ,0.00000122,0.00000589,-0.00000002,-0.00001708,-0.00001566,-0.00002494
 ,0.00003172,0.00001007,-0.00004874,-0.00006565,0.00012443,-0.00006656,
 -0.00020320,0.00010143,0.00022899,0.00479181,-0.00623275,-0.00670798,0
 .00004666,0.00003304,0.00010947,-0.00001751,0.00006723,0.00003841,0.00
 171029,-0.00494315,0.00326896\\-0.00000027,0.00000002,-0.00000049,0.00
 000012,0.,0.00000004,0.00000022,-0.00000034,-0.00000017,-0.00000022,-0
 .00000026,-0.00000093,0.00000011,-0.00000038,-0.00000070,-0.00000042,-
 0.00000035,-0.00000150,-0.00000027,-0.00000046,-0.00000175,-0.00000008
 ,-0.00000069,-0.00000156,0.00000011,-0.00000061,-0.00000099,0.00000051
 ,-0.00000045,0.00000016,0.00000053,-0.00000068,-0.00000014,0.00000045,
 -0.00000080,-0.00000068,-0.00000047,0.00000016,-0.00000064,-0.00000087
 ,0.00000027,-0.00000114,-0.00000065,-0.00000002,-0.00000156,0.00000009
 ,0.00000007,0.00000055,0.00000043,0.00000003,0.00000090,0.00000047,-0.
 00000024,0.00000068,0.00000020,0.00000039,0.00000070,-0.00000013,0.000
 00054,0.00000128,0.00000030,0.00000058,0.00000168,0.00000035,0.0000003
 0,0.00000140,0.00000063,-0.00000016,0.00000138,-0.00000044,0.00000155,
 -0.00000007,0.00000009,0.00000003,0.00000177,0.00000011,0.00000146,0.0
 0000140,0.00000007,-0.00000081,0.00000171,-0.00000300,0.00000048,-0.00
 000043,0.00000473,-0.00000729,-0.00000327,0.00000060,0.00000403,-0.000
 00057,-0.00000063,0.00000048,-0.00000038,-0.00000089,-0.00000002,-0.00
 000201,-0.00000049,-0.00000055,-0.00000220,-0.00000003,-0.00000086,-0.
 00000182,0.00000049,-0.00000095,-0.00000087,0.00000075,-0.00000075,0.0
 0000009,0.00000068,-0.00000026,0.00000098,0.00000054,0.00000022,0.0000
 0168,0.00000022,0.00000075,0.00000205,-0.00000010,0.00000107,0.0000019
 7,-0.00000032,0.00000103,0.00000151,-0.00000023,0.00000059,0.00000080,
 -0.00000001,0.,0.00000002,-0.00000021,0.00000006,0.00000097,0.00000037
 ,-0.00000043,-0.00000010,-0.00000097,0.00000039,-0.00000136,-0.0000024
 5,0.00000284,0.00000157\\\@


 IT IS A QUALITY OF REVOLUTIONS NOT TO GO BY OLD LINES OR OLD LAWS,
 BUT TO BREAK UP BOTH, AND MAKE NEW ONES.
                                              -- A. LINCOLN (1848)
 Job cpu time:       3 days 11 hours 22 minutes 28.1 seconds.
 Elapsed time:       0 days  4 hours 10 minutes 46.8 seconds.
 File lengths (MBytes):  RWF=   4598 Int=      0 D2E=      0 Chk=     65 Scr=      1
 Normal termination of Gaussian 16 at Sat Jul 27 06:14:55 2019.
