 Entering Gaussian System, Link 0=g09
 Initial command:
 /usr/local/Cluster-Apps/gaussian/g09/l1.exe "/rds/user/am2145/hpc-work/scratch/19184723/Gau-126389.inp" -scrdir="/rds/user/am2145/hpc-work/scratch/19184723/"
 Entering Link 1 = /usr/local/Cluster-Apps/gaussian/g09/l1.exe PID=    126390.
  
 Copyright (c) 1988,1990,1992,1993,1995,1998,2003,2009,2013,
            Gaussian, Inc.  All Rights Reserved.
  
 This is part of the Gaussian(R) 09 program.  It is based on
 the Gaussian(R) 03 system (copyright 2003, Gaussian, Inc.),
 the Gaussian(R) 98 system (copyright 1998, Gaussian, Inc.),
 the Gaussian(R) 94 system (copyright 1995, Gaussian, Inc.),
 the Gaussian 92(TM) system (copyright 1992, Gaussian, Inc.),
 the Gaussian 90(TM) system (copyright 1990, Gaussian, Inc.),
 the Gaussian 88(TM) system (copyright 1988, Gaussian, Inc.),
 the Gaussian 86(TM) system (copyright 1986, Carnegie Mellon
 University), and the Gaussian 82(TM) system (copyright 1983,
 Carnegie Mellon University). Gaussian is a federally registered
 trademark of Gaussian, Inc.
  
 This software contains proprietary and confidential information,
 including trade secrets, belonging to Gaussian, Inc.
  
 This software is provided under written license and may be
 used, copied, transmitted, or stored only in accord with that
 written license.
  
 The following legend is applicable only to US Government
 contracts under FAR:
  
                    RESTRICTED RIGHTS LEGEND
  
 Use, reproduction and disclosure by the US Government is
 subject to restrictions as set forth in subparagraphs (a)
 and (c) of the Commercial Computer Software - Restricted
 Rights clause in FAR 52.227-19.
  
 Gaussian, Inc.
 340 Quinnipiac St., Bldg. 40, Wallingford CT 06492
  
  
 ---------------------------------------------------------------
 Warning -- This program may not be used in any manner that
 competes with the business of Gaussian, Inc. or will provide
 assistance to any competitor of Gaussian, Inc.  The licensee
 of this program is prohibited from giving any competitor of
 Gaussian, Inc. access to this program.  By using this program,
 the user acknowledges that Gaussian, Inc. is engaged in the
 business of creating and licensing software in the field of
 computational chemistry and represents and warrants to the
 licensee that it is not a competitor of Gaussian, Inc. and that
 it will not use this program in any manner prohibited above.
 ---------------------------------------------------------------
  

 Cite this work as:
 Gaussian 09, Revision D.01,
 M. J. Frisch, G. W. Trucks, H. B. Schlegel, G. E. Scuseria, 
 M. A. Robb, J. R. Cheeseman, G. Scalmani, V. Barone, B. Mennucci, 
 G. A. Petersson, H. Nakatsuji, M. Caricato, X. Li, H. P. Hratchian, 
 A. F. Izmaylov, J. Bloino, G. Zheng, J. L. Sonnenberg, M. Hada, 
 M. Ehara, K. Toyota, R. Fukuda, J. Hasegawa, M. Ishida, T. Nakajima, 
 Y. Honda, O. Kitao, H. Nakai, T. Vreven, J. A. Montgomery, Jr., 
 J. E. Peralta, F. Ogliaro, M. Bearpark, J. J. Heyd, E. Brothers, 
 K. N. Kudin, V. N. Staroverov, T. Keith, R. Kobayashi, J. Normand, 
 K. Raghavachari, A. Rendell, J. C. Burant, S. S. Iyengar, J. Tomasi, 
 M. Cossi, N. Rega, J. M. Millam, M. Klene, J. E. Knox, J. B. Cross, 
 V. Bakken, C. Adamo, J. Jaramillo, R. Gomperts, R. E. Stratmann, 
 O. Yazyev, A. J. Austin, R. Cammi, C. Pomelli, J. W. Ochterski, 
 R. L. Martin, K. Morokuma, V. G. Zakrzewski, G. A. Voth, 
 P. Salvador, J. J. Dannenberg, S. Dapprich, A. D. Daniels, 
 O. Farkas, J. B. Foresman, J. V. Ortiz, J. Cioslowski, 
 and D. J. Fox, Gaussian, Inc., Wallingford CT, 2013.
 
 ******************************************
 Gaussian 09:  ES64L-G09RevD.01 24-Apr-2013
                 1-Feb-2020 
 ******************************************
 %NProcShared=20
 Will use up to   20 processors via shared memory.
 %mem=64GB
 %Chk=CTS1ab_guess.chk
 --------------------------------------------------
 #n opt=(ts,calcfc,noeigen) freq b3lyp/6-311+g(d,p)
 --------------------------------------------------
 1/5=1,10=4,11=1,14=-1,18=20,26=3,38=1/1,3;
 2/9=110,12=2,17=6,18=5,40=1/2;
 3/5=4,6=6,7=111,11=2,16=1,25=1,30=1,71=2,74=-5,140=1/1,2,3;
 4//1;
 5/5=2,38=5/2;
 8/6=4,10=90,11=11/1;
 11/6=1,8=1,9=11,15=111,16=1/1,2,10;
 10/6=1,13=1/2;
 6/7=2,8=2,9=2,10=2,28=1/1;
 7/10=1,18=20,25=1/1,2,3,16;
 1/5=1,10=4,11=1,14=-1,18=20,26=3/3(2);
 2/9=110/2;
 99//99;
 2/9=110/2;
 3/5=4,6=6,7=111,11=2,16=1,25=1,30=1,71=1,74=-5/1,2,3;
 4/5=5,16=3,69=1/1;
 5/5=2,38=5/2;
 7//1,2,3,16;
 1/5=1,11=1,14=-1,18=20,26=3/3(-5);
 2/9=110/2;
 6/7=2,8=2,9=2,10=2,19=2,28=1/1;
 99/9=1/99;
 ------------
 CTS1ab_guess
 ------------
 Symbolic Z-matrix:
 Charge =  0 Multiplicity = 2
 C                    -0.96369   1.06083  -0.20395 
 C                    -0.53233  -0.37679  -0.0377 
 C                    -1.77137  -1.0514    0.16522 
 C                    -2.3748    1.11333  -0.07648 
 C                    -2.85939  -0.16286   0.1609 
 C                    -3.21202   2.21629  -0.21055 
 C                    -4.61583   1.92214  -0.05957 
 C                    -5.08585   0.63969   0.17167 
 C                    -4.1948   -0.48621   0.27824 
 C                    -2.03272  -2.41673   0.272 
 C                    -3.41805  -2.80824   0.43632 
 C                    -4.45069  -1.89931   0.44426 
 C                    -0.39926   2.26618  -0.49522 
 C                    -1.16268   3.44907  -0.62911 
 C                    -2.54822   3.44107  -0.49935 
 C                     0.65618  -1.17145  -0.11135 
 C                     0.36911  -2.62335  -0.09166 
 C                    -0.89854  -3.20312   0.11453 
 C                     2.09777  -0.77275  -0.17331 
 C                     3.04813  -1.82273  -0.34584 
 C                     2.67749  -3.19215  -0.49672 
 C                     1.4014   -3.57855  -0.332 
 C                     2.69455   0.56698   0.02532 
 C                     4.12432   0.69404   0.22551 
 C                     4.98429  -0.41789   0.03676 
 C                     4.45811  -1.61607  -0.29414 
 C                     4.72631   1.92755   0.57368 
 C                     3.99975   3.08517   0.68716 
 C                     2.63186   3.02316   0.38222 
 C                     2.05289   1.82274   0.05552 
 H                    -0.66005   4.38413  -0.8524 
 H                    -3.10605   4.36351  -0.62399 
 H                    -5.33367   2.73188  -0.14206 
 H                    -6.15609   0.48451   0.26154 
 H                    -5.4695   -2.25494   0.55793 
 H                    -3.64469  -3.86436   0.54025 
 H                    -0.96328  -4.28613   0.11435 
 H                     1.127    -4.62619  -0.37689 
 H                     3.46146  -3.91755  -0.67981 
 H                     5.09898  -2.47357  -0.46407 
 H                     6.0542   -0.28101   0.14844 
 H                     5.79842   1.93295   0.73774 
 H                     4.46963   4.02249   0.96221 
 H                     2.02731   3.92447   0.37795 
 H                     0.88475   2.08795  -0.39529 
 

 GradGradGradGradGradGradGradGradGradGradGradGradGradGradGradGradGradGrad
 Berny optimization.
 Initialization pass.
                           ----------------------------
                           !    Initial Parameters    !
                           ! (Angstroms and Degrees)  !
 --------------------------                            --------------------------
 ! Name  Definition              Value          Derivative Info.                !
 --------------------------------------------------------------------------------
 ! R1    R(1,2)                  1.5101         calculate D2E/DX2 analytically  !
 ! R2    R(1,4)                  1.4178         calculate D2E/DX2 analytically  !
 ! R3    R(1,13)                 1.3625         calculate D2E/DX2 analytically  !
 ! R4    R(2,3)                  1.4253         calculate D2E/DX2 analytically  !
 ! R5    R(2,16)                 1.4316         calculate D2E/DX2 analytically  !
 ! R6    R(3,5)                  1.4047         calculate D2E/DX2 analytically  !
 ! R7    R(3,10)                 1.3942         calculate D2E/DX2 analytically  !
 ! R8    R(4,5)                  1.3856         calculate D2E/DX2 analytically  !
 ! R9    R(4,6)                  1.3912         calculate D2E/DX2 analytically  !
 ! R10   R(5,9)                  1.379          calculate D2E/DX2 analytically  !
 ! R11   R(6,7)                  1.4422         calculate D2E/DX2 analytically  !
 ! R12   R(6,15)                 1.4227         calculate D2E/DX2 analytically  !
 ! R13   R(7,8)                  1.3853         calculate D2E/DX2 analytically  !
 ! R14   R(7,33)                 1.0853         calculate D2E/DX2 analytically  !
 ! R15   R(8,9)                  1.4398         calculate D2E/DX2 analytically  !
 ! R16   R(8,34)                 1.0852         calculate D2E/DX2 analytically  !
 ! R17   R(9,12)                 1.4456         calculate D2E/DX2 analytically  !
 ! R18   R(10,11)                1.4489         calculate D2E/DX2 analytically  !
 ! R19   R(10,18)                1.3891         calculate D2E/DX2 analytically  !
 ! R20   R(11,12)                1.3757         calculate D2E/DX2 analytically  !
 ! R21   R(11,36)                1.0852         calculate D2E/DX2 analytically  !
 ! R22   R(12,35)                1.0851         calculate D2E/DX2 analytically  !
 ! R23   R(13,14)                1.4142         calculate D2E/DX2 analytically  !
 ! R24   R(13,45)                1.3002         calculate D2E/DX2 analytically  !
 ! R25   R(14,15)                1.3916         calculate D2E/DX2 analytically  !
 ! R26   R(14,31)                1.0848         calculate D2E/DX2 analytically  !
 ! R27   R(15,32)                1.0852         calculate D2E/DX2 analytically  !
 ! R28   R(16,17)                1.4801         calculate D2E/DX2 analytically  !
 ! R29   R(16,19)                1.497          calculate D2E/DX2 analytically  !
 ! R30   R(17,18)                1.4091         calculate D2E/DX2 analytically  !
 ! R31   R(17,22)                1.4268         calculate D2E/DX2 analytically  !
 ! R32   R(18,37)                1.0849         calculate D2E/DX2 analytically  !
 ! R33   R(19,20)                1.4267         calculate D2E/DX2 analytically  !
 ! R34   R(19,23)                1.48           calculate D2E/DX2 analytically  !
 ! R35   R(20,21)                1.4267         calculate D2E/DX2 analytically  !
 ! R36   R(20,26)                1.426          calculate D2E/DX2 analytically  !
 ! R37   R(21,22)                1.3434         calculate D2E/DX2 analytically  !
 ! R38   R(21,39)                1.0837         calculate D2E/DX2 analytically  !
 ! R39   R(22,38)                1.0839         calculate D2E/DX2 analytically  !
 ! R40   R(23,24)                1.4493         calculate D2E/DX2 analytically  !
 ! R41   R(23,30)                1.4105         calculate D2E/DX2 analytically  !
 ! R42   R(24,25)                1.4183         calculate D2E/DX2 analytically  !
 ! R43   R(24,27)                1.416          calculate D2E/DX2 analytically  !
 ! R44   R(25,26)                1.3498         calculate D2E/DX2 analytically  !
 ! R45   R(25,41)                1.0844         calculate D2E/DX2 analytically  !
 ! R46   R(26,40)                1.0839         calculate D2E/DX2 analytically  !
 ! R47   R(27,28)                1.3714         calculate D2E/DX2 analytically  !
 ! R48   R(27,42)                1.0846         calculate D2E/DX2 analytically  !
 ! R49   R(28,29)                1.4028         calculate D2E/DX2 analytically  !
 ! R50   R(28,43)                1.084          calculate D2E/DX2 analytically  !
 ! R51   R(29,30)                1.3722         calculate D2E/DX2 analytically  !
 ! R52   R(29,44)                1.0853         calculate D2E/DX2 analytically  !
 ! R53   R(30,45)                1.2799         calculate D2E/DX2 analytically  !
 ! A1    A(2,1,4)              108.0379         calculate D2E/DX2 analytically  !
 ! A2    A(2,1,13)             138.367          calculate D2E/DX2 analytically  !
 ! A3    A(4,1,13)             113.5015         calculate D2E/DX2 analytically  !
 ! A4    A(1,2,3)              102.5882         calculate D2E/DX2 analytically  !
 ! A5    A(1,2,16)             139.4569         calculate D2E/DX2 analytically  !
 ! A6    A(3,2,16)             117.7945         calculate D2E/DX2 analytically  !
 ! A7    A(2,3,5)              111.9312         calculate D2E/DX2 analytically  !
 ! A8    A(2,3,10)             129.5955         calculate D2E/DX2 analytically  !
 ! A9    A(5,3,10)             118.3249         calculate D2E/DX2 analytically  !
 ! A10   A(1,4,5)              109.231          calculate D2E/DX2 analytically  !
 ! A11   A(1,4,6)              128.2898         calculate D2E/DX2 analytically  !
 ! A12   A(5,4,6)              122.4293         calculate D2E/DX2 analytically  !
 ! A13   A(3,5,4)              108.1939         calculate D2E/DX2 analytically  !
 ! A14   A(3,5,9)              126.9753         calculate D2E/DX2 analytically  !
 ! A15   A(4,5,9)              124.6965         calculate D2E/DX2 analytically  !
 ! A16   A(4,6,7)              114.4552         calculate D2E/DX2 analytically  !
 ! A17   A(4,6,15)             114.9162         calculate D2E/DX2 analytically  !
 ! A18   A(7,6,15)             130.6153         calculate D2E/DX2 analytically  !
 ! A19   A(6,7,8)              122.4485         calculate D2E/DX2 analytically  !
 ! A20   A(6,7,33)             118.9271         calculate D2E/DX2 analytically  !
 ! A21   A(8,7,33)             118.6199         calculate D2E/DX2 analytically  !
 ! A22   A(7,8,9)              121.7564         calculate D2E/DX2 analytically  !
 ! A23   A(7,8,34)             118.7399         calculate D2E/DX2 analytically  !
 ! A24   A(9,8,34)             119.4993         calculate D2E/DX2 analytically  !
 ! A25   A(5,9,8)              114.1831         calculate D2E/DX2 analytically  !
 ! A26   A(5,9,12)             114.2291         calculate D2E/DX2 analytically  !
 ! A27   A(8,9,12)             131.5552         calculate D2E/DX2 analytically  !
 ! A28   A(3,10,11)            116.9053         calculate D2E/DX2 analytically  !
 ! A29   A(3,10,18)            113.1198         calculate D2E/DX2 analytically  !
 ! A30   A(11,10,18)           129.8318         calculate D2E/DX2 analytically  !
 ! A31   A(10,11,12)           122.6703         calculate D2E/DX2 analytically  !
 ! A32   A(10,11,36)           118.2633         calculate D2E/DX2 analytically  !
 ! A33   A(12,11,36)           119.0583         calculate D2E/DX2 analytically  !
 ! A34   A(9,12,11)            120.817          calculate D2E/DX2 analytically  !
 ! A35   A(9,12,35)            119.9075         calculate D2E/DX2 analytically  !
 ! A36   A(11,12,35)           119.2652         calculate D2E/DX2 analytically  !
 ! A37   A(1,13,14)            122.4519         calculate D2E/DX2 analytically  !
 ! A38   A(1,13,45)            105.7487         calculate D2E/DX2 analytically  !
 ! A39   A(14,13,45)           130.9237         calculate D2E/DX2 analytically  !
 ! A40   A(13,14,15)           121.5893         calculate D2E/DX2 analytically  !
 ! A41   A(13,14,31)           119.3627         calculate D2E/DX2 analytically  !
 ! A42   A(15,14,31)           119.0421         calculate D2E/DX2 analytically  !
 ! A43   A(6,15,14)            119.236          calculate D2E/DX2 analytically  !
 ! A44   A(6,15,32)            121.0143         calculate D2E/DX2 analytically  !
 ! A45   A(14,15,32)           119.749          calculate D2E/DX2 analytically  !
 ! A46   A(2,16,17)            112.507          calculate D2E/DX2 analytically  !
 ! A47   A(2,16,19)            130.8262         calculate D2E/DX2 analytically  !
 ! A48   A(17,16,19)           116.6522         calculate D2E/DX2 analytically  !
 ! A49   A(16,17,18)           125.4519         calculate D2E/DX2 analytically  !
 ! A50   A(16,17,22)           120.9394         calculate D2E/DX2 analytically  !
 ! A51   A(18,17,22)           113.5822         calculate D2E/DX2 analytically  !
 ! A52   A(10,18,17)           121.2107         calculate D2E/DX2 analytically  !
 ! A53   A(10,18,37)           121.0916         calculate D2E/DX2 analytically  !
 ! A54   A(17,18,37)           117.6694         calculate D2E/DX2 analytically  !
 ! A55   A(16,19,20)           116.7742         calculate D2E/DX2 analytically  !
 ! A56   A(16,19,23)           128.5966         calculate D2E/DX2 analytically  !
 ! A57   A(20,19,23)           114.4455         calculate D2E/DX2 analytically  !
 ! A58   A(19,20,21)           123.1034         calculate D2E/DX2 analytically  !
 ! A59   A(19,20,26)           123.2036         calculate D2E/DX2 analytically  !
 ! A60   A(21,20,26)           113.5667         calculate D2E/DX2 analytically  !
 ! A61   A(20,21,22)           120.6553         calculate D2E/DX2 analytically  !
 ! A62   A(20,21,39)           118.1932         calculate D2E/DX2 analytically  !
 ! A63   A(22,21,39)           121.0213         calculate D2E/DX2 analytically  !
 ! A64   A(17,22,21)           121.0191         calculate D2E/DX2 analytically  !
 ! A65   A(17,22,38)           118.0915         calculate D2E/DX2 analytically  !
 ! A66   A(21,22,38)           120.8894         calculate D2E/DX2 analytically  !
 ! A67   A(19,23,24)           119.7151         calculate D2E/DX2 analytically  !
 ! A68   A(19,23,30)           128.7065         calculate D2E/DX2 analytically  !
 ! A69   A(24,23,30)           111.5783         calculate D2E/DX2 analytically  !
 ! A70   A(23,24,25)           120.7342         calculate D2E/DX2 analytically  !
 ! A71   A(23,24,27)           121.987          calculate D2E/DX2 analytically  !
 ! A72   A(25,24,27)           117.2508         calculate D2E/DX2 analytically  !
 ! A73   A(24,25,26)           119.4841         calculate D2E/DX2 analytically  !
 ! A74   A(24,25,41)           119.0501         calculate D2E/DX2 analytically  !
 ! A75   A(26,25,41)           121.46           calculate D2E/DX2 analytically  !
 ! A76   A(20,26,25)           121.532          calculate D2E/DX2 analytically  !
 ! A77   A(20,26,40)           117.6636         calculate D2E/DX2 analytically  !
 ! A78   A(25,26,40)           120.6764         calculate D2E/DX2 analytically  !
 ! A79   A(24,27,28)           122.0332         calculate D2E/DX2 analytically  !
 ! A80   A(24,27,42)           117.5004         calculate D2E/DX2 analytically  !
 ! A81   A(28,27,42)           120.4614         calculate D2E/DX2 analytically  !
 ! A82   A(27,28,29)           117.4699         calculate D2E/DX2 analytically  !
 ! A83   A(27,28,43)           121.4153         calculate D2E/DX2 analytically  !
 ! A84   A(29,28,43)           121.0682         calculate D2E/DX2 analytically  !
 ! A85   A(28,29,30)           120.1217         calculate D2E/DX2 analytically  !
 ! A86   A(28,29,44)           120.4846         calculate D2E/DX2 analytically  !
 ! A87   A(30,29,44)           119.3763         calculate D2E/DX2 analytically  !
 ! A88   A(23,30,29)           126.2981         calculate D2E/DX2 analytically  !
 ! A89   A(23,30,45)           126.3081         calculate D2E/DX2 analytically  !
 ! A90   A(29,30,45)           106.7188         calculate D2E/DX2 analytically  !
 ! A91   A(13,45,30)           163.102          calculate D2E/DX2 analytically  !
 ! D1    D(4,1,2,3)              0.5295         calculate D2E/DX2 analytically  !
 ! D2    D(4,1,2,16)           175.4682         calculate D2E/DX2 analytically  !
 ! D3    D(13,1,2,3)          -175.5225         calculate D2E/DX2 analytically  !
 ! D4    D(13,1,2,16)           -0.5838         calculate D2E/DX2 analytically  !
 ! D5    D(2,1,4,5)              0.2923         calculate D2E/DX2 analytically  !
 ! D6    D(2,1,4,6)           -177.1566         calculate D2E/DX2 analytically  !
 ! D7    D(13,1,4,5)           177.4332         calculate D2E/DX2 analytically  !
 ! D8    D(13,1,4,6)            -0.0157         calculate D2E/DX2 analytically  !
 ! D9    D(2,1,13,14)          177.0015         calculate D2E/DX2 analytically  !
 ! D10   D(2,1,13,45)          -12.6397         calculate D2E/DX2 analytically  !
 ! D11   D(4,1,13,14)            1.0953         calculate D2E/DX2 analytically  !
 ! D12   D(4,1,13,45)          171.4541         calculate D2E/DX2 analytically  !
 ! D13   D(1,2,3,5)             -1.1823         calculate D2E/DX2 analytically  !
 ! D14   D(1,2,3,10)           174.2422         calculate D2E/DX2 analytically  !
 ! D15   D(16,2,3,5)          -177.4655         calculate D2E/DX2 analytically  !
 ! D16   D(16,2,3,10)           -2.041          calculate D2E/DX2 analytically  !
 ! D17   D(1,2,16,17)         -168.7635         calculate D2E/DX2 analytically  !
 ! D18   D(1,2,16,19)           12.698          calculate D2E/DX2 analytically  !
 ! D19   D(3,2,16,17)            5.6511         calculate D2E/DX2 analytically  !
 ! D20   D(3,2,16,19)         -172.8874         calculate D2E/DX2 analytically  !
 ! D21   D(2,3,5,4)              1.4303         calculate D2E/DX2 analytically  !
 ! D22   D(2,3,5,9)            177.3474         calculate D2E/DX2 analytically  !
 ! D23   D(10,3,5,4)          -174.5654         calculate D2E/DX2 analytically  !
 ! D24   D(10,3,5,9)             1.3516         calculate D2E/DX2 analytically  !
 ! D25   D(2,3,10,11)         -178.0871         calculate D2E/DX2 analytically  !
 ! D26   D(2,3,10,18)           -2.0049         calculate D2E/DX2 analytically  !
 ! D27   D(5,3,10,11)           -2.9093         calculate D2E/DX2 analytically  !
 ! D28   D(5,3,10,18)          173.1728         calculate D2E/DX2 analytically  !
 ! D29   D(1,4,5,3)             -1.0255         calculate D2E/DX2 analytically  !
 ! D30   D(1,4,5,9)           -177.0584         calculate D2E/DX2 analytically  !
 ! D31   D(6,4,5,3)            176.6023         calculate D2E/DX2 analytically  !
 ! D32   D(6,4,5,9)              0.5694         calculate D2E/DX2 analytically  !
 ! D33   D(1,4,6,7)            178.1408         calculate D2E/DX2 analytically  !
 ! D34   D(1,4,6,15)            -0.6777         calculate D2E/DX2 analytically  !
 ! D35   D(5,4,6,7)              0.9948         calculate D2E/DX2 analytically  !
 ! D36   D(5,4,6,15)          -177.8237         calculate D2E/DX2 analytically  !
 ! D37   D(3,5,9,8)           -177.0286         calculate D2E/DX2 analytically  !
 ! D38   D(3,5,9,12)             1.138          calculate D2E/DX2 analytically  !
 ! D39   D(4,5,9,8)             -1.7477         calculate D2E/DX2 analytically  !
 ! D40   D(4,5,9,12)           176.4189         calculate D2E/DX2 analytically  !
 ! D41   D(4,6,7,8)             -1.2941         calculate D2E/DX2 analytically  !
 ! D42   D(4,6,7,33)           179.4885         calculate D2E/DX2 analytically  !
 ! D43   D(15,6,7,8)           177.2942         calculate D2E/DX2 analytically  !
 ! D44   D(15,6,7,33)           -1.9231         calculate D2E/DX2 analytically  !
 ! D45   D(4,6,15,14)            0.3045         calculate D2E/DX2 analytically  !
 ! D46   D(4,6,15,32)          179.9993         calculate D2E/DX2 analytically  !
 ! D47   D(7,6,15,14)         -178.2786         calculate D2E/DX2 analytically  !
 ! D48   D(7,6,15,32)            1.4161         calculate D2E/DX2 analytically  !
 ! D49   D(6,7,8,9)              0.096          calculate D2E/DX2 analytically  !
 ! D50   D(6,7,8,34)          -179.1278         calculate D2E/DX2 analytically  !
 ! D51   D(33,7,8,9)           179.3156         calculate D2E/DX2 analytically  !
 ! D52   D(33,7,8,34)            0.0919         calculate D2E/DX2 analytically  !
 ! D53   D(7,8,9,5)              1.3914         calculate D2E/DX2 analytically  !
 ! D54   D(7,8,9,12)          -176.3743         calculate D2E/DX2 analytically  !
 ! D55   D(34,8,9,5)          -179.3906         calculate D2E/DX2 analytically  !
 ! D56   D(34,8,9,12)            2.8437         calculate D2E/DX2 analytically  !
 ! D57   D(5,9,12,11)           -1.9413         calculate D2E/DX2 analytically  !
 ! D58   D(5,9,12,35)          179.2396         calculate D2E/DX2 analytically  !
 ! D59   D(8,9,12,11)          175.8236         calculate D2E/DX2 analytically  !
 ! D60   D(8,9,12,35)           -2.9955         calculate D2E/DX2 analytically  !
 ! D61   D(3,10,11,12)           2.1669         calculate D2E/DX2 analytically  !
 ! D62   D(3,10,11,36)        -178.8786         calculate D2E/DX2 analytically  !
 ! D63   D(18,10,11,12)       -173.1394         calculate D2E/DX2 analytically  !
 ! D64   D(18,10,11,36)          5.8151         calculate D2E/DX2 analytically  !
 ! D65   D(3,10,18,17)           1.6998         calculate D2E/DX2 analytically  !
 ! D66   D(3,10,18,37)        -176.3184         calculate D2E/DX2 analytically  !
 ! D67   D(11,10,18,17)        177.149          calculate D2E/DX2 analytically  !
 ! D68   D(11,10,18,37)         -0.8692         calculate D2E/DX2 analytically  !
 ! D69   D(10,11,12,9)           0.3553         calculate D2E/DX2 analytically  !
 ! D70   D(10,11,12,35)        179.1818         calculate D2E/DX2 analytically  !
 ! D71   D(36,11,12,9)        -178.5914         calculate D2E/DX2 analytically  !
 ! D72   D(36,11,12,35)          0.2352         calculate D2E/DX2 analytically  !
 ! D73   D(1,13,14,15)          -1.4899         calculate D2E/DX2 analytically  !
 ! D74   D(1,13,14,31)         179.4001         calculate D2E/DX2 analytically  !
 ! D75   D(45,13,14,15)       -169.1722         calculate D2E/DX2 analytically  !
 ! D76   D(45,13,14,31)         11.7178         calculate D2E/DX2 analytically  !
 ! D77   D(1,13,45,30)         -59.9201         calculate D2E/DX2 analytically  !
 ! D78   D(14,13,45,30)        109.2998         calculate D2E/DX2 analytically  !
 ! D79   D(13,14,15,6)           0.6986         calculate D2E/DX2 analytically  !
 ! D80   D(13,14,15,32)       -179.0001         calculate D2E/DX2 analytically  !
 ! D81   D(31,14,15,6)         179.8113         calculate D2E/DX2 analytically  !
 ! D82   D(31,14,15,32)          0.1127         calculate D2E/DX2 analytically  !
 ! D83   D(2,16,17,18)          -6.2889         calculate D2E/DX2 analytically  !
 ! D84   D(2,16,17,22)         171.7157         calculate D2E/DX2 analytically  !
 ! D85   D(19,16,17,18)        172.4738         calculate D2E/DX2 analytically  !
 ! D86   D(19,16,17,22)         -9.5217         calculate D2E/DX2 analytically  !
 ! D87   D(2,16,19,20)        -175.264          calculate D2E/DX2 analytically  !
 ! D88   D(2,16,19,23)           9.977          calculate D2E/DX2 analytically  !
 ! D89   D(17,16,19,20)          6.2467         calculate D2E/DX2 analytically  !
 ! D90   D(17,16,19,23)       -168.5123         calculate D2E/DX2 analytically  !
 ! D91   D(16,17,18,10)          2.5525         calculate D2E/DX2 analytically  !
 ! D92   D(16,17,18,37)       -179.3637         calculate D2E/DX2 analytically  !
 ! D93   D(22,17,18,10)       -175.5801         calculate D2E/DX2 analytically  !
 ! D94   D(22,17,18,37)          2.5037         calculate D2E/DX2 analytically  !
 ! D95   D(16,17,22,21)          4.3571         calculate D2E/DX2 analytically  !
 ! D96   D(16,17,22,38)       -175.7118         calculate D2E/DX2 analytically  !
 ! D97   D(18,17,22,21)       -177.4165         calculate D2E/DX2 analytically  !
 ! D98   D(18,17,22,38)          2.5147         calculate D2E/DX2 analytically  !
 ! D99   D(16,19,20,21)          1.891          calculate D2E/DX2 analytically  !
 ! D100  D(16,19,20,26)       -173.7588         calculate D2E/DX2 analytically  !
 ! D101  D(23,19,20,21)        177.3932         calculate D2E/DX2 analytically  !
 ! D102  D(23,19,20,26)          1.7434         calculate D2E/DX2 analytically  !
 ! D103  D(16,19,23,24)        165.9311         calculate D2E/DX2 analytically  !
 ! D104  D(16,19,23,30)        -13.9333         calculate D2E/DX2 analytically  !
 ! D105  D(20,19,23,24)         -8.9293         calculate D2E/DX2 analytically  !
 ! D106  D(20,19,23,30)        171.2063         calculate D2E/DX2 analytically  !
 ! D107  D(19,20,21,22)         -7.5601         calculate D2E/DX2 analytically  !
 ! D108  D(19,20,21,39)        176.5463         calculate D2E/DX2 analytically  !
 ! D109  D(26,20,21,22)        168.4693         calculate D2E/DX2 analytically  !
 ! D110  D(26,20,21,39)         -7.4242         calculate D2E/DX2 analytically  !
 ! D111  D(19,20,26,25)          5.7062         calculate D2E/DX2 analytically  !
 ! D112  D(19,20,26,40)       -178.3816         calculate D2E/DX2 analytically  !
 ! D113  D(21,20,26,25)       -170.3187         calculate D2E/DX2 analytically  !
 ! D114  D(21,20,26,40)          5.5936         calculate D2E/DX2 analytically  !
 ! D115  D(20,21,22,17)          4.2579         calculate D2E/DX2 analytically  !
 ! D116  D(20,21,22,38)       -175.6713         calculate D2E/DX2 analytically  !
 ! D117  D(39,21,22,17)       -179.9656         calculate D2E/DX2 analytically  !
 ! D118  D(39,21,22,38)          0.1052         calculate D2E/DX2 analytically  !
 ! D119  D(19,23,24,25)          9.4591         calculate D2E/DX2 analytically  !
 ! D120  D(19,23,24,27)       -172.5189         calculate D2E/DX2 analytically  !
 ! D121  D(30,23,24,25)       -170.6547         calculate D2E/DX2 analytically  !
 ! D122  D(30,23,24,27)          7.3673         calculate D2E/DX2 analytically  !
 ! D123  D(19,23,30,29)        172.6636         calculate D2E/DX2 analytically  !
 ! D124  D(19,23,30,45)        -18.0228         calculate D2E/DX2 analytically  !
 ! D125  D(24,23,30,29)         -7.2098         calculate D2E/DX2 analytically  !
 ! D126  D(24,23,30,45)        162.1038         calculate D2E/DX2 analytically  !
 ! D127  D(23,24,25,26)         -1.9851         calculate D2E/DX2 analytically  !
 ! D128  D(23,24,25,41)        177.1509         calculate D2E/DX2 analytically  !
 ! D129  D(27,24,25,26)        179.902          calculate D2E/DX2 analytically  !
 ! D130  D(27,24,25,41)         -0.962          calculate D2E/DX2 analytically  !
 ! D131  D(23,24,27,28)         -2.7765         calculate D2E/DX2 analytically  !
 ! D132  D(23,24,27,42)        178.0343         calculate D2E/DX2 analytically  !
 ! D133  D(25,24,27,28)        175.3111         calculate D2E/DX2 analytically  !
 ! D134  D(25,24,27,42)         -3.8781         calculate D2E/DX2 analytically  !
 ! D135  D(24,25,26,20)         -5.545          calculate D2E/DX2 analytically  !
 ! D136  D(24,25,26,40)        178.6647         calculate D2E/DX2 analytically  !
 ! D137  D(41,25,26,20)        175.3405         calculate D2E/DX2 analytically  !
 ! D138  D(41,25,26,40)         -0.4498         calculate D2E/DX2 analytically  !
 ! D139  D(24,27,28,29)         -2.9659         calculate D2E/DX2 analytically  !
 ! D140  D(24,27,28,43)        179.4949         calculate D2E/DX2 analytically  !
 ! D141  D(42,27,28,29)        176.1998         calculate D2E/DX2 analytically  !
 ! D142  D(42,27,28,43)         -1.3395         calculate D2E/DX2 analytically  !
 ! D143  D(27,28,29,30)          3.4114         calculate D2E/DX2 analytically  !
 ! D144  D(27,28,29,44)       -175.0628         calculate D2E/DX2 analytically  !
 ! D145  D(43,28,29,30)       -179.0404         calculate D2E/DX2 analytically  !
 ! D146  D(43,28,29,44)          2.4854         calculate D2E/DX2 analytically  !
 ! D147  D(28,29,30,23)          2.0918         calculate D2E/DX2 analytically  !
 ! D148  D(28,29,30,45)       -168.9318         calculate D2E/DX2 analytically  !
 ! D149  D(44,29,30,23)       -179.4171         calculate D2E/DX2 analytically  !
 ! D150  D(44,29,30,45)          9.5593         calculate D2E/DX2 analytically  !
 ! D151  D(23,30,45,13)         90.7562         calculate D2E/DX2 analytically  !
 ! D152  D(29,30,45,13)        -98.2213         calculate D2E/DX2 analytically  !
 --------------------------------------------------------------------------------
 Trust Radius=3.00D-01 FncErr=1.00D-07 GrdErr=1.00D-06
 Number of steps in this run=    270 maximum allowed number of steps=    270.
 Search for a saddle point of order  1.
 GradGradGradGradGradGradGradGradGradGradGradGradGradGradGradGradGradGrad

                          Input orientation:                          
 ---------------------------------------------------------------------
 Center     Atomic      Atomic             Coordinates (Angstroms)
 Number     Number       Type             X           Y           Z
 ---------------------------------------------------------------------
      1          6           0       -0.963690    1.060830   -0.203950
      2          6           0       -0.532330   -0.376790   -0.037700
      3          6           0       -1.771370   -1.051400    0.165220
      4          6           0       -2.374800    1.113330   -0.076480
      5          6           0       -2.859390   -0.162860    0.160900
      6          6           0       -3.212020    2.216290   -0.210550
      7          6           0       -4.615830    1.922140   -0.059570
      8          6           0       -5.085850    0.639690    0.171670
      9          6           0       -4.194800   -0.486210    0.278240
     10          6           0       -2.032720   -2.416730    0.272000
     11          6           0       -3.418050   -2.808240    0.436320
     12          6           0       -4.450690   -1.899310    0.444260
     13          6           0       -0.399260    2.266180   -0.495220
     14          6           0       -1.162680    3.449070   -0.629110
     15          6           0       -2.548220    3.441070   -0.499350
     16          6           0        0.656180   -1.171450   -0.111350
     17          6           0        0.369110   -2.623350   -0.091660
     18          6           0       -0.898540   -3.203120    0.114530
     19          6           0        2.097770   -0.772750   -0.173310
     20          6           0        3.048130   -1.822730   -0.345840
     21          6           0        2.677490   -3.192150   -0.496720
     22          6           0        1.401400   -3.578550   -0.332000
     23          6           0        2.694550    0.566980    0.025320
     24          6           0        4.124320    0.694040    0.225510
     25          6           0        4.984290   -0.417890    0.036760
     26          6           0        4.458110   -1.616070   -0.294140
     27          6           0        4.726310    1.927550    0.573680
     28          6           0        3.999750    3.085170    0.687160
     29          6           0        2.631860    3.023160    0.382220
     30          6           0        2.052890    1.822740    0.055520
     31          1           0       -0.660050    4.384130   -0.852400
     32          1           0       -3.106050    4.363510   -0.623990
     33          1           0       -5.333670    2.731880   -0.142060
     34          1           0       -6.156090    0.484510    0.261540
     35          1           0       -5.469500   -2.254940    0.557930
     36          1           0       -3.644690   -3.864360    0.540250
     37          1           0       -0.963280   -4.286130    0.114350
     38          1           0        1.127000   -4.626190   -0.376890
     39          1           0        3.461460   -3.917550   -0.679810
     40          1           0        5.098980   -2.473570   -0.464070
     41          1           0        6.054200   -0.281010    0.148440
     42          1           0        5.798420    1.932950    0.737740
     43          1           0        4.469630    4.022490    0.962210
     44          1           0        2.027310    3.924470    0.377950
     45          1           0        0.884750    2.087950   -0.395290
 ---------------------------------------------------------------------
                    Distance matrix (angstroms):
                    1          2          3          4          5
     1  C    0.000000
     2  C    1.510120   0.000000
     3  C    2.291320   1.425305   0.000000
     4  C    1.417828   2.369949   2.260222   0.000000
     5  C    2.285653   2.345297   1.404745   1.385582   0.000000
     6  C    2.527869   3.732918   3.590888   1.391198   2.433655
     7  C    3.755107   4.686206   4.121095   2.382577   2.735126
     8  C    4.160607   4.670290   3.720968   2.763278   2.366712
     9  C    3.614680   3.677700   2.491029   2.448827   1.379001
    10  C    3.669166   2.551164   1.394214   3.563675   2.403260
    11  C    4.626395   3.803160   2.423125   4.090238   2.717718
    12  C    4.619716   4.231300   2.824105   3.695469   2.372296
    13  C    1.362457   2.685577   3.650370   2.325331   3.518944
    14  C    2.433937   3.922284   4.610390   2.688925   4.068044
    15  C    2.874637   4.342003   4.607324   2.372186   3.677101
    16  C    2.759643   1.431595   2.446202   3.795823   3.667507
    17  C    3.919458   2.421268   2.668083   4.635952   4.067064
    18  C    4.276324   2.854019   2.322563   4.565914   3.618047
    19  C    3.568682   2.663194   3.893905   4.854952   5.005706
    20  C    4.942646   3.873679   4.907516   6.172615   6.157170
    21  C    5.606402   4.294170   4.981298   6.651270   6.345558
    22  C    5.209020   3.751958   4.086586   6.028160   5.483085
    23  C    3.698537   3.362652   4.752175   5.099723   5.603329
    24  C    5.119259   4.785431   6.148931   6.519629   7.036381
    25  C    6.133761   5.517276   6.786514   7.517557   7.848807
    26  C    6.047300   5.148404   6.271865   7.361091   7.474268
    27  C    5.807927   5.773826   7.159667   7.177146   7.879280
    28  C    5.433946   5.748942   7.119653   6.716114   7.607526
    29  C    4.137912   4.663485   6.003129   5.378150   6.352443
    30  C    3.122112   3.395583   4.785152   4.486104   5.299453
    31  H    3.399560   4.831812   5.640529   3.773666   5.151601
    32  H    3.959019   5.425699   5.632537   3.376117   4.600535
    33  H    4.678992   5.720803   5.205536   3.373265   3.820126
    34  H    5.244983   5.697197   4.646942   3.848094   3.361168
    35  H    5.645982   5.315813   3.908823   4.617888   3.368547
    36  H    5.656774   4.709985   3.400400   5.174009   3.802855
    37  H    5.356426   3.935959   3.334528   5.584172   4.538585
    38  H    6.061608   4.574476   4.633957   6.730152   6.008481
    39  H    6.677774   5.375839   6.025894   7.728887   7.399840
    40  H    7.022508   6.024112   7.044167   8.299004   8.310573
    41  H    7.153705   6.589856   7.863417   8.546509   8.914382
    42  H    6.882841   6.783406   8.156951   8.254469   8.926524
    43  H    6.297009   6.735955   8.082675   7.509215   8.477841
    44  H    4.181522   5.022485   6.263745   5.242861   6.374419
    45  H    2.123280   2.865472   4.150261   3.417044   4.403871
                    6          7          8          9         10
     6  C    0.000000
     7  C    1.442221   0.000000
     8  C    2.478507   1.385305   0.000000
     9  C    2.916895   2.468103   1.439784   0.000000
    10  C    4.805047   5.060453   4.321270   2.898540   0.000000
    11  C    5.070186   4.904802   3.839247   2.453600   1.448938
    12  C    4.347556   3.858056   2.631398   1.445647   2.478704
    13  C    2.827569   4.252954   5.005431   4.751843   5.018612
    14  C    2.427907   3.818394   4.891332   5.050095   5.998048
    15  C    1.422716   2.602992   3.838953   4.328903   5.930813
    16  C    5.142917   6.112861   6.027540   4.914605   2.987953
    17  C    6.021689   6.746268   6.361868   5.053065   2.437976
    18  C    5.901514   6.333786   5.683662   4.274778   1.389090
    19  C    6.093408   7.235178   7.329283   6.315255   4.467876
    20  C    7.451273   8.534769   8.514280   7.391603   5.152630
    21  C    8.001215   8.918496   8.683271   7.426375   4.835110
    22  C    7.408007   8.157136   7.754460   6.422804   3.675299
    23  C    6.137054   7.435410   7.782116   6.973975   5.595575
    24  C    7.505283   8.830613   9.210488   8.402591   6.898420
    25  C    8.612756   9.881666  10.126421   9.182520   7.299940
    26  C    8.574664   9.742194   9.817974   8.745116   6.564484
    27  C    7.982197   9.363579   9.904478   9.246606   8.040415
    28  C    7.319185   8.725736   9.423069   8.948331   8.175204
    29  C    5.929026   7.344143   8.080118   7.676573   7.166789
    30  C    5.286299   6.670454   7.237037   6.664419   5.891704
    31  H    3.409406   4.726327   5.887041   6.123154   7.028527
    32  H    2.189227   2.925456   4.291797   5.051651   6.922896
    33  H    2.184473   1.085255   2.130047   3.439445   6.129919
    34  H    3.448112   2.131265   1.085159   2.188432   5.041774
    35  H    5.067413   4.307906   2.945381   2.198066   3.452447
    36  H    6.142085   5.898006   4.743338   3.432662   2.183126
    37  H    6.887950   7.205136   6.423595   4.990889   2.159447
    38  H    8.103968   8.715585   8.162715   6.774229   3.909808
    39  H    9.076317   9.986455   9.723681   8.444541   5.774462
    40  H    9.546297  10.670680  10.668988   9.532836   7.169810
    41  H    9.603552  10.897095  11.178056  10.251876   8.365097
    42  H    9.064633  10.444732  10.975440  10.292129   8.970138
    43  H    7.977811   9.380890  10.167374   9.791248   9.177173
    44  H    5.542093   6.952126   7.837689   7.627496   7.530331
    45  H    4.102941   5.513309   6.169843   5.734263   5.408239
                   11         12         13         14         15
    11  C    0.000000
    12  C    1.375704   0.000000
    13  C    5.977508   5.886256   0.000000
    14  C    6.736153   6.369325   1.414201   0.000000
    15  C    6.378555   5.747125   2.449166   1.391626   0.000000
    16  C    4.424746   5.188314   3.616436   4.992548   5.629748
    17  C    3.828254   4.903256   4.965960   6.285660   6.741974
    18  C    2.570488   3.798212   5.525787   6.698836   6.873395
    19  C    5.910934   6.673294   3.946376   5.353695   6.280749
    20  C    6.587449   7.540718   5.350327   6.753002   7.684419
    21  C    6.178475   7.305329   6.265761   7.672694   8.444386
    22  C    4.940728   6.137539   6.117997   7.486670   8.056213
    23  C    6.994634   7.570505   3.567899   4.859315   6.001859
    24  C    8.318519   8.961256   4.842918   6.022702   7.252199
    25  C    8.744869   9.559263   6.039027   7.292599   8.480430
    26  C    7.999296   8.943835   6.221442   7.573713   8.643231
    27  C    9.422164   9.943789   5.246779   6.200156   7.507391
    28  C    9.477286   9.813968   4.628181   5.340007   6.664111
    29  C    8.402950   8.625374   3.245090   3.950028   5.271152
    30  C    7.177894   7.503421   2.552057   3.667909   4.908878
    31  H    7.810093   7.451973   2.163631   1.084819   2.139905
    32  H    7.256418   6.494007   3.426673   2.147769   1.085175
    33  H    5.890420   4.750931   4.968903   4.260133   2.896435
    34  H    4.285979   2.936728   6.073560   5.875033   4.726196
    35  H    2.128233   1.085066   6.874372   7.245239   6.488162
    36  H    1.085153   2.126093   7.013454   7.811148   7.460048
    37  H    2.883352   4.238842   6.604730   7.773404   7.911908
    38  H    4.962231   6.262650   7.060328   8.397385   8.865829
    39  H    7.057193   8.242508   7.292308   8.697835   9.502532
    40  H    8.571027   9.609945   7.259259   8.620516   9.667672
    41  H    9.807818  10.632926   6.967756   8.160970   9.395485
    42  H   10.368850  10.946077   6.327912   7.254227   8.571535
    43  H   10.447532  10.719519   5.377250   5.880818   7.191970
    44  H    8.659373   8.711217   3.066039   3.378788   4.683888
    45  H    6.571023   6.713420   1.300167   2.469674   3.691483
                   16         17         18         19         20
    16  C    0.000000
    17  C    1.480139   0.000000
    18  C    2.568240   1.409108   0.000000
    19  C    1.496991   2.533703   3.868775   0.000000
    20  C    2.490096   2.807623   4.206379   1.426678   0.000000
    21  C    2.883996   2.411685   3.627911   2.508818   1.426692
    22  C    2.529460   1.426812   2.372775   2.895277   2.407242
    23  C    2.682493   3.949628   5.208830   1.480026   2.444073
    24  C    3.952407   5.020685   6.358404   2.533266   2.796204
    25  C    4.395717   5.116682   6.509320   2.915828   2.422535
    26  C    3.832202   4.216104   5.601735   2.509381   1.425982
    27  C    5.161301   6.335500   7.627157   3.841723   4.210274
    28  C    5.471370   6.809942   7.991479   4.386512   5.104914
    29  C    4.662797   6.101449   7.162538   3.873345   4.917927
    30  C    3.308144   4.756521   5.828695   2.605944   3.800137
    31  H    5.757264   7.123389   7.652333   5.887287   7.247918
    32  H    6.712150   7.821530   7.916590   7.325573   8.730456
    33  H    7.149492   7.823217   7.413531   8.216429   9.541518
    34  H    7.020561   7.236144   6.423555   8.360383   9.508414
    35  H    6.256664   5.886175   4.689278   7.745655   8.576341
    36  H    5.116037   4.248530   2.856539   6.560722   7.053173
    37  H    3.517787   2.140687   1.084943   4.668684   4.729855
    38  H    3.496772   2.160352   2.523774   3.979050   3.398690
    39  H    3.966586   3.403455   4.488985   3.464962   2.161168
    40  H    4.643102   4.746872   6.069371   3.461877   2.154891
    41  H    5.477134   6.153410   7.541914   3.999834   3.414333
    42  H    6.066373   7.136188   8.462676   4.673931   4.779474
    43  H    6.532377   7.879854   9.041308   5.468953   6.156156
    44  H    5.299794   6.770828   7.709249   4.729982   5.881858
    45  H    3.279719   4.749150   5.606734   3.115172   4.469460
                   21         22         23         24         25
    21  C    0.000000
    22  C    1.343445   0.000000
    23  C    3.795244   4.357216   0.000000
    24  C    4.209205   5.097071   1.449297   0.000000
    25  C    3.647252   4.791957   2.492591   1.418296   0.000000
    26  C    2.386561   3.632663   2.824519   2.391247   1.349813
    27  C    5.617361   6.495569   2.505972   1.416037   2.419902
    28  C    6.523396   7.224630   2.912535   2.438471   3.696454
    29  C    6.277316   6.753275   2.482766   2.770703   4.182594
    30  C    5.083721   5.454223   1.410522   2.365097   3.689699
    31  H    8.286477   8.241642   5.156973   6.137495   7.463818
    32  H    9.515962   9.136667   6.962916   8.152601   9.420827
    33  H    9.969885   9.231401   8.316677   9.682018  10.789501
    34  H    9.598173   8.600954   8.854176  10.282608  11.179129
    35  H    8.268258   7.053594   8.654399  10.042329  10.626763
    36  H    6.441827   5.128892   7.751638   9.013079   9.305426
    37  H    3.850377   2.508308   6.077855   7.120261   7.095272
    38  H    2.115384   1.083910   5.439485   6.136095   5.723599
    39  H    1.083668   2.116540   4.603951   4.746130   3.883311
    40  H    2.526071   3.861414   3.907138   3.385149   2.118916
    41  H    4.504791   5.723036   3.467203   2.163585   1.084397
    42  H    6.126234   7.131252   3.465173   2.144735   2.584691
    43  H    7.575703   8.298483   3.996151   3.426448   4.564899
    44  H    7.199588   7.562480   3.441264   3.854396   5.264621
    45  H    5.577066   5.690356   2.401174   3.580948   4.824120
                   26         27         28         29         30
    26  C    0.000000
    27  C    3.658181   0.000000
    28  C    4.824386   1.371441   0.000000
    29  C    5.031412   2.371442   1.402839   0.000000
    30  C    4.211028   2.725188   2.404779   1.372205   0.000000
    31  H    7.906302   6.089447   5.076542   3.770039   3.839932
    32  H    9.647834   8.289402   7.337960   5.977676   5.790674
    33  H   10.714791  10.117432   9.376841   7.988077   7.444921
    34  H   10.834319  10.982096  10.492172   9.148080   8.319895
    35  H    9.984569  11.020345  10.871990   9.670638   8.571245
    36  H    8.450230  10.179439  10.332232   9.319763   8.064768
    37  H    6.057025   8.437549   8.904821   8.150000   6.813152
    38  H    4.490430   7.537249   8.297588   7.832842   6.529391
    39  H    2.537491   6.110342   7.155169   7.070332   5.956149
    40  H    1.083927   4.537143   5.782147   6.084154   5.292156
    41  H    2.127385   2.611869   3.980220   4.762836   4.521601
    42  H    3.931507   1.084603   2.136676   3.367797   3.808749
    43  H    5.776842   2.146069   1.083978   2.170817   3.391404
    44  H    6.087535   3.363124   2.165769   1.085292   2.126472
    45  H    5.147708   3.965125   3.445195   2.128740   1.279889
                   31         32         33         34         35
    31  H    0.000000
    32  H    2.456728   0.000000
    33  H    5.007718   2.802992   0.000000
    34  H    6.830399   5.013337   2.426920   0.000000
    35  H    8.318479   7.126480   5.037540   2.839690   0.000000
    36  H    8.881731   8.327270   6.843141   5.029660   2.433203
    37  H    8.729259   8.941638   8.271549   7.053081   4.962712
    38  H    9.198126   9.939541   9.794723   8.920216   7.071812
    39  H    9.270088  10.569355  11.038950  10.618924   9.168332
    40  H    8.963553  10.681468  11.663644  11.659903  10.620031
    41  H    8.236890  10.299437  11.783271  12.234786  11.698707
    42  H    7.088629   9.330140  11.195346  12.051351  12.022345
    43  H    5.453183   7.747467   9.949361  11.221148  11.762477
    44  H    2.991146   5.248621   7.475072   8.877776   9.716978
    45  H    2.804960   4.599670   6.256798   7.250922   7.755373
                   36         37         38         39         40
    36  H    0.000000
    37  H    2.747588   0.000000
    38  H    4.918390   2.173989   0.000000
    39  H    7.210322   4.510528   2.458380   0.000000
    40  H    8.910372   6.353813   4.518628   2.193876   0.000000
    41  H   10.347095   8.080048   6.590437   4.542326   2.468792
    42  H   11.082424   9.207940   8.129384   6.457490   4.620712
    43  H   11.323544   9.963360   9.368353   8.170488   6.680505
    44  H    9.636586   8.742257   8.630998   8.041948   7.146962
    45  H    7.537974   6.656113   6.718534   6.541133   6.210630
                   41         42         43         44         45
    41  H    0.000000
    42  H    2.305280   0.000000
    43  H    4.657596   2.486412   0.000000
    44  H    5.827056   4.279821   2.513144   0.000000
    45  H    5.712340   5.044991   4.293788   2.296987   0.000000
 Stoichiometry    C30H15(2)
 Framework group  C1[X(C30H15)]
 Deg. of freedom   129
 Full point group                 C1      NOp   1
 Largest Abelian subgroup         C1      NOp   1
 Largest concise Abelian subgroup C1      NOp   1
                         Standard orientation:                         
 ---------------------------------------------------------------------
 Center     Atomic      Atomic             Coordinates (Angstroms)
 Number     Number       Type             X           Y           Z
 ---------------------------------------------------------------------
      1          6           0       -0.963690    1.060830   -0.203950
      2          6           0       -0.532330   -0.376790   -0.037700
      3          6           0       -1.771370   -1.051400    0.165220
      4          6           0       -2.374800    1.113330   -0.076480
      5          6           0       -2.859390   -0.162860    0.160900
      6          6           0       -3.212020    2.216290   -0.210550
      7          6           0       -4.615830    1.922140   -0.059570
      8          6           0       -5.085850    0.639690    0.171670
      9          6           0       -4.194800   -0.486210    0.278240
     10          6           0       -2.032720   -2.416730    0.272000
     11          6           0       -3.418050   -2.808240    0.436320
     12          6           0       -4.450690   -1.899310    0.444260
     13          6           0       -0.399260    2.266180   -0.495220
     14          6           0       -1.162680    3.449070   -0.629110
     15          6           0       -2.548220    3.441070   -0.499350
     16          6           0        0.656180   -1.171450   -0.111350
     17          6           0        0.369110   -2.623350   -0.091660
     18          6           0       -0.898540   -3.203120    0.114530
     19          6           0        2.097770   -0.772750   -0.173310
     20          6           0        3.048130   -1.822730   -0.345840
     21          6           0        2.677490   -3.192150   -0.496720
     22          6           0        1.401400   -3.578550   -0.332000
     23          6           0        2.694550    0.566980    0.025320
     24          6           0        4.124320    0.694040    0.225510
     25          6           0        4.984290   -0.417890    0.036760
     26          6           0        4.458110   -1.616070   -0.294140
     27          6           0        4.726310    1.927550    0.573680
     28          6           0        3.999750    3.085170    0.687160
     29          6           0        2.631860    3.023160    0.382220
     30          6           0        2.052890    1.822740    0.055520
     31          1           0       -0.660049    4.384130   -0.852400
     32          1           0       -3.106049    4.363510   -0.623990
     33          1           0       -5.333670    2.731880   -0.142060
     34          1           0       -6.156090    0.484510    0.261540
     35          1           0       -5.469500   -2.254940    0.557930
     36          1           0       -3.644690   -3.864360    0.540250
     37          1           0       -0.963280   -4.286130    0.114350
     38          1           0        1.127000   -4.626190   -0.376890
     39          1           0        3.461460   -3.917550   -0.679810
     40          1           0        5.098980   -2.473570   -0.464070
     41          1           0        6.054200   -0.281010    0.148440
     42          1           0        5.798420    1.932950    0.737740
     43          1           0        4.469631    4.022490    0.962210
     44          1           0        2.027311    3.924470    0.377950
     45          1           0        0.884750    2.087950   -0.395290
 ---------------------------------------------------------------------
 Rotational constants (GHZ):      0.2780861      0.1382791      0.0938415
 Standard basis: 6-311+G(d,p) (5D, 7F)
 There are   780 symmetry adapted cartesian basis functions of A   symmetry.
 There are   750 symmetry adapted basis functions of A   symmetry.
   750 basis functions,  1200 primitive gaussians,   780 cartesian basis functions
    98 alpha electrons       97 beta electrons
       nuclear repulsion energy      2544.2660442949 Hartrees.
 NAtoms=   45 NActive=   45 NUniq=   45 SFac= 1.00D+00 NAtFMM=   60 NAOKFM=F Big=F
 Integral buffers will be    131072 words long.
 Raffenetti 2 integral format.
 Two-electron integral symmetry is turned on.
 One-electron integrals computed using PRISM.
 NBasis=   750 RedAO= T EigKep=  1.35D-06  NBF=   750
 NBsUse=   727 1.00D-06 EigRej=  8.94D-07 NBFU=   727
 ExpMin= 4.38D-02 ExpMax= 4.56D+03 ExpMxC= 6.82D+02 IAcc=2 IRadAn=         4 AccDes= 0.00D+00
 Harris functional with IExCor=  402 and IRadAn=       4 diagonalized for initial guess.
 HarFok:  IExCor=  402 AccDes= 0.00D+00 IRadAn=         4 IDoV= 1 UseB2=F ITyADJ=14
 ICtDFT=  3500011 ScaDFX=  1.000000  1.000000  1.000000  1.000000
 FoFCou: FMM=F IPFlag=           0 FMFlag=      100000 FMFlg1=           0
         NFxFlg=           0 DoJE=T BraDBF=F KetDBF=T FulRan=T
         wScrn=  0.000000 ICntrl=     500 IOpCl=  0 I1Cent=   200000004 NGrid=           0
         NMat0=    1 NMatS0=      1 NMatT0=    0 NMatD0=    1 NMtDS0=    0 NMtDT0=    0
 Petite list used in FoFCou.
 Initial guess <Sx>= 0.0000 <Sy>= 0.0000 <Sz>= 0.5000 <S**2>= 0.7500 S= 0.5000
 Requested convergence on RMS density matrix=1.00D-08 within 128 cycles.
 Requested convergence on MAX density matrix=1.00D-06.
 Requested convergence on             energy=1.00D-06.
 No special actions if energy rises.
 Restarting incremental Fock formation.
 SCF Done:  E(UB3LYP) =  -1152.40894508     A.U. after   25 cycles
            NFock= 25  Conv=0.97D-08     -V/T= 2.0044
 <Sx>= 0.0000 <Sy>= 0.0000 <Sz>= 0.5000 <S**2>= 0.7615 S= 0.5058
 <L.S>= 0.000000000000E+00
 Annihilation of the first spin contaminant:
 S**2 before annihilation     0.7615,   after     0.7501
 DoSCS=F DFT=T ScalE2(SS,OS)=  1.000000  1.000000
 Range of M.O.s used for correlation:     1   727
 NBasis=   750 NAE=    98 NBE=    97 NFC=     0 NFV=     0
 NROrb=    727 NOA=    98 NOB=    97 NVA=   629 NVB=   630

 **** Warning!!: The largest alpha MO coefficient is  0.14216688D+03


 **** Warning!!: The largest beta MO coefficient is  0.13255767D+03

 Symmetrizing basis deriv contribution to polar:
 IMax=3 JMax=2 DiffMx= 0.00D+00
 G2DrvN: will do    46 centers at a time, making    1 passes.
 Calling FoFCou, ICntrl=  3107 FMM=F I1Cent=   0 AccDes= 0.00D+00.
 End of G2Drv F.D. properties file   721 does not exist.
 End of G2Drv F.D. properties file   722 does not exist.
 End of G2Drv F.D. properties file   788 does not exist.
          IDoAtm=111111111111111111111111111111111111111111111
          Differentiating once with respect to nuclear coordinates.
          There are   138 degrees of freedom in the 1st order CPHF.  IDoFFX=6 NUNeed=     0.
    132 vectors produced by pass  0 Test12= 1.23D-13 1.00D-09 XBig12= 5.27D-01 1.14D-01.
 AX will form   132 AO Fock derivatives at one time.
    132 vectors produced by pass  1 Test12= 1.23D-13 1.00D-09 XBig12= 1.72D-01 5.94D-02.
    132 vectors produced by pass  2 Test12= 1.23D-13 1.00D-09 XBig12= 2.99D-03 7.76D-03.
    132 vectors produced by pass  3 Test12= 1.23D-13 1.00D-09 XBig12= 3.40D-05 8.53D-04.
    132 vectors produced by pass  4 Test12= 1.23D-13 1.00D-09 XBig12= 2.77D-07 5.47D-05.
    132 vectors produced by pass  5 Test12= 1.23D-13 1.00D-09 XBig12= 1.87D-09 3.28D-06.
    132 vectors produced by pass  6 Test12= 1.23D-13 1.00D-09 XBig12= 5.25D-11 6.13D-07.
    132 vectors produced by pass  7 Test12= 1.23D-13 1.00D-09 XBig12= 7.62D-12 1.21D-07.
    131 vectors produced by pass  8 Test12= 1.23D-13 1.00D-09 XBig12= 7.84D-13 4.52D-08.
     64 vectors produced by pass  9 Test12= 1.23D-13 1.00D-09 XBig12= 6.56D-15 3.41D-09.
     44 vectors produced by pass 10 Test12= 1.23D-13 1.00D-09 XBig12= 9.41D-16 1.58D-09.
     44 vectors produced by pass 11 Test12= 1.23D-13 1.00D-09 XBig12= 3.50D-13 2.45D-08.
     44 vectors produced by pass 12 Test12= 1.23D-13 1.00D-09 XBig12= 2.87D-12 6.94D-08.
     44 vectors produced by pass 13 Test12= 1.23D-13 1.00D-09 XBig12= 4.22D-13 2.68D-08.
     44 vectors produced by pass 14 Test12= 1.23D-13 1.00D-09 XBig12= 7.47D-13 3.19D-08.
     44 vectors produced by pass 15 Test12= 1.23D-13 1.00D-09 XBig12= 3.18D-13 2.19D-08.
     44 vectors produced by pass 16 Test12= 1.23D-13 1.00D-09 XBig12= 6.88D-13 3.54D-08.
     44 vectors produced by pass 17 Test12= 1.23D-13 1.00D-09 XBig12= 3.13D-13 2.18D-08.
     44 vectors produced by pass 18 Test12= 1.23D-13 1.00D-09 XBig12= 3.59D-13 2.24D-08.
     44 vectors produced by pass 19 Test12= 1.23D-13 1.00D-09 XBig12= 9.19D-14 1.24D-08.
     44 vectors produced by pass 20 Test12= 1.23D-13 1.00D-09 XBig12= 4.63D-13 2.54D-08.
     44 vectors produced by pass 21 Test12= 1.23D-13 1.00D-09 XBig12= 3.17D-13 2.06D-08.
     44 vectors produced by pass 22 Test12= 1.23D-13 1.00D-09 XBig12= 3.31D-13 2.40D-08.
     44 vectors produced by pass 23 Test12= 1.23D-13 1.00D-09 XBig12= 1.86D-13 1.79D-08.
     44 vectors produced by pass 24 Test12= 1.23D-13 1.00D-09 XBig12= 4.96D-13 2.43D-08.
     44 vectors produced by pass 25 Test12= 1.23D-13 1.00D-09 XBig12= 3.13D-13 1.88D-08.
     44 vectors produced by pass 26 Test12= 1.23D-13 1.00D-09 XBig12= 4.06D-13 2.23D-08.
     37 vectors produced by pass 27 Test12= 1.23D-13 1.00D-09 XBig12= 2.00D-13 1.65D-08.
     37 vectors produced by pass 28 Test12= 1.23D-13 1.00D-09 XBig12= 3.64D-13 1.96D-08.
     35 vectors produced by pass 29 Test12= 1.23D-13 1.00D-09 XBig12= 1.91D-13 1.66D-08.
     33 vectors produced by pass 30 Test12= 1.23D-13 1.00D-09 XBig12= 1.51D-13 1.29D-08.
     33 vectors produced by pass 31 Test12= 1.23D-13 1.00D-09 XBig12= 1.94D-13 1.67D-08.
     33 vectors produced by pass 32 Test12= 1.23D-13 1.00D-09 XBig12= 3.22D-13 2.02D-08.
     30 vectors produced by pass 33 Test12= 1.23D-13 1.00D-09 XBig12= 1.34D-13 1.16D-08.
     27 vectors produced by pass 34 Test12= 1.23D-13 1.00D-09 XBig12= 1.36D-13 1.19D-08.
     27 vectors produced by pass 35 Test12= 1.23D-13 1.00D-09 XBig12= 2.13D-13 1.67D-08.
     21 vectors produced by pass 36 Test12= 1.23D-13 1.00D-09 XBig12= 5.57D-14 8.23D-09.
     21 vectors produced by pass 37 Test12= 1.23D-13 1.00D-09 XBig12= 2.45D-13 1.64D-08.
     21 vectors produced by pass 38 Test12= 1.23D-13 1.00D-09 XBig12= 1.10D-13 1.03D-08.
     21 vectors produced by pass 39 Test12= 1.23D-13 1.00D-09 XBig12= 1.56D-13 1.28D-08.
     21 vectors produced by pass 40 Test12= 1.23D-13 1.00D-09 XBig12= 2.22D-13 1.53D-08.
     20 vectors produced by pass 41 Test12= 1.23D-13 1.00D-09 XBig12= 9.79D-14 1.07D-08.
     20 vectors produced by pass 42 Test12= 1.23D-13 1.00D-09 XBig12= 9.50D-14 9.73D-09.
     20 vectors produced by pass 43 Test12= 1.23D-13 1.00D-09 XBig12= 1.14D-13 9.66D-09.
     20 vectors produced by pass 44 Test12= 1.23D-13 1.00D-09 XBig12= 1.83D-13 1.53D-08.
     19 vectors produced by pass 45 Test12= 1.23D-13 1.00D-09 XBig12= 7.31D-14 9.41D-09.
     19 vectors produced by pass 46 Test12= 1.23D-13 1.00D-09 XBig12= 1.39D-13 1.16D-08.
     19 vectors produced by pass 47 Test12= 1.23D-13 1.00D-09 XBig12= 1.57D-13 1.08D-08.
     19 vectors produced by pass 48 Test12= 1.23D-13 1.00D-09 XBig12= 1.53D-13 1.29D-08.
     19 vectors produced by pass 49 Test12= 1.23D-13 1.00D-09 XBig12= 1.61D-13 1.30D-08.
     19 vectors produced by pass 50 Test12= 1.23D-13 1.00D-09 XBig12= 9.12D-14 9.85D-09.
     19 vectors produced by pass 51 Test12= 1.23D-13 1.00D-09 XBig12= 9.94D-14 1.19D-08.
     19 vectors produced by pass 52 Test12= 1.23D-13 1.00D-09 XBig12= 5.76D-14 8.14D-09.
     19 vectors produced by pass 53 Test12= 1.23D-13 1.00D-09 XBig12= 4.32D-14 6.26D-09.
     19 vectors produced by pass 54 Test12= 1.23D-13 1.00D-09 XBig12= 1.18D-13 1.01D-08.
     19 vectors produced by pass 55 Test12= 1.23D-13 1.00D-09 XBig12= 9.55D-14 8.37D-09.
     19 vectors produced by pass 56 Test12= 1.23D-13 1.00D-09 XBig12= 1.03D-13 1.27D-08.
     19 vectors produced by pass 57 Test12= 1.23D-13 1.00D-09 XBig12= 9.75D-14 1.03D-08.
     19 vectors produced by pass 58 Test12= 1.23D-13 1.00D-09 XBig12= 7.91D-14 8.86D-09.
     19 vectors produced by pass 59 Test12= 1.23D-13 1.00D-09 XBig12= 7.30D-14 8.95D-09.
     19 vectors produced by pass 60 Test12= 1.23D-13 1.00D-09 XBig12= 7.89D-14 8.73D-09.
     19 vectors produced by pass 61 Test12= 1.23D-13 1.00D-09 XBig12= 8.93D-14 9.08D-09.
     19 vectors produced by pass 62 Test12= 1.23D-13 1.00D-09 XBig12= 1.13D-13 1.05D-08.
     19 vectors produced by pass 63 Test12= 1.23D-13 1.00D-09 XBig12= 1.05D-13 9.71D-09.
     18 vectors produced by pass 64 Test12= 1.23D-13 1.00D-09 XBig12= 8.15D-14 9.23D-09.
     17 vectors produced by pass 65 Test12= 1.23D-13 1.00D-09 XBig12= 7.18D-14 8.15D-09.
     17 vectors produced by pass 66 Test12= 1.23D-13 1.00D-09 XBig12= 7.49D-14 9.59D-09.
     16 vectors produced by pass 67 Test12= 1.23D-13 1.00D-09 XBig12= 4.40D-14 6.42D-09.
     16 vectors produced by pass 68 Test12= 1.23D-13 1.00D-09 XBig12= 9.82D-14 9.43D-09.
     16 vectors produced by pass 69 Test12= 1.23D-13 1.00D-09 XBig12= 9.33D-14 9.33D-09.
     16 vectors produced by pass 70 Test12= 1.23D-13 1.00D-09 XBig12= 1.08D-13 9.70D-09.
     16 vectors produced by pass 71 Test12= 1.23D-13 1.00D-09 XBig12= 7.98D-14 9.08D-09.
     16 vectors produced by pass 72 Test12= 1.23D-13 1.00D-09 XBig12= 7.39D-14 8.62D-09.
     15 vectors produced by pass 73 Test12= 1.23D-13 1.00D-09 XBig12= 6.03D-14 7.28D-09.
     15 vectors produced by pass 74 Test12= 1.23D-13 1.00D-09 XBig12= 9.79D-14 1.02D-08.
     13 vectors produced by pass 75 Test12= 1.23D-13 1.00D-09 XBig12= 5.64D-14 6.51D-09.
     13 vectors produced by pass 76 Test12= 1.23D-13 1.00D-09 XBig12= 6.35D-14 7.92D-09.
     13 vectors produced by pass 77 Test12= 1.23D-13 1.00D-09 XBig12= 4.47D-14 5.71D-09.
     13 vectors produced by pass 78 Test12= 1.23D-13 1.00D-09 XBig12= 7.61D-14 7.70D-09.
     13 vectors produced by pass 79 Test12= 1.23D-13 1.00D-09 XBig12= 7.58D-14 7.20D-09.
     13 vectors produced by pass 80 Test12= 1.23D-13 1.00D-09 XBig12= 6.48D-14 7.82D-09.
     13 vectors produced by pass 81 Test12= 1.23D-13 1.00D-09 XBig12= 7.49D-14 9.58D-09.
     13 vectors produced by pass 82 Test12= 1.23D-13 1.00D-09 XBig12= 8.94D-14 8.86D-09.
     13 vectors produced by pass 83 Test12= 1.23D-13 1.00D-09 XBig12= 7.16D-14 7.55D-09.
     12 vectors produced by pass 84 Test12= 1.23D-13 1.00D-09 XBig12= 5.23D-14 6.58D-09.
     11 vectors produced by pass 85 Test12= 1.23D-13 1.00D-09 XBig12= 4.27D-14 6.09D-09.
      9 vectors produced by pass 86 Test12= 1.23D-13 1.00D-09 XBig12= 5.80D-14 7.15D-09.
      5 vectors produced by pass 87 Test12= 1.23D-13 1.00D-09 XBig12= 1.79D-14 4.01D-09.
      5 vectors produced by pass 88 Test12= 1.23D-13 1.00D-09 XBig12= 6.69D-14 8.31D-09.
      5 vectors produced by pass 89 Test12= 1.23D-13 1.00D-09 XBig12= 5.88D-14 9.03D-09.
      5 vectors produced by pass 90 Test12= 1.23D-13 1.00D-09 XBig12= 4.09D-14 5.92D-09.
      5 vectors produced by pass 91 Test12= 1.23D-13 1.00D-09 XBig12= 4.99D-14 6.60D-09.
      5 vectors produced by pass 92 Test12= 1.23D-13 1.00D-09 XBig12= 3.80D-14 5.15D-09.
      1 vectors produced by pass 93 Test12= 1.23D-13 1.00D-09 XBig12= 7.34D-15 2.64D-09.
 InvSVY:  IOpt=1 It=  1 EMax= 2.55D-15
 Solved reduced A of dimension  3195 with   138 vectors.
 End of Minotr F.D. properties file   721 does not exist.
 End of Minotr F.D. properties file   722 does not exist.
 End of Minotr F.D. properties file   788 does not exist.

 **********************************************************************

            Population analysis using the SCF density.

 **********************************************************************

 Orbital symmetries:
 Alpha Orbitals:
       Occupied  (A) (A) (A) (A) (A) (A) (A) (A) (A) (A) (A) (A)
                 (A) (A) (A) (A) (A) (A) (A) (A) (A) (A) (A) (A)
                 (A) (A) (A) (A) (A) (A) (A) (A) (A) (A) (A) (A)
                 (A) (A) (A) (A) (A) (A) (A) (A) (A) (A) (A) (A)
                 (A) (A) (A) (A) (A) (A) (A) (A) (A) (A) (A) (A)
                 (A) (A) (A) (A) (A) (A) (A) (A) (A) (A) (A) (A)
                 (A) (A) (A) (A) (A) (A) (A) (A) (A) (A) (A) (A)
                 (A) (A) (A) (A) (A) (A) (A) (A) (A) (A) (A) (A)
                 (A) (A)
       Virtual   (A) (A) (A) (A) (A) (A) (A) (A) (A) (A) (A) (A)
                 (A) (A) (A) (A) (A) (A) (A) (A) (A) (A) (A) (A)
                 (A) (A) (A) (A) (A) (A) (A) (A) (A) (A) (A) (A)
                 (A) (A) (A) (A) (A) (A) (A) (A) (A) (A) (A) (A)
                 (A) (A) (A) (A) (A) (A) (A) (A) (A) (A) (A) (A)
                 (A) (A) (A) (A) (A) (A) (A) (A) (A) (A) (A) (A)
                 (A) (A) (A) (A) (A) (A) (A) (A) (A) (A) (A) (A)
                 (A) (A) (A) (A) (A) (A) (A) (A) (A) (A) (A) (A)
                 (A) (A) (A) (A) (A) (A) (A) (A) (A) (A) (A) (A)
                 (A) (A) (A) (A) (A) (A) (A) (A) (A) (A) (A) (A)
                 (A) (A) (A) (A) (A) (A) (A) (A) (A) (A) (A) (A)
                 (A) (A) (A) (A) (A) (A) (A) (A) (A) (A) (A) (A)
                 (A) (A) (A) (A) (A) (A) (A) (A) (A) (A) (A) (A)
                 (A) (A) (A) (A) (A) (A) (A) (A) (A) (A) (A) (A)
                 (A) (A) (A) (A) (A) (A) (A) (A) (A) (A) (A) (A)
                 (A) (A) (A) (A) (A) (A) (A) (A) (A) (A) (A) (A)
                 (A) (A) (A) (A) (A) (A) (A) (A) (A) (A) (A) (A)
                 (A) (A) (A) (A) (A) (A) (A) (A) (A) (A) (A) (A)
                 (A) (A) (A) (A) (A) (A) (A) (A) (A) (A) (A) (A)
                 (A) (A) (A) (A) (A) (A) (A) (A) (A) (A) (A) (A)
                 (A) (A) (A) (A) (A) (A) (A) (A) (A) (A) (A) (A)
                 (A) (A) (A) (A) (A) (A) (A) (A) (A) (A) (A) (A)
                 (A) (A) (A) (A) (A) (A) (A) (A) (A) (A) (A) (A)
                 (A) (A) (A) (A) (A) (A) (A) (A) (A) (A) (A) (A)
                 (A) (A) (A) (A) (A) (A) (A) (A) (A) (A) (A) (A)
                 (A) (A) (A) (A) (A) (A) (A) (A) (A) (A) (A) (A)
                 (A) (A) (A) (A) (A) (A) (A) (A) (A) (A) (A) (A)
                 (A) (A) (A) (A) (A) (A) (A) (A) (A) (A) (A) (A)
                 (A) (A) (A) (A) (A) (A) (A) (A) (A) (A) (A) (A)
                 (A) (A) (A) (A) (A) (A) (A) (A) (A) (A) (A) (A)
                 (A) (A) (A) (A) (A) (A) (A) (A) (A) (A) (A) (A)
                 (A) (A) (A) (A) (A) (A) (A) (A) (A) (A) (A) (A)
                 (A) (A) (A) (A) (A) (A) (A) (A) (A) (A) (A) (A)
                 (A) (A) (A) (A) (A) (A) (A) (A) (A) (A) (A) (A)
                 (A) (A) (A) (A) (A) (A) (A) (A) (A) (A) (A) (A)
                 (A) (A) (A) (A) (A) (A) (A) (A) (A) (A) (A) (A)
                 (A) (A) (A) (A) (A) (A) (A) (A) (A) (A) (A) (A)
                 (A) (A) (A) (A) (A) (A) (A) (A) (A) (A) (A) (A)
                 (A) (A) (A) (A) (A) (A) (A) (A) (A) (A) (A) (A)
                 (A) (A) (A) (A) (A) (A) (A) (A) (A) (A) (A) (A)
                 (A) (A) (A) (A) (A) (A) (A) (A) (A) (A) (A) (A)
                 (A) (A) (A) (A) (A) (A) (A) (A) (A) (A) (A) (A)
                 (A) (A) (A) (A) (A) (A) (A) (A) (A) (A) (A) (A)
                 (A) (A) (A) (A) (A) (A) (A) (A) (A) (A) (A) (A)
                 (A) (A) (A) (A) (A) (A) (A) (A) (A) (A) (A) (A)
                 (A) (A) (A) (A) (A) (A) (A) (A) (A) (A) (A) (A)
                 (A) (A) (A) (A) (A) (A) (A) (A) (A) (A) (A) (A)
                 (A) (A) (A) (A) (A) (A) (A) (A) (A) (A) (A) (A)
                 (A) (A) (A) (A) (A) (A) (A) (A) (A) (A) (A) (A)
                 (A) (A) (A) (A) (A) (A) (A) (A) (A) (A) (A) (A)
                 (A) (A) (A) (A) (A) (A) (A) (A) (A) (A) (A) (A)
                 (A) (A) (A) (A) (A) (A) (A) (A) (A) (A) (A) (A)
                 (A) (A) (A) (A) (A)
 Beta  Orbitals:
       Occupied  (A) (A) (A) (A) (A) (A) (A) (A) (A) (A) (A) (A)
                 (A) (A) (A) (A) (A) (A) (A) (A) (A) (A) (A) (A)
                 (A) (A) (A) (A) (A) (A) (A) (A) (A) (A) (A) (A)
                 (A) (A) (A) (A) (A) (A) (A) (A) (A) (A) (A) (A)
                 (A) (A) (A) (A) (A) (A) (A) (A) (A) (A) (A) (A)
                 (A) (A) (A) (A) (A) (A) (A) (A) (A) (A) (A) (A)
                 (A) (A) (A) (A) (A) (A) (A) (A) (A) (A) (A) (A)
                 (A) (A) (A) (A) (A) (A) (A) (A) (A) (A) (A) (A)
                 (A)
       Virtual   (A) (A) (A) (A) (A) (A) (A) (A) (A) (A) (A) (A)
                 (A) (A) (A) (A) (A) (A) (A) (A) (A) (A) (A) (A)
                 (A) (A) (A) (A) (A) (A) (A) (A) (A) (A) (A) (A)
                 (A) (A) (A) (A) (A) (A) (A) (A) (A) (A) (A) (A)
                 (A) (A) (A) (A) (A) (A) (A) (A) (A) (A) (A) (A)
                 (A) (A) (A) (A) (A) (A) (A) (A) (A) (A) (A) (A)
                 (A) (A) (A) (A) (A) (A) (A) (A) (A) (A) (A) (A)
                 (A) (A) (A) (A) (A) (A) (A) (A) (A) (A) (A) (A)
                 (A) (A) (A) (A) (A) (A) (A) (A) (A) (A) (A) (A)
                 (A) (A) (A) (A) (A) (A) (A) (A) (A) (A) (A) (A)
                 (A) (A) (A) (A) (A) (A) (A) (A) (A) (A) (A) (A)
                 (A) (A) (A) (A) (A) (A) (A) (A) (A) (A) (A) (A)
                 (A) (A) (A) (A) (A) (A) (A) (A) (A) (A) (A) (A)
                 (A) (A) (A) (A) (A) (A) (A) (A) (A) (A) (A) (A)
                 (A) (A) (A) (A) (A) (A) (A) (A) (A) (A) (A) (A)
                 (A) (A) (A) (A) (A) (A) (A) (A) (A) (A) (A) (A)
                 (A) (A) (A) (A) (A) (A) (A) (A) (A) (A) (A) (A)
                 (A) (A) (A) (A) (A) (A) (A) (A) (A) (A) (A) (A)
                 (A) (A) (A) (A) (A) (A) (A) (A) (A) (A) (A) (A)
                 (A) (A) (A) (A) (A) (A) (A) (A) (A) (A) (A) (A)
                 (A) (A) (A) (A) (A) (A) (A) (A) (A) (A) (A) (A)
                 (A) (A) (A) (A) (A) (A) (A) (A) (A) (A) (A) (A)
                 (A) (A) (A) (A) (A) (A) (A) (A) (A) (A) (A) (A)
                 (A) (A) (A) (A) (A) (A) (A) (A) (A) (A) (A) (A)
                 (A) (A) (A) (A) (A) (A) (A) (A) (A) (A) (A) (A)
                 (A) (A) (A) (A) (A) (A) (A) (A) (A) (A) (A) (A)
                 (A) (A) (A) (A) (A) (A) (A) (A) (A) (A) (A) (A)
                 (A) (A) (A) (A) (A) (A) (A) (A) (A) (A) (A) (A)
                 (A) (A) (A) (A) (A) (A) (A) (A) (A) (A) (A) (A)
                 (A) (A) (A) (A) (A) (A) (A) (A) (A) (A) (A) (A)
                 (A) (A) (A) (A) (A) (A) (A) (A) (A) (A) (A) (A)
                 (A) (A) (A) (A) (A) (A) (A) (A) (A) (A) (A) (A)
                 (A) (A) (A) (A) (A) (A) (A) (A) (A) (A) (A) (A)
                 (A) (A) (A) (A) (A) (A) (A) (A) (A) (A) (A) (A)
                 (A) (A) (A) (A) (A) (A) (A) (A) (A) (A) (A) (A)
                 (A) (A) (A) (A) (A) (A) (A) (A) (A) (A) (A) (A)
                 (A) (A) (A) (A) (A) (A) (A) (A) (A) (A) (A) (A)
                 (A) (A) (A) (A) (A) (A) (A) (A) (A) (A) (A) (A)
                 (A) (A) (A) (A) (A) (A) (A) (A) (A) (A) (A) (A)
                 (A) (A) (A) (A) (A) (A) (A) (A) (A) (A) (A) (A)
                 (A) (A) (A) (A) (A) (A) (A) (A) (A) (A) (A) (A)
                 (A) (A) (A) (A) (A) (A) (A) (A) (A) (A) (A) (A)
                 (A) (A) (A) (A) (A) (A) (A) (A) (A) (A) (A) (A)
                 (A) (A) (A) (A) (A) (A) (A) (A) (A) (A) (A) (A)
                 (A) (A) (A) (A) (A) (A) (A) (A) (A) (A) (A) (A)
                 (A) (A) (A) (A) (A) (A) (A) (A) (A) (A) (A) (A)
                 (A) (A) (A) (A) (A) (A) (A) (A) (A) (A) (A) (A)
                 (A) (A) (A) (A) (A) (A) (A) (A) (A) (A) (A) (A)
                 (A) (A) (A) (A) (A) (A) (A) (A) (A) (A) (A) (A)
                 (A) (A) (A) (A) (A) (A) (A) (A) (A) (A) (A) (A)
                 (A) (A) (A) (A) (A) (A) (A) (A) (A) (A) (A) (A)
                 (A) (A) (A) (A) (A) (A) (A) (A) (A) (A) (A) (A)
                 (A) (A) (A) (A) (A) (A)
 The electronic state is 2-A.
 Alpha  occ. eigenvalues --  -10.22046 -10.21308 -10.20929 -10.20266 -10.19965
 Alpha  occ. eigenvalues --  -10.19665 -10.19631 -10.19570 -10.19564 -10.19162
 Alpha  occ. eigenvalues --  -10.19161 -10.19116 -10.19111 -10.19100 -10.19075
 Alpha  occ. eigenvalues --  -10.19073 -10.19013 -10.18944 -10.18925 -10.18883
 Alpha  occ. eigenvalues --  -10.18288 -10.18267 -10.18175 -10.18132 -10.18130
 Alpha  occ. eigenvalues --  -10.18123 -10.17832 -10.17449 -10.16849 -10.16748
 Alpha  occ. eigenvalues --   -0.92043  -0.89354  -0.87542  -0.85842  -0.84616
 Alpha  occ. eigenvalues --   -0.82520  -0.81271  -0.79703  -0.78825  -0.76363
 Alpha  occ. eigenvalues --   -0.75356  -0.74967  -0.73026  -0.72245  -0.71568
 Alpha  occ. eigenvalues --   -0.66705  -0.65556  -0.63584  -0.63270  -0.62413
 Alpha  occ. eigenvalues --   -0.60967  -0.60086  -0.58693  -0.57005  -0.54791
 Alpha  occ. eigenvalues --   -0.53592  -0.52342  -0.51824  -0.50930  -0.50516
 Alpha  occ. eigenvalues --   -0.49750  -0.48010  -0.47458  -0.46381  -0.44976
 Alpha  occ. eigenvalues --   -0.44750  -0.44391  -0.44008  -0.43709  -0.43501
 Alpha  occ. eigenvalues --   -0.42710  -0.42049  -0.41469  -0.41087  -0.40640
 Alpha  occ. eigenvalues --   -0.40231  -0.39894  -0.38805  -0.38071  -0.36921
 Alpha  occ. eigenvalues --   -0.36488  -0.36405  -0.35865  -0.35420  -0.34682
 Alpha  occ. eigenvalues --   -0.33761  -0.33267  -0.32705  -0.31765  -0.30117
 Alpha  occ. eigenvalues --   -0.29485  -0.27077  -0.25485  -0.24678  -0.23149
 Alpha  occ. eigenvalues --   -0.22054  -0.21019  -0.20723
 Alpha virt. eigenvalues --   -0.09460  -0.05703  -0.05089  -0.03819  -0.02371
 Alpha virt. eigenvalues --   -0.00755  -0.00035   0.00529   0.00559   0.01137
 Alpha virt. eigenvalues --    0.01470   0.01528   0.01725   0.02696   0.02886
 Alpha virt. eigenvalues --    0.02971   0.03499   0.04336   0.04392   0.04570
 Alpha virt. eigenvalues --    0.04763   0.05064   0.05270   0.05631   0.06048
 Alpha virt. eigenvalues --    0.06506   0.06729   0.07588   0.07905   0.08124
 Alpha virt. eigenvalues --    0.08314   0.08533   0.08718   0.08919   0.09236
 Alpha virt. eigenvalues --    0.09520   0.10258   0.10733   0.10846   0.11262
 Alpha virt. eigenvalues --    0.11516   0.11699   0.12085   0.12311   0.12629
 Alpha virt. eigenvalues --    0.12976   0.13666   0.13825   0.14156   0.14192
 Alpha virt. eigenvalues --    0.14707   0.15141   0.15228   0.15492   0.15646
 Alpha virt. eigenvalues --    0.16118   0.16294   0.16477   0.16728   0.16822
 Alpha virt. eigenvalues --    0.17128   0.17300   0.17504   0.17747   0.18029
 Alpha virt. eigenvalues --    0.18130   0.18206   0.18701   0.19006   0.19062
 Alpha virt. eigenvalues --    0.19147   0.19354   0.19587   0.19732   0.20006
 Alpha virt. eigenvalues --    0.20342   0.20605   0.20869   0.21267   0.21375
 Alpha virt. eigenvalues --    0.21594   0.22028   0.22070   0.22117   0.22522
 Alpha virt. eigenvalues --    0.22603   0.22708   0.23173   0.23333   0.23725
 Alpha virt. eigenvalues --    0.23861   0.24009   0.24498   0.24654   0.24746
 Alpha virt. eigenvalues --    0.24831   0.25195   0.25482   0.25652   0.26137
 Alpha virt. eigenvalues --    0.26548   0.26574   0.26825   0.27322   0.27458
 Alpha virt. eigenvalues --    0.27758   0.27887   0.28383   0.28650   0.28662
 Alpha virt. eigenvalues --    0.28956   0.29348   0.29713   0.29936   0.30180
 Alpha virt. eigenvalues --    0.30447   0.30828   0.31026   0.31110   0.31595
 Alpha virt. eigenvalues --    0.32130   0.32207   0.32598   0.33126   0.33566
 Alpha virt. eigenvalues --    0.33756   0.33924   0.34438   0.34738   0.34972
 Alpha virt. eigenvalues --    0.35243   0.35794   0.36152   0.36671   0.36925
 Alpha virt. eigenvalues --    0.37528   0.37761   0.38057   0.39016   0.39454
 Alpha virt. eigenvalues --    0.39786   0.40464   0.40789   0.41417   0.41754
 Alpha virt. eigenvalues --    0.42295   0.43508   0.44174   0.44380   0.44721
 Alpha virt. eigenvalues --    0.45827   0.46095   0.46554   0.47598   0.48083
 Alpha virt. eigenvalues --    0.48649   0.49073   0.49667   0.50210   0.50850
 Alpha virt. eigenvalues --    0.51715   0.52282   0.52605   0.53206   0.53527
 Alpha virt. eigenvalues --    0.53734   0.53892   0.54377   0.54494   0.54793
 Alpha virt. eigenvalues --    0.55017   0.55792   0.55851   0.56652   0.56869
 Alpha virt. eigenvalues --    0.57035   0.57392   0.57726   0.58043   0.58185
 Alpha virt. eigenvalues --    0.59002   0.59425   0.59859   0.60117   0.60334
 Alpha virt. eigenvalues --    0.60852   0.61185   0.61572   0.62226   0.62554
 Alpha virt. eigenvalues --    0.63134   0.63506   0.63707   0.64178   0.64768
 Alpha virt. eigenvalues --    0.64991   0.65217   0.65787   0.66270   0.66319
 Alpha virt. eigenvalues --    0.66623   0.67391   0.67557   0.67739   0.67957
 Alpha virt. eigenvalues --    0.68584   0.69375   0.69845   0.70397   0.70749
 Alpha virt. eigenvalues --    0.70808   0.71494   0.71810   0.72007   0.72192
 Alpha virt. eigenvalues --    0.72688   0.73074   0.73450   0.73765   0.73955
 Alpha virt. eigenvalues --    0.74245   0.74874   0.75142   0.75548   0.75787
 Alpha virt. eigenvalues --    0.76205   0.76653   0.77058   0.77681   0.77986
 Alpha virt. eigenvalues --    0.79142   0.80012   0.80951   0.81629   0.82063
 Alpha virt. eigenvalues --    0.83218   0.84016   0.84281   0.84811   0.85752
 Alpha virt. eigenvalues --    0.86501   0.86779   0.87034   0.87547   0.88210
 Alpha virt. eigenvalues --    0.88576   0.89175   0.89848   0.90437   0.90642
 Alpha virt. eigenvalues --    0.91210   0.92054   0.92339   0.92503   0.93198
 Alpha virt. eigenvalues --    0.93550   0.93852   0.94499   0.94942   0.95379
 Alpha virt. eigenvalues --    0.95787   0.96080   0.96206   0.96669   0.96968
 Alpha virt. eigenvalues --    0.96991   0.97779   0.98106   0.98287   0.98627
[...]
 54,0.00000222,0.00000511,-0.00000097,-0.00000134,0.00000573,0.00000352
 ,-0.00000134,-0.00000087,0.00000666,0.00000028,0.00034522,-0.00005148,
 -0.00000738,-0.00008985,-0.00002248,0.00001180,0.00002662,0.00002656,-
 0.00000850,0.00004017,-0.00021793,-0.00006433,-0.00008112,0.00002402,0
 .00001371,0.00001541,-0.00002041,0.00000952,-0.00053639,0.00055113,0.0
 0003279,0.00022171,0.00014139,-0.00001334,0.00002440,-0.00002797,0.000
 00905,0.00004365,-0.00004094,-0.00000869,0.00120856,-0.00211806,-0.000
 97546,-0.01189298,0.00120848,-0.00202296,0.00050604,0.00238107,0.00135
 773,0.00025944,-0.00043975,-0.00003782,-0.32552534,-0.00102621,-0.0463
 2549,-0.01236458,-0.00307257,-0.00329404,0.00031176,0.00377459,-0.0003
 2771,0.00098661,0.00005158,0.00042471,0.00001514,-0.00000790,0.0000085
 4,-0.00001376,0.00000355,0.00000055,-0.00000411,0.00000437,-0.00000074
 ,-0.00000595,-0.00000168,0.00000040,-0.00000603,-0.00000240,0.00000029
 ,-0.00000093,-0.00000555,-0.00000014,-0.00000606,-0.00000885,-0.000000
 70,-0.00000108,-0.00000474,-0.00000560,0.00000424,-0.00002267,-0.00000
 748,-0.00002796,-0.00005577,-0.00004637,0.00091721,-0.00044476,-0.0001
 0854,0.34618460,0.00003139,-0.00005287,0.00001736,-0.00000747,-0.00000
 807,0.00000061,0.00000787,0.00002867,-0.00000008,-0.00000724,0.0000155
 3,-0.00001392,-0.00000045,-0.00000869,0.00000083,0.00000955,0.00000206
 ,-0.00000111,-0.00001126,0.00000493,0.00000075,0.00000391,0.00000535,-
 0.00000099,0.00000799,0.00000545,-0.00000013,0.00001511,-0.00000928,-0
 .00000458,-0.00000433,0.00000355,-0.00000141,-0.00000130,-0.00000575,0
 .00000148,-0.00006581,0.00004595,0.00002935,0.00001084,0.00000156,0.00
 001706,-0.00001484,0.00000492,0.00000047,0.00008867,-0.00035256,-0.000
 07901,-0.00009039,-0.00001371,0.00001395,-0.00000590,-0.00004652,0.000
 01351,-0.00120079,0.00025923,-0.00001692,-0.00023557,0.00007500,-0.000
 02422,0.00012222,0.00003403,0.00000367,-0.00005247,0.00000160,0.000009
 59,-0.00074493,-0.00389794,-0.00201265,-0.02654637,0.00119011,-0.00454
 241,-0.00248277,0.00013086,0.00051697,0.00039052,0.00015271,0.00010752
 ,-0.00029350,-0.05599161,-0.00530425,0.02766775,0.00463279,0.00453915,
 0.00273851,-0.00392238,-0.00188467,0.00001522,-0.00093556,-0.00007110,
 -0.00001296,0.00001511,-0.00001467,0.00000280,-0.00000147,-0.00000234,
 0.00000117,-0.00000129,-0.00000021,0.00000104,0.00000122,-0.00000063,0
 .00000092,0.00000089,-0.00000006,-0.00000020,0.00000098,-0.00000033,-0
 .00001270,-0.00000441,0.00000192,0.00000496,0.00000112,-0.00000333,-0.
 00000566,-0.00002546,-0.00000893,0.00000988,0.00001074,-0.00004313,0.0
 0070646,-0.00056750,-0.00019797,-0.00058966,0.05848496,0.00014758,-0.0
 0002040,-0.00000822,0.00001249,-0.00004081,0.00001641,0.00000496,0.000
 01305,-0.00001267,-0.00001390,0.00005452,0.00001409,0.00001308,-0.0000
 1016,-0.00000568,0.00000757,0.00000312,-0.00000696,-0.00001377,-0.0000
 0169,-0.00000215,0.00000404,0.00001114,-0.00000099,0.00000356,-0.00000
 236,-0.00000044,0.00000202,-0.00000049,0.00000446,0.00000731,0.0000086
 5,0.00000201,-0.00000632,0.00000146,-0.00000128,-0.00030341,0.00009557
 ,-0.00012326,0.00002343,0.00000063,-0.00003174,-0.00001065,-0.00001082
 ,0.00001262,0.00006734,-0.00016376,0.00013972,-0.00005296,-0.00000331,
 0.00001719,-0.00000275,-0.00001769,-0.00003741,-0.00043058,0.00002717,
 0.00006259,-0.00015331,0.00003867,0.00006419,0.00001926,0.00001868,0.0
 0001513,-0.00001550,-0.00000695,-0.00003032,-0.00204485,-0.00138715,0.
 00417227,-0.00623500,0.00173175,0.00197442,-0.00041273,0.00103445,-0.0
 0321023,0.00029859,0.00010578,0.00001217,-0.04554151,-0.00746795,-0.04
 394651,0.00202590,0.00085978,0.00462875,-0.00004129,-0.00164839,0.0071
 3573,-0.00009606,-0.00134657,-0.00122443,-0.00001504,0.00000468,-0.000
 00021,0.00000395,0.00000218,0.00000562,0.00000014,0.00000017,0.0000006
 6,-0.00000016,0.00000093,0.00000134,-0.00000038,0.00000131,-0.00000085
 ,-0.00000015,-0.00000028,0.00000077,-0.00000460,-0.00000283,0.00000956
 ,0.00000026,-0.00000165,0.00000271,0.00000100,-0.00001170,0.00001005,-
 0.00001018,-0.00005101,0.00015737,0.00027945,-0.00029653,0.00020777,0.
 05086708,0.00746237,0.03407173,-0.00056373,0.00027880,-0.00000430,0.00
 005812,0.00008661,-0.00003244,-0.00000700,-0.00001931,0.00000366,0.000
 14733,-0.00018437,0.00005759,-0.00008011,0.00002010,0.00000558,-0.0000
 7550,0.00000076,0.00000259,0.00006361,0.00001657,-0.00001410,-0.000017
 79,-0.00005214,0.00001152,-0.00001735,0.00001578,-0.00000053,0.0000333
 6,-0.00003103,-0.00000575,-0.00002461,-0.00001275,0.00000559,0.0000121
 3,-0.00001567,-0.00000049,0.00126841,-0.00009621,-0.00013920,-0.000382
 23,-0.00018989,0.00006185,0.00002699,0.00013597,0.00000695,-0.00002005
 ,0.00002373,0.00001331,0.00005281,-0.00002012,-0.00000226,-0.00004703,
 -0.00001870,0.00000709,0.00007993,-0.00033698,0.00017923,-0.00029348,-
 0.00000478,-0.00002495,0.00008715,0.00004331,-0.00002161,-0.00007995,0
 .00003635,0.00001610,-0.00056435,0.00100890,0.00013024,-0.00131793,0.0
 0340144,-0.00099220,0.00065244,0.00027991,0.00006238,0.00004455,0.0003
 2320,0.00018508,0.01151004,0.01580638,0.00471281,-0.10969035,-0.103018
 80,-0.03575548,-0.00784434,-0.02723980,-0.00738608,-0.00388062,0.00006
 458,-0.00217225,0.00000056,0.00002218,-0.00003233,-0.00005557,0.000004
 63,0.00000396,-0.00000976,0.00000502,-0.00000180,-0.00000579,-0.000003
 90,0.00000072,-0.00000525,-0.00000704,-0.00000027,-0.00000090,-0.00000
 461,0.00000021,-0.00000062,-0.00000498,-0.00000262,0.00000073,-0.00000
 417,-0.00000206,0.00000371,-0.00000817,-0.00000057,0.00003010,0.000080
 44,0.00002920,-0.00001512,-0.00000645,-0.00002969,0.00064200,-0.000702
 99,0.00077835,0.11077754,0.00003068,-0.00000306,-0.00000387,0.00000951
 ,-0.00002512,0.00000280,-0.00000885,-0.00000806,0.00000374,0.00000382,
 0.00001226,-0.00000098,-0.00000525,-0.00000834,-0.00000025,-0.00000045
 ,0.00001395,-0.00000220,-0.00000692,-0.00000703,0.00000114,0.00000077,
 0.00001339,-0.00000021,-0.00000926,-0.00002973,0.00000654,-0.00004201,
 0.00001455,0.00000644,0.00003670,0.00000882,-0.00000395,-0.00001928,0.
 00002715,-0.00000184,-0.00015861,0.00009120,-0.00003817,-0.00000513,-0
 .00003065,0.00000130,-0.00000784,0.00000345,0.00000503,0.00000382,-0.0
 0002170,-0.00000785,-0.00008685,0.00001067,0.00000582,0.00005074,0.000
 00435,-0.00000682,-0.00006559,0.00015083,0.00021775,0.00020219,0.00007
 015,0.00000899,-0.00006912,-0.00002560,-0.00001407,0.00006034,-0.00002
 664,-0.00000793,0.00049374,-0.00011099,0.00017512,0.00408635,-0.001511
 69,-0.00154200,-0.00113137,-0.00057016,-0.00024857,0.00029494,-0.00045
 668,-0.00000800,-0.01435694,-0.01720600,-0.00686110,-0.10176574,-0.264
 26610,-0.06691103,0.00226771,0.00290577,0.00044697,-0.00003418,0.00178
 681,-0.00092222,0.00001152,0.00000257,0.00000174,-0.00000690,0.0000034
 1,-0.00000039,-0.00000319,0.00000348,-0.00000052,-0.00000479,-0.000000
 77,-0.00000037,-0.00000477,-0.00000017,-0.00000024,-0.00000115,-0.0000
 0500,-0.00000032,-0.00000152,-0.00000576,0.00000009,-0.00000692,-0.000
 00692,-0.00000065,0.00000535,0.00000216,-0.00000095,-0.00005259,-0.000
 12707,-0.00003896,0.00006166,0.00001288,-0.00000297,0.00011177,0.00065
 839,0.00113368,0.11031071,0.27851039,-0.00022272,0.00009498,-0.0000298
 5,0.00002940,0.00001641,-0.00002091,-0.00001725,-0.00001303,-0.0000012
 5,0.00004615,-0.00007381,0.00001594,-0.00002479,0.00000294,0.00001308,
 -0.00002712,-0.00000222,0.00001226,0.00002419,0.00000923,-0.00000206,-
 0.00000324,-0.00002114,-0.00000076,-0.00001096,0.00000329,-0.00000926,
 0.00000967,-0.00000502,-0.00000215,-0.00000700,-0.00000362,-0.00000187
 ,0.00000475,-0.00000242,0.00000365,0.00026078,0.00001177,0.00004910,-0
 .00017025,-0.00008882,0.00005775,0.00001513,0.00005745,-0.00002503,-0.
 00002962,0.00004068,0.00003646,0.00001312,-0.00000909,0.00002302,-0.00
 001009,-0.00000461,0.00000269,0.00010615,0.00014838,-0.00092318,0.0001
 0024,-0.00010913,0.00010303,0.00003143,0.00000553,0.00004674,-0.000024
 85,0.00002023,-0.00000626,-0.00010089,0.00036276,-0.00042749,-0.000194
 92,-0.00143617,0.00797158,-0.00012502,0.00016251,0.00026939,-0.0000427
 3,0.00001892,-0.00051983,-0.00125335,-0.00172671,0.00291546,-0.0354416
 8,-0.06664179,-0.05719093,-0.00201912,-0.00576303,0.00165259,-0.002204
 14,-0.00048309,0.00499906,-0.00000056,0.00001691,0.00000310,-0.0000240
 8,0.00000094,0.00000018,-0.00000323,0.00000199,-0.00000086,-0.00000226
 ,-0.00000110,0.00000209,-0.00000203,-0.00000233,0.00000237,-0.00000009
 ,-0.00000183,0.00000091,0.00000061,-0.00000171,0.00000340,0.00000086,-
 0.00000232,0.00000506,0.00000148,0.00000048,0.00000038,-0.00000860,-0.
 00000136,-0.00001233,-0.00000118,-0.00003815,0.00009391,0.00082805,0.0
 0098014,-0.00416221,0.03977505,0.07394978,0.04787767,0.00008368,-0.000
 15171,-0.00012637,-0.00002109,-0.00004489,0.00007736,0.00002286,0.0000
 2034,-0.00000522,-0.00002052,0.00002458,-0.00010108,-0.00000069,-0.000
 01401,0.00001652,0.00014332,0.00008272,-0.00005264,-0.00012097,-0.0000
 3224,0.00001280,0.00001364,0.00010628,-0.00001874,0.00006411,-0.000064
 47,0.00001150,-0.00005236,0.00003257,0.00000403,0.00004130,0.00000860,
 -0.00000600,-0.00002926,0.00003069,-0.00000118,0.00108959,0.00000688,0
 .00068241,0.00004588,0.00006032,-0.00010934,-0.00026821,-0.00005462,0.
 00009613,0.00004000,0.00003705,-0.00005946,-0.00006091,0.00002537,0.00
 001036,0.00005699,0.00000142,-0.00001289,0.00048433,-0.00017594,0.0000
 1056,0.00004823,-0.00013357,0.00010599,0.00002019,-0.00006703,-0.00000
 259,0.00005574,-0.00001045,-0.00000863,-0.00081447,-0.00261855,-0.0021
 9917,-0.00029405,-0.00062868,-0.00005815,-0.00002259,0.00016209,0.0002
 3934,-0.00007577,-0.00009364,-0.00005950,-0.00500903,-0.00153207,-0.00
 273768,-0.01216992,0.02698007,0.00019129,-0.14016148,0.12744112,-0.006
 57221,0.01049252,-0.01220530,0.00037591,-0.00017683,0.00002063,-0.0002
 3182,0.00003894,-0.00000435,0.00001435,0.00000794,-0.00000723,0.000001
 51,0.00000705,0.00000680,-0.00000034,0.00000633,0.00000543,0.,0.000000
 04,0.00000534,-0.00000078,-0.00000161,0.00000355,0.00000277,0.00000143
 ,0.00000312,-0.00000229,-0.00000821,-0.00001624,-0.00000233,0.00000173
 ,0.00001700,-0.00000142,0.00005227,-0.00004483,-0.00003637,-0.00070600
 ,0.00123203,0.00030310,0.00091555,-0.00060332,0.00086383,0.14676135,-0
 .00006466,-0.00010540,0.00010973,-0.00001635,-0.00007018,0.00004287,0.
 00002074,0.00004705,-0.00000671,0.00010596,-0.00004736,-0.00003647,-0.
 00005375,-0.00003784,-0.00000527,0.00007119,0.00011074,-0.00004175,-0.
 00009935,-0.00001382,0.00001303,0.00001048,0.00009800,-0.00001282,0.00
 006180,-0.00008450,0.00000517,-0.00005129,0.00001273,0.00000663,0.0000
 6158,0.00002336,-0.00000800,-0.00005111,0.00003791,0.00000121,-0.00086
 880,0.00089524,-0.00012077,-0.00025948,-0.00023701,0.00012361,-0.00015
 074,0.00011816,0.00003546,0.00011395,-0.00001280,-0.00005020,-0.000070
 40,-0.00000482,0.00000106,0.00004975,-0.00000423,-0.00000655,0.0009345
 0,-0.00013117,0.00004369,-0.00019247,-0.00032871,0.00004764,0.00003970
 ,-0.00003440,-0.00000962,0.00005145,-0.00006488,-0.00001713,-0.0021908
 7,-0.00232139,-0.00196688,-0.00079348,0.00009816,0.00002292,0.00003786
 ,0.00009772,0.00011043,-0.00011435,-0.00002711,-0.00001294,-0.00038119
 ,0.00162548,-0.00054552,-0.00293687,0.00467955,-0.00054960,0.12893382,
 -0.24249376,-0.00158424,0.01279839,-0.02259853,-0.00071623,-0.00002526
 ,0.00024893,-0.00008959,-0.00003424,0.00000042,-0.00000642,0.00000030,
 -0.00000155,-0.00000180,-0.00000044,0.00000467,-0.00000181,-0.00000034
 ,0.00000253,0.00000117,-0.00000179,-0.00000079,-0.00000120,-0.00000366
 ,-0.00000261,0.00000252,-0.00000672,-0.00000449,0.00000183,-0.00000699
 ,-0.00004167,-0.00000722,0.00001222,-0.00001208,-0.00000605,0.00003856
 ,0.00000234,-0.00001478,-0.00020282,0.00005814,-0.00002068,0.00031314,
 0.00039816,0.00054416,-0.13699148,0.26097621,0.00058876,-0.00012664,-0
 .00009326,0.00001411,-0.00007683,-0.00003414,-0.00002581,0.00000492,-0
 .00000236,-0.00003457,0.00023795,0.00006815,0.00006688,-0.00004364,-0.
 00001890,0.00006150,-0.00001846,-0.00000419,-0.00004441,-0.00000147,-0
 .00001518,0.00001011,0.00003516,-0.00000489,0.00001740,0.00001373,0.00
 000900,-0.00000060,0.00003610,0.00000511,0.00000542,0.00002429,-0.0000
 0197,-0.00000866,-0.00000629,-0.00000287,-0.00106236,0.00054069,-0.000
 39820,-0.00005342,-0.00013852,-0.00003767,-0.00001720,0.00002025,-0.00
 001378,-0.00011551,-0.00003214,0.00006514,-0.00005694,0.00008632,-0.00
 003095,0.00002511,0.00000967,0.00000701,0.00061368,0.00031564,0.000510
 95,0.00026554,-0.00018840,-0.00041839,-0.00004088,-0.00006920,-0.00005
 951,0.00011360,-0.00003966,-0.00001297,-0.00164020,-0.00355247,0.00632
 511,-0.00062225,-0.00094471,-0.00127392,-0.00006714,0.00062753,-0.0005
 3935,-0.00034003,-0.00024135,0.00006695,-0.00285215,-0.00012069,0.0048
 2610,-0.00215729,0.00615803,0.00451889,-0.00918552,-0.00297062,-0.0378
 8186,0.00375383,-0.00348899,0.00138800,-0.00022971,0.00009693,0.000049
 03,0.00002424,0.00000021,0.00001320,0.00000491,-0.00000286,0.00000470,
 0.00000423,0.00000451,0.00000266,0.00000263,0.00000515,-0.00000514,-0.
 00000037,0.00000205,0.00000153,-0.00000008,0.00000183,0.00000296,-0.00
 000083,0.00000032,0.00001128,-0.00000448,-0.00001574,-0.00001114,-0.00
 000245,-0.00001379,0.00002769,0.00002381,-0.00004929,0.00011067,-0.000
 28587,0.00040261,0.00028278,0.00100644,0.00050512,-0.00264092,0.009081
 61,0.00388431,0.02666831,-0.04006609,0.00084229,-0.00004772,0.00213465
 ,0.00246387,0.00079882,0.00001867,-0.00027221,-0.00024759,0.00199285,-
 0.00824325,-0.00113178,-0.00306823,0.00145830,0.00027970,-0.00008557,-
 0.00058478,0.00033427,0.00004922,0.00010535,0.00024203,0.00000733,0.00
 000811,-0.00007946,0.00043620,-0.00072923,0.00033170,0.00017249,0.0001
 4507,-0.00006375,-0.00026804,-0.00013485,0.00004945,-0.00011864,-0.000
 08428,0.00002046,0.05092949,-0.02620370,0.01701549,-0.00629021,0.00169
 904,-0.00048428,0.00357088,0.00052850,-0.00220061,-0.00071836,-0.00022
 074,0.00017386,0.00035290,-0.00017225,-0.00009004,0.00001755,-0.000014
 16,-0.00000383,0.00019687,-0.00293194,0.00156959,-0.00067677,0.0003719
 9,0.00010321,0.00013415,-0.00008940,-0.00014771,-0.00016009,0.00015006
 ,0.00008705,-0.01194163,0.00192861,-0.00312065,0.00431044,0.00478742,-
 0.00248000,-0.00024857,-0.00134415,-0.00069796,0.00037228,0.00042930,0
 .00025451,0.00011933,-0.00152186,0.00055016,0.00222675,-0.00404032,-0.
 00519785,-0.03155922,-0.00158892,-0.01218617,0.04346174,-0.02874487,0.
 03430753,0.00035716,-0.00098515,0.00111286,-0.00008927,-0.00042841,0.0
 0006971,-0.00012015,0.00003153,-0.00001809,-0.00005191,-0.00002367,-0.
 00000352,-0.00002828,-0.00012717,-0.00000219,0.00000928,-0.00001686,0.
 00000401,0.00001897,-0.00001980,-0.00002053,0.00002747,-0.00000526,-0.
 00001222,0.00000543,0.00001615,-0.00000133,0.00002083,0.00007000,-0.00
 000730,-0.00004715,0.00018305,-0.00005038,-0.00032664,0.00002070,0.000
 53464,-0.00140761,0.00041622,-0.00013910,-0.00048102,0.00191348,0.0031
 6492,-0.01318950,-0.01002185,0.00067188,0.00165080,-0.00060982,-0.0008
 4459,-0.00044725,0.00015798,0.00042587,-0.00000450,-0.00266304,-0.0001
 8388,0.00178177,0.00019759,0.00017020,-0.00006586,0.00004459,-0.000646
 26,-0.00001522,-0.00000079,0.00009861,-0.00019607,0.00009706,-0.000095
 96,0.00006212,-0.00031734,-0.00005942,-0.00009870,-0.00005676,-0.00002
 963,0.00003646,0.00015022,0.00011221,-0.00001362,-0.00010646,0.0000721
 9,-0.00002448,-0.03750598,-0.02205164,-0.00608575,0.01163085,0.0020879
 7,-0.00029555,0.00045574,-0.00176921,0.00133949,0.00076184,-0.00022512
 ,-0.00002392,-0.00021903,-0.00008622,-0.00001131,0.00010901,0.00008548
 ,-0.00002919,-0.00016471,0.00068714,-0.00027769,-0.00001285,0.00006569
 ,-0.00007291,-0.00012698,0.00008181,0.00006826,0.00008077,-0.00010042,
 -0.00003504,0.01373556,0.00154122,0.00472501,0.00043647,-0.00272383,0.
 00042846,0.00058970,0.00053223,0.00009153,0.00012521,-0.00010246,-0.00
 004818,0.00023003,-0.00086952,-0.00019938,-0.00263291,-0.00077086,-0.0
 0000558,-0.00929130,0.00073946,-0.00420833,-0.02544671,-0.02277868,-0.
 01441927,-0.00031266,0.00056743,-0.00063584,0.00060672,0.00011852,-0.0
 0011315,0.00000926,-0.00000975,0.00001802,0.00001931,0.00001671,0.0000
 0483,0.00000697,0.00001775,-0.00000361,0.00000654,0.00001136,-0.000000
 01,-0.00000126,0.00001464,0.00000072,-0.00001868,0.00000845,0.00001997
 ,-0.00000591,-0.00000011,0.00000280,-0.00002025,-0.00004003,0.00000942
 ,0.00014503,-0.00019092,-0.00007300,0.00009568,0.00001922,-0.00009654,
 -0.00029566,-0.00025152,-0.00001697,-0.00081934,-0.00085437,-0.0008715
 4,0.06095817,0.04653836,-0.00349043,0.00244620,0.00557248,-0.00000304,
 0.00028272,-0.00238418,0.00001185,-0.00017258,0.00020924,0.00152392,-0
 .00075441,0.00392590,-0.00062469,0.00035884,-0.00008004,-0.00040432,-0
 .00021664,-0.00024667,0.00020490,0.00000667,-0.00044742,-0.00002938,-0
 .00019168,0.00012719,-0.00003521,-0.00006014,-0.00041696,0.00014507,-0
 .00005049,0.00003657,-0.00015625,-0.00007897,0.00003392,0.00005300,-0.
 00007661,-0.00001241,0.04111956,-0.00973961,-0.01825083,-0.00257193,0.
 00043998,0.00115842,0.00116255,0.00080834,0.00190883,-0.00052312,0.000
 16499,0.00025771,0.00016545,0.00004536,0.00034029,-0.00012258,-0.00005
 722,0.00000346,0.00035823,-0.00006076,-0.00099378,0.00012371,-0.000064
 36,-0.00008853,0.00018039,-0.00003671,-0.00001763,-0.00011623,0.000151
 27,0.00001984,-0.00039166,-0.00152430,0.00170431,0.00051764,-0.0001046
 6,0.00185711,0.00007872,-0.00027393,-0.00009593,-0.00006726,0.00006540
 ,0.00006696,0.00018985,0.00001516,-0.00015741,-0.00013080,-0.00186015,
 0.00211217,-0.01274550,-0.00056697,0.00067203,0.00854893,-0.00748740,-
 0.01868451,-0.00008938,-0.00058905,-0.00102865,-0.00011479,-0.00010651
 ,0.00003093,-0.00003970,0.00002010,0.00002729,-0.00001839,-0.00001060,
 0.00003987,-0.00001189,-0.00003678,0.00002776,-0.00000044,-0.00001168,
 0.00000505,0.00000069,-0.00001073,-0.00003304,0.00000638,-0.00000311,-
 0.00002629,0.00000839,0.00000733,0.00001081,0.00000574,0.00001973,0.00
 001599,0.00002234,0.00005830,-0.00006878,-0.00004071,0.00010972,-0.000
 21654,-0.00043453,0.00015439,-0.00018374,0.00030482,0.00084278,-0.0014
 6364,-0.03256990,0.01814879,0.02473284\\-0.00000031,-0.00000036,-0.000
 00081,0.,0.00000010,0.00000073,0.00000004,-0.00000023,0.00000181,-0.00
 000011,-0.00000059,-0.00000037,0.00000014,-0.00000012,0.00000118,-0.00
 000039,-0.00000048,-0.00000122,-0.00000032,-0.00000092,-0.00000046,0.0
 0000003,-0.00000034,0.00000098,-0.00000002,-0.00000034,0.00000197,0.00
 000070,-0.00000007,0.00000314,0.00000036,0.00000018,0.00000408,0.00000
 068,-0.00000029,0.00000345,-0.00000059,-0.00000085,-0.00000210,-0.0000
 0099,-0.00000093,-0.00000311,-0.00000047,-0.00000102,-0.00000270,0.000
 00029,-0.00000014,0.00000094,0.00000010,-0.00000032,0.00000267,0.00000
 046,0.00000024,0.00000365,-0.00000003,-0.00000017,0.,0.00000034,-0.000
 00029,0.00000098,-0.00000025,-0.00000030,0.00000277,0.00000080,0.00000
 014,0.00000337,-0.00000007,0.00000040,-0.00000150,0.00000035,0.0000007
 9,-0.00000198,-0.00000028,0.00000034,-0.00000121,0.00000013,0.00000059
 ,0.00000052,-0.00000026,0.00000150,-0.00000353,-0.00000023,0.00000089,
 -0.00000458,0.00000005,0.00000073,-0.00000394,-0.00000017,0.00000041,-
 0.00000275,-0.00000088,-0.00000101,-0.00000428,-0.00000079,-0.00000109
 ,-0.00000349,-0.00000042,-0.00000087,-0.00000104,0.00000002,-0.0000005
 2,0.00000156,0.00000049,-0.00000015,0.00000421,0.00000067,0.00000014,0
 .00000528,0.00000060,0.00000005,0.00000484,0.00000054,-0.00000022,0.00
 000453,0.00000029,-0.00000031,0.00000303,0.00000022,0.00000016,0.00000
 097,0.00000010,0.00000094,-0.00000160,0.,0.00000157,-0.00000383,-0.000
 00019,0.00000161,-0.00000556,-0.00000037,0.00000067,-0.00000468,-0.000
 00027,0.00000047,-0.00000191\\\@


 TIME GOES, YOU SAY?  AH NO!
 ALAS, TIME STAYS, WE GO.
    -- A. DOBSON (1840-1921)
 Job cpu time:       7 days 16 hours 57 minutes 48.1 seconds.
 File lengths (MBytes):  RWF=  20855 Int=      0 D2E=      0 Chk=     58 Scr=      1
 Normal termination of Gaussian 09 at Sun Feb  2 14:01:42 2020.
