 Entering Gaussian System, Link 0=/share/apps/gaussian16/g16/g16
 Initial command:
 /share/apps/gaussian16/g16/l1.exe "/home/amen01//scratch/905/Gau-4579.inp" -scrdir="/home/amen01//scratch/905/"
 Entering Link 1 = /share/apps/gaussian16/g16/l1.exe PID=      4580.
  
 Copyright (c) 1988-2017, Gaussian, Inc.  All Rights Reserved.
  
 This is part of the Gaussian(R) 16 program.  It is based on
 the Gaussian(R) 09 system (copyright 2009, Gaussian, Inc.),
 the Gaussian(R) 03 system (copyright 2003, Gaussian, Inc.),
 the Gaussian(R) 98 system (copyright 1998, Gaussian, Inc.),
 the Gaussian(R) 94 system (copyright 1995, Gaussian, Inc.),
 the Gaussian 92(TM) system (copyright 1992, Gaussian, Inc.),
 the Gaussian 90(TM) system (copyright 1990, Gaussian, Inc.),
 the Gaussian 88(TM) system (copyright 1988, Gaussian, Inc.),
 the Gaussian 86(TM) system (copyright 1986, Carnegie Mellon
 University), and the Gaussian 82(TM) system (copyright 1983,
 Carnegie Mellon University). Gaussian is a federally registered
 trademark of Gaussian, Inc.
  
 This software contains proprietary and confidential information,
 including trade secrets, belonging to Gaussian, Inc.
  
 This software is provided under written license and may be
 used, copied, transmitted, or stored only in accord with that
 written license.
  
 The following legend is applicable only to US Government
 contracts under FAR:
  
                    RESTRICTED RIGHTS LEGEND
  
 Use, reproduction and disclosure by the US Government is
 subject to restrictions as set forth in subparagraphs (a)
 and (c) of the Commercial Computer Software - Restricted
 Rights clause in FAR 52.227-19.
  
 Gaussian, Inc.
 340 Quinnipiac St., Bldg. 40, Wallingford CT 06492
  
  
 ---------------------------------------------------------------
 Warning -- This program may not be used in any manner that
 competes with the business of Gaussian, Inc. or will provide
 assistance to any competitor of Gaussian, Inc.  The licensee
 of this program is prohibited from giving any competitor of
 Gaussian, Inc. access to this program.  By using this program,
 the user acknowledges that Gaussian, Inc. is engaged in the
 business of creating and licensing software in the field of
 computational chemistry and represents and warrants to the
 licensee that it is not a competitor of Gaussian, Inc. and that
 it will not use this program in any manner prohibited above.
 ---------------------------------------------------------------
  

 Cite this work as:
 Gaussian 16, Revision B.01,
 M. J. Frisch, G. W. Trucks, H. B. Schlegel, G. E. Scuseria, 
 M. A. Robb, J. R. Cheeseman, G. Scalmani, V. Barone, 
 G. A. Petersson, H. Nakatsuji, X. Li, M. Caricato, A. V. Marenich, 
 J. Bloino, B. G. Janesko, R. Gomperts, B. Mennucci, H. P. Hratchian, 
 J. V. Ortiz, A. F. Izmaylov, J. L. Sonnenberg, D. Williams-Young, 
 F. Ding, F. Lipparini, F. Egidi, J. Goings, B. Peng, A. Petrone, 
 T. Henderson, D. Ranasinghe, V. G. Zakrzewski, J. Gao, N. Rega, 
 G. Zheng, W. Liang, M. Hada, M. Ehara, K. Toyota, R. Fukuda, 
 J. Hasegawa, M. Ishida, T. Nakajima, Y. Honda, O. Kitao, H. Nakai, 
 T. Vreven, K. Throssell, J. A. Montgomery, Jr., J. E. Peralta, 
 F. Ogliaro, M. J. Bearpark, J. J. Heyd, E. N. Brothers, K. N. Kudin, 
 V. N. Staroverov, T. A. Keith, R. Kobayashi, J. Normand, 
 K. Raghavachari, A. P. Rendell, J. C. Burant, S. S. Iyengar, 
 J. Tomasi, M. Cossi, J. M. Millam, M. Klene, C. Adamo, R. Cammi, 
 J. W. Ochterski, R. L. Martin, K. Morokuma, O. Farkas, 
 J. B. Foresman, and D. J. Fox, Gaussian, Inc., Wallingford CT, 2016.
 
 ******************************************
 Gaussian 16:  ES64L-G16RevB.01 20-Dec-2017
                12-Aug-2019 
 ******************************************
 %nprocshared=20
 Will use up to   20 processors via shared memory.
 %mem=160GB
 %chk=7-memb2-carbTSguess-1b.chk
 ---------------------------------------------------------------
 # opt=(ts,calcfc,noeigen) freq b3lyp/6-311+g(d,p) int=grid=fine
 ---------------------------------------------------------------
 1/5=1,10=4,11=1,18=20,26=3,38=1/1,3;
 2/9=110,12=2,17=6,18=5,40=1/2;
 3/5=4,6=6,7=111,11=2,25=1,30=1,71=2,74=-5,75=-4,140=1/1,2,3;
 4//1;
 5/5=2,38=5/2;
 8/6=4,10=90,11=11/1;
 11/6=1,8=1,9=11,15=111,16=1/1,2,10;
 10/6=1,13=1/2;
 6/7=2,8=2,9=2,10=2,28=1/1;
 7/10=1,18=20,25=1/1,2,3,16;
 1/5=1,10=4,11=1,18=20,26=3/3(2);
 2/9=110/2;
 99//99;
 2/9=110/2;
 3/5=4,6=6,7=111,11=2,25=1,30=1,71=1,74=-5,75=-4/1,2,3;
 4/5=5,16=3,69=1/1;
 5/5=2,38=5/2;
 7//1,2,3,16;
 1/5=1,11=1,18=20,26=3/3(-5);
 2/9=110/2;
 6/7=2,8=2,9=2,10=2,19=2,28=1/1;
 99/9=1/99;
 ----------------------
 7-memb2-carbTSguess-1b
 ----------------------
 Symbolic Z-matrix:
 Charge =  0 Multiplicity = 1
 C                     0.75614  -0.98194  -0.35651 
 C                     0.40349   0.4515   -0.01819 
 C                     1.63457   1.07683   0.27484 
 C                     2.15924  -1.09238  -0.1359 
 C                     2.68319   0.14474   0.24396 
 C                     2.99574  -2.16042  -0.44998 
 C                     4.40617  -1.91346  -0.25885 
 C                     4.9013   -0.6773    0.117 
 C                     4.02557   0.44389   0.34502 
 C                     1.90316   2.44496   0.39521 
 C                     3.29804   2.78812   0.58144 
 C                     4.30556   1.84535   0.56433 
 C                     0.17079  -2.07966  -0.96582 
 C                     0.97378  -3.21948  -1.25686 
 C                     2.33831  -3.28833  -1.00843 
 C                    -0.71839   1.30201  -0.08235 
 C                    -0.47093   2.73776  -0.07319 
 C                     0.79845   3.2857    0.18225 
 C                    -2.07928   0.84728  -0.11641 
 C                    -3.10582   1.73619  -0.50858 
 C                    -2.80605   3.13067  -0.67598 
 C                    -1.56691   3.61067  -0.39866 
 C                    -2.43919  -0.46989   0.35854 
 C                    -3.76595  -0.95486   0.10106 
 C                    -4.7419   -0.07323  -0.40158 
 C                    -4.42623   1.24519  -0.65367 
 C                    -4.06744  -2.35423   0.33409 
 C                    -3.21367  -3.14968   1.00137 
 C                    -2.01255  -2.54096   1.65283 
 C                    -1.65189  -1.13836   1.32241 
 H                    -0.8763   -2.0994   -1.2417 
 H                     0.48824  -4.0715   -1.72081 
 H                     2.89294  -4.18041  -1.27984 
 H                     5.10799  -2.71855  -0.45208 
 H                     5.97518  -0.54821   0.20626 
 H                     5.3329    2.17494   0.68219 
 H                     3.56259   3.83285   0.70899 
 H                     0.91305   4.36498   0.16553 
 H                    -1.37125   4.67669  -0.44564 
 H                    -3.60667   3.80295  -0.96537 
 H                    -5.19968   1.9319   -0.98281 
 H                    -5.75043  -0.43472  -0.57553 
 H                    -4.99106  -2.74433  -0.08271 
 H                    -3.38937  -4.21842   1.08512 
 H                    -1.01575  -2.09019   1.06321 
 H                    -2.10405  -2.60352   2.74921 
 

 GradGradGradGradGradGradGradGradGradGradGradGradGradGradGradGradGradGrad
 Berny optimization.
 Initialization pass.
                           ----------------------------
                           !    Initial Parameters    !
                           ! (Angstroms and Degrees)  !
 --------------------------                            --------------------------
 ! Name  Definition              Value          Derivative Info.                !
 --------------------------------------------------------------------------------
 ! R1    R(1,2)                  1.5145         calculate D2E/DX2 analytically  !
 ! R2    R(1,4)                  1.4246         calculate D2E/DX2 analytically  !
 ! R3    R(1,13)                 1.3852         calculate D2E/DX2 analytically  !
 ! R4    R(2,3)                  1.4115         calculate D2E/DX2 analytically  !
 ! R5    R(2,16)                 1.4093         calculate D2E/DX2 analytically  !
 ! R6    R(3,5)                  1.4033         calculate D2E/DX2 analytically  !
 ! R7    R(3,10)                 1.3994         calculate D2E/DX2 analytically  !
 ! R8    R(4,5)                  1.3962         calculate D2E/DX2 analytically  !
 ! R9    R(4,6)                  1.3925         calculate D2E/DX2 analytically  !
 ! R10   R(5,9)                  1.379          calculate D2E/DX2 analytically  !
 ! R11   R(6,7)                  1.4446         calculate D2E/DX2 analytically  !
 ! R12   R(6,15)                 1.42           calculate D2E/DX2 analytically  !
 ! R13   R(7,8)                  1.3837         calculate D2E/DX2 analytically  !
 ! R14   R(7,34)                 1.0854         calculate D2E/DX2 analytically  !
 ! R15   R(8,9)                  1.4408         calculate D2E/DX2 analytically  !
 ! R16   R(8,35)                 1.0853         calculate D2E/DX2 analytically  !
 ! R17   R(9,12)                 1.4459         calculate D2E/DX2 analytically  !
 ! R18   R(10,11)                1.4485         calculate D2E/DX2 analytically  !
 ! R19   R(10,18)                1.4045         calculate D2E/DX2 analytically  !
 ! R20   R(11,12)                1.3799         calculate D2E/DX2 analytically  !
 ! R21   R(11,37)                1.0852         calculate D2E/DX2 analytically  !
 ! R22   R(12,36)                1.0853         calculate D2E/DX2 analytically  !
 ! R23   R(13,14)                1.4243         calculate D2E/DX2 analytically  !
 ! R24   R(13,31)                1.083          calculate D2E/DX2 analytically  !
 ! R25   R(14,15)                1.3887         calculate D2E/DX2 analytically  !
 ! R26   R(14,32)                1.0849         calculate D2E/DX2 analytically  !
 ! R27   R(15,33)                1.0849         calculate D2E/DX2 analytically  !
 ! R28   R(16,17)                1.4569         calculate D2E/DX2 analytically  !
 ! R29   R(16,19)                1.4353         calculate D2E/DX2 analytically  !
 ! R30   R(17,18)                1.406          calculate D2E/DX2 analytically  !
 ! R31   R(17,22)                1.4384         calculate D2E/DX2 analytically  !
 ! R32   R(18,38)                1.0855         calculate D2E/DX2 analytically  !
 ! R33   R(19,20)                1.4134         calculate D2E/DX2 analytically  !
 ! R34   R(19,23)                1.4457         calculate D2E/DX2 analytically  !
 ! R35   R(20,21)                1.4361         calculate D2E/DX2 analytically  !
 ! R36   R(20,26)                1.4162         calculate D2E/DX2 analytically  !
 ! R37   R(21,22)                1.3575         calculate D2E/DX2 analytically  !
 ! R38   R(21,40)                1.0848         calculate D2E/DX2 analytically  !
 ! R39   R(22,39)                1.0848         calculate D2E/DX2 analytically  !
 ! R40   R(23,24)                1.4359         calculate D2E/DX2 analytically  !
 ! R41   R(23,30)                1.4127         calculate D2E/DX2 analytically  !
 ! R42   R(24,25)                1.408          calculate D2E/DX2 analytically  !
 ! R43   R(24,27)                1.4503         calculate D2E/DX2 analytically  !
 ! R44   R(25,26)                1.3789         calculate D2E/DX2 analytically  !
 ! R45   R(25,42)                1.0854         calculate D2E/DX2 analytically  !
 ! R46   R(26,41)                1.0854         calculate D2E/DX2 analytically  !
 ! R47   R(27,28)                1.3442         calculate D2E/DX2 analytically  !
 ! R48   R(27,43)                1.0858         calculate D2E/DX2 analytically  !
 ! R49   R(28,29)                1.4959         calculate D2E/DX2 analytically  !
 ! R50   R(28,44)                1.0863         calculate D2E/DX2 analytically  !
 ! R51   R(29,30)                1.4854         calculate D2E/DX2 analytically  !
 ! R52   R(29,45)                1.2428         calculate D2E/DX2 analytically  !
 ! R53   R(29,46)                1.102          calculate D2E/DX2 analytically  !
 ! R54   R(30,45)                1.1738         calculate D2E/DX2 analytically  !
 ! A1    A(2,1,4)              105.5524         calculate D2E/DX2 analytically  !
 ! A2    A(2,1,13)             138.5831         calculate D2E/DX2 analytically  !
 ! A3    A(4,1,13)             115.0153         calculate D2E/DX2 analytically  !
 ! A4    A(1,2,3)              105.2245         calculate D2E/DX2 analytically  !
 ! A5    A(1,2,16)             138.2808         calculate D2E/DX2 analytically  !
 ! A6    A(3,2,16)             115.873          calculate D2E/DX2 analytically  !
 ! A7    A(2,3,5)              110.664          calculate D2E/DX2 analytically  !
 ! A8    A(2,3,10)             128.1956         calculate D2E/DX2 analytically  !
 ! A9    A(5,3,10)             120.5186         calculate D2E/DX2 analytically  !
 ! A10   A(1,4,5)              110.0627         calculate D2E/DX2 analytically  !
 ! A11   A(1,4,6)              128.0369         calculate D2E/DX2 analytically  !
 ! A12   A(5,4,6)              121.034          calculate D2E/DX2 analytically  !
 ! A13   A(3,5,4)              108.3065         calculate D2E/DX2 analytically  !
 ! A14   A(3,5,9)              125.5692         calculate D2E/DX2 analytically  !
 ! A15   A(4,5,9)              125.2724         calculate D2E/DX2 analytically  !
 ! A16   A(4,6,7)              115.1853         calculate D2E/DX2 analytically  !
 ! A17   A(4,6,15)             114.8233         calculate D2E/DX2 analytically  !
 ! A18   A(7,6,15)             129.7827         calculate D2E/DX2 analytically  !
 ! A19   A(6,7,8)              122.5511         calculate D2E/DX2 analytically  !
 ! A20   A(6,7,34)             118.748          calculate D2E/DX2 analytically  !
 ! A21   A(8,7,34)             118.6632         calculate D2E/DX2 analytically  !
 ! A22   A(7,8,9)              121.3793         calculate D2E/DX2 analytically  !
 ! A23   A(7,8,35)             118.861          calculate D2E/DX2 analytically  !
 ! A24   A(9,8,35)             119.7249         calculate D2E/DX2 analytically  !
 ! A25   A(5,9,8)              114.2832         calculate D2E/DX2 analytically  !
 ! A26   A(5,9,12)             114.1974         calculate D2E/DX2 analytically  !
 ! A27   A(8,9,12)             131.3425         calculate D2E/DX2 analytically  !
 ! A28   A(3,10,11)            115.3085         calculate D2E/DX2 analytically  !
 ! A29   A(3,10,18)            114.9114         calculate D2E/DX2 analytically  !
 ! A30   A(11,10,18)           129.4292         calculate D2E/DX2 analytically  !
 ! A31   A(10,11,12)           122.6598         calculate D2E/DX2 analytically  !
 ! A32   A(10,11,37)           118.5503         calculate D2E/DX2 analytically  !
 ! A33   A(12,11,37)           118.7624         calculate D2E/DX2 analytically  !
 ! A34   A(9,12,11)            121.5139         calculate D2E/DX2 analytically  !
 ! A35   A(9,12,36)            119.6115         calculate D2E/DX2 analytically  !
 ! A36   A(11,12,36)           118.8352         calculate D2E/DX2 analytically  !
 ! A37   A(1,13,14)            119.0653         calculate D2E/DX2 analytically  !
 ! A38   A(1,13,31)            122.3468         calculate D2E/DX2 analytically  !
 ! A39   A(14,13,31)           118.5834         calculate D2E/DX2 analytically  !
 ! A40   A(13,14,15)           123.855          calculate D2E/DX2 analytically  !
 ! A41   A(13,14,32)           117.6171         calculate D2E/DX2 analytically  !
 ! A42   A(15,14,32)           118.5122         calculate D2E/DX2 analytically  !
 ! A43   A(6,15,14)            119.0729         calculate D2E/DX2 analytically  !
 ! A44   A(6,15,33)            120.9861         calculate D2E/DX2 analytically  !
 ! A45   A(14,15,33)           119.8901         calculate D2E/DX2 analytically  !
 ! A46   A(2,16,17)            117.3372         calculate D2E/DX2 analytically  !
 ! A47   A(2,16,19)            124.3806         calculate D2E/DX2 analytically  !
 ! A48   A(17,16,19)           118.2562         calculate D2E/DX2 analytically  !
 ! A49   A(16,17,18)           122.5839         calculate D2E/DX2 analytically  !
 ! A50   A(16,17,22)           117.8518         calculate D2E/DX2 analytically  !
 ! A51   A(18,17,22)           119.5054         calculate D2E/DX2 analytically  !
 ! A52   A(10,18,17)           120.291          calculate D2E/DX2 analytically  !
 ! A53   A(10,18,38)           120.9632         calculate D2E/DX2 analytically  !
 ! A54   A(17,18,38)           118.6862         calculate D2E/DX2 analytically  !
 ! A55   A(16,19,20)           119.7344         calculate D2E/DX2 analytically  !
 ! A56   A(16,19,23)           121.1257         calculate D2E/DX2 analytically  !
 ! A57   A(20,19,23)           118.9038         calculate D2E/DX2 analytically  !
 ! A58   A(19,20,21)           119.4335         calculate D2E/DX2 analytically  !
 ! A59   A(19,20,26)           119.1791         calculate D2E/DX2 analytically  !
 ! A60   A(21,20,26)           121.2869         calculate D2E/DX2 analytically  !
 ! A61   A(20,21,22)           120.6681         calculate D2E/DX2 analytically  !
 ! A62   A(20,21,40)           118.6081         calculate D2E/DX2 analytically  !
 ! A63   A(22,21,40)           120.6024         calculate D2E/DX2 analytically  !
 ! A64   A(17,22,21)           121.813          calculate D2E/DX2 analytically  !
 ! A65   A(17,22,39)           117.9499         calculate D2E/DX2 analytically  !
 ! A66   A(21,22,39)           120.2149         calculate D2E/DX2 analytically  !
 ! A67   A(19,23,24)           118.6098         calculate D2E/DX2 analytically  !
 ! A68   A(19,23,30)           121.0993         calculate D2E/DX2 analytically  !
 ! A69   A(24,23,30)           118.5204         calculate D2E/DX2 analytically  !
 ! A70   A(23,24,25)           119.5382         calculate D2E/DX2 analytically  !
 ! A71   A(23,24,27)           119.2847         calculate D2E/DX2 analytically  !
 ! A72   A(25,24,27)           121.1605         calculate D2E/DX2 analytically  !
 ! A73   A(24,25,26)           120.3498         calculate D2E/DX2 analytically  !
 ! A74   A(24,25,42)           119.521          calculate D2E/DX2 analytically  !
 ! A75   A(26,25,42)           120.1227         calculate D2E/DX2 analytically  !
 ! A76   A(20,26,25)           121.7492         calculate D2E/DX2 analytically  !
 ! A77   A(20,26,41)           118.4313         calculate D2E/DX2 analytically  !
 ! A78   A(25,26,41)           119.8162         calculate D2E/DX2 analytically  !
 ! A79   A(24,27,28)           121.2447         calculate D2E/DX2 analytically  !
 ! A80   A(24,27,43)           117.5034         calculate D2E/DX2 analytically  !
 ! A81   A(28,27,43)           121.213          calculate D2E/DX2 analytically  !
 ! A82   A(27,28,29)           119.037          calculate D2E/DX2 analytically  !
 ! A83   A(27,28,44)           121.1797         calculate D2E/DX2 analytically  !
 ! A84   A(29,28,44)           119.7781         calculate D2E/DX2 analytically  !
 ! A85   A(28,29,30)           118.8371         calculate D2E/DX2 analytically  !
 ! A86   A(28,29,45)           125.8043         calculate D2E/DX2 analytically  !
 ! A87   A(28,29,46)           110.0916         calculate D2E/DX2 analytically  !
 ! A88   A(30,29,46)           107.1621         calculate D2E/DX2 analytically  !
 ! A89   A(45,29,46)           124.0025         calculate D2E/DX2 analytically  !
 ! A90   A(23,30,29)           117.5971         calculate D2E/DX2 analytically  !
 ! A91   A(23,30,45)           122.3481         calculate D2E/DX2 analytically  !
 ! D1    D(4,1,2,3)              4.109          calculate D2E/DX2 analytically  !
 ! D2    D(4,1,2,16)           174.1185         calculate D2E/DX2 analytically  !
 ! D3    D(13,1,2,3)          -164.1285         calculate D2E/DX2 analytically  !
 ! D4    D(13,1,2,16)            5.881          calculate D2E/DX2 analytically  !
 ! D5    D(2,1,4,5)             -2.514          calculate D2E/DX2 analytically  !
 ! D6    D(2,1,4,6)           -171.7996         calculate D2E/DX2 analytically  !
 ! D7    D(13,1,4,5)           168.9277         calculate D2E/DX2 analytically  !
 ! D8    D(13,1,4,6)            -0.358          calculate D2E/DX2 analytically  !
 ! D9    D(2,1,13,14)          170.3592         calculate D2E/DX2 analytically  !
 ! D10   D(2,1,13,31)           -8.8587         calculate D2E/DX2 analytically  !
 ! D11   D(4,1,13,14)            2.8757         calculate D2E/DX2 analytically  !
 ! D12   D(4,1,13,31)         -176.3421         calculate D2E/DX2 analytically  !
 ! D13   D(1,2,3,5)             -4.3327         calculate D2E/DX2 analytically  !
 ! D14   D(1,2,3,10)           166.5351         calculate D2E/DX2 analytically  !
 ! D15   D(16,2,3,5)          -176.9606         calculate D2E/DX2 analytically  !
 ! D16   D(16,2,3,10)           -6.0928         calculate D2E/DX2 analytically  !
 ! D17   D(1,2,16,17)         -158.9786         calculate D2E/DX2 analytically  !
 ! D18   D(1,2,16,19)           22.9149         calculate D2E/DX2 analytically  !
 ! D19   D(3,2,16,17)           10.2994         calculate D2E/DX2 analytically  !
 ! D20   D(3,2,16,19)         -167.8071         calculate D2E/DX2 analytically  !
 ! D21   D(2,3,5,4)              2.9121         calculate D2E/DX2 analytically  !
 ! D22   D(2,3,5,9)            172.7663         calculate D2E/DX2 analytically  !
 ! D23   D(10,3,5,4)          -168.7627         calculate D2E/DX2 analytically  !
 ! D24   D(10,3,5,9)             1.0915         calculate D2E/DX2 analytically  !
 ! D25   D(2,3,10,11)         -174.4764         calculate D2E/DX2 analytically  !
 ! D26   D(2,3,10,18)           -0.6259         calculate D2E/DX2 analytically  !
 ! D27   D(5,3,10,11)           -4.4028         calculate D2E/DX2 analytically  !
 ! D28   D(5,3,10,18)          169.4477         calculate D2E/DX2 analytically  !
 ! D29   D(1,4,5,3)             -0.08           calculate D2E/DX2 analytically  !
 ! D30   D(1,4,5,9)           -169.972          calculate D2E/DX2 analytically  !
 ! D31   D(6,4,5,3)            170.0805         calculate D2E/DX2 analytically  !
 ! D32   D(6,4,5,9)              0.1886         calculate D2E/DX2 analytically  !
 ! D33   D(1,4,6,7)            172.492          calculate D2E/DX2 analytically  !
 ! D34   D(1,4,6,15)            -2.7788         calculate D2E/DX2 analytically  !
 ! D35   D(5,4,6,7)              4.2514         calculate D2E/DX2 analytically  !
 ! D36   D(5,4,6,15)          -171.0194         calculate D2E/DX2 analytically  !
 ! D37   D(3,5,9,8)           -172.6092         calculate D2E/DX2 analytically  !
 ! D38   D(3,5,9,12)             3.1147         calculate D2E/DX2 analytically  !
 ! D39   D(4,5,9,8)             -4.4296         calculate D2E/DX2 analytically  !
 ! D40   D(4,5,9,12)           171.2943         calculate D2E/DX2 analytically  !
 ! D41   D(4,6,7,8)             -4.4326         calculate D2E/DX2 analytically  !
 ! D42   D(4,6,7,34)           177.8319         calculate D2E/DX2 analytically  !
 ! D43   D(15,6,7,8)           169.9795         calculate D2E/DX2 analytically  !
 ! D44   D(15,6,7,34)           -7.7561         calculate D2E/DX2 analytically  !
 ! D45   D(4,6,15,14)            3.2829         calculate D2E/DX2 analytically  !
 ! D46   D(4,6,15,33)         -179.315          calculate D2E/DX2 analytically  !
 ! D47   D(7,6,15,14)         -171.1457         calculate D2E/DX2 analytically  !
 ! D48   D(7,6,15,33)            6.2564         calculate D2E/DX2 analytically  !
 ! D49   D(6,7,8,9)              0.1948         calculate D2E/DX2 analytically  !
 ! D50   D(6,7,8,35)          -177.6541         calculate D2E/DX2 analytically  !
 ! D51   D(34,7,8,9)           177.9321         calculate D2E/DX2 analytically  !
 ! D52   D(34,7,8,35)            0.0833         calculate D2E/DX2 analytically  !
 ! D53   D(7,8,9,5)              4.1288         calculate D2E/DX2 analytically  !
 ! D54   D(7,8,9,12)          -170.6738         calculate D2E/DX2 analytically  !
 ! D55   D(35,8,9,5)          -178.0407         calculate D2E/DX2 analytically  !
 ! D56   D(35,8,9,12)            7.1568         calculate D2E/DX2 analytically  !
 ! D57   D(5,9,12,11)           -3.8463         calculate D2E/DX2 analytically  !
 ! D58   D(5,9,12,36)          178.4624         calculate D2E/DX2 analytically  !
 ! D59   D(8,9,12,11)          170.9598         calculate D2E/DX2 analytically  !
 ! D60   D(8,9,12,36)           -6.7316         calculate D2E/DX2 analytically  !
 ! D61   D(3,10,11,12)           3.6364         calculate D2E/DX2 analytically  !
 ! D62   D(3,10,11,37)        -178.2933         calculate D2E/DX2 analytically  !
 ! D63   D(18,10,11,12)       -169.1376         calculate D2E/DX2 analytically  !
 ! D64   D(18,10,11,37)          8.9327         calculate D2E/DX2 analytically  !
 ! D65   D(3,10,18,17)           2.5444         calculate D2E/DX2 analytically  !
 ! D66   D(3,10,18,38)        -174.6116         calculate D2E/DX2 analytically  !
 ! D67   D(11,10,18,17)        175.3419         calculate D2E/DX2 analytically  !
 ! D68   D(11,10,18,38)         -1.814          calculate D2E/DX2 analytically  !
 ! D69   D(10,11,12,9)           0.561          calculate D2E/DX2 analytically  !
 ! D70   D(10,11,12,36)        178.2698         calculate D2E/DX2 analytically  !
 ! D71   D(37,11,12,9)        -177.5053         calculate D2E/DX2 analytically  !
 ! D72   D(37,11,12,36)          0.2035         calculate D2E/DX2 analytically  !
 ! D73   D(1,13,14,15)          -2.351          calculate D2E/DX2 analytically  !
 ! D74   D(1,13,14,32)         179.1148         calculate D2E/DX2 analytically  !
 ! D75   D(31,13,14,15)        176.8965         calculate D2E/DX2 analytically  !
 ! D76   D(31,13,14,32)         -1.6376         calculate D2E/DX2 analytically  !
 ! D77   D(13,14,15,6)          -0.9719         calculate D2E/DX2 analytically  !
 ! D78   D(13,14,15,33)       -178.4031         calculate D2E/DX2 analytically  !
 ! D79   D(32,14,15,6)         177.55           calculate D2E/DX2 analytically  !
 ! D80   D(32,14,15,33)          0.1188         calculate D2E/DX2 analytically  !
 ! D81   D(2,16,17,18)          -9.0921         calculate D2E/DX2 analytically  !
 ! D82   D(2,16,17,22)         168.0993         calculate D2E/DX2 analytically  !
 ! D83   D(19,16,17,18)        169.1339         calculate D2E/DX2 analytically  !
 ! D84   D(19,16,17,22)        -13.6748         calculate D2E/DX2 analytically  !
 ! D85   D(2,16,19,20)        -164.4092         calculate D2E/DX2 analytically  !
 ! D86   D(2,16,19,23)          21.2353         calculate D2E/DX2 analytically  !
 ! D87   D(17,16,19,20)         17.5004         calculate D2E/DX2 analytically  !
 ! D88   D(17,16,19,23)       -156.8551         calculate D2E/DX2 analytically  !
 ! D89   D(16,17,18,10)          2.2924         calculate D2E/DX2 analytically  !
 ! D90   D(16,17,18,38)        179.5124         calculate D2E/DX2 analytically  !
 ! D91   D(22,17,18,10)       -174.8542         calculate D2E/DX2 analytically  !
 ! D92   D(22,17,18,38)          2.3659         calculate D2E/DX2 analytically  !
 ! D93   D(16,17,22,21)          1.5771         calculate D2E/DX2 analytically  !
 ! D94   D(16,17,22,39)       -176.7098         calculate D2E/DX2 analytically  !
 ! D95   D(18,17,22,21)        178.8579         calculate D2E/DX2 analytically  !
 ! D96   D(18,17,22,39)          0.571          calculate D2E/DX2 analytically  !
 ! D97   D(16,19,20,21)         -9.2011         calculate D2E/DX2 analytically  !
 ! D98   D(16,19,20,26)        174.3965         calculate D2E/DX2 analytically  !
 ! D99   D(23,19,20,21)        165.2799         calculate D2E/DX2 analytically  !
 ! D100  D(23,19,20,26)        -11.1226         calculate D2E/DX2 analytically  !
 ! D101  D(16,19,23,24)       -169.8979         calculate D2E/DX2 analytically  !
 ! D102  D(16,19,23,30)         25.4816         calculate D2E/DX2 analytically  !
 ! D103  D(20,19,23,24)         15.7007         calculate D2E/DX2 analytically  !
 ! D104  D(20,19,23,30)       -148.9198         calculate D2E/DX2 analytically  !
 ! D105  D(19,20,21,22)         -3.2362         calculate D2E/DX2 analytically  !
 ! D106  D(19,20,21,40)       -179.255          calculate D2E/DX2 analytically  !
 ! D107  D(26,20,21,22)        173.0882         calculate D2E/DX2 analytically  !
 ! D108  D(26,20,21,40)         -2.9306         calculate D2E/DX2 analytically  !
 ! D109  D(19,20,26,25)          1.0652         calculate D2E/DX2 analytically  !
 ! D110  D(19,20,26,41)       -178.275          calculate D2E/DX2 analytically  !
 ! D111  D(21,20,26,25)       -175.2683         calculate D2E/DX2 analytically  !
 ! D112  D(21,20,26,41)          5.3915         calculate D2E/DX2 analytically  !
 ! D113  D(20,21,22,17)          7.0049         calculate D2E/DX2 analytically  !
 ! D114  D(20,21,22,39)       -174.7463         calculate D2E/DX2 analytically  !
 ! D115  D(40,21,22,17)       -177.0559         calculate D2E/DX2 analytically  !
 ! D116  D(40,21,22,39)          1.1928         calculate D2E/DX2 analytically  !
 ! D117  D(19,23,24,25)        -10.3839         calculate D2E/DX2 analytically  !
 ! D118  D(19,23,24,27)        168.1541         calculate D2E/DX2 analytically  !
 ! D119  D(30,23,24,25)        154.6375         calculate D2E/DX2 analytically  !
 ! D120  D(30,23,24,27)        -26.8244         calculate D2E/DX2 analytically  !
 ! D121  D(19,23,30,29)       -173.8781         calculate D2E/DX2 analytically  !
 ! D122  D(19,23,30,45)       -110.6374         calculate D2E/DX2 analytically  !
 ! D123  D(24,23,30,29)         21.4881         calculate D2E/DX2 analytically  !
 ! D124  D(24,23,30,45)         84.7288         calculate D2E/DX2 analytically  !
 ! D125  D(23,24,25,26)          0.407          calculate D2E/DX2 analytically  !
 ! D126  D(23,24,25,42)       -178.6635         calculate D2E/DX2 analytically  !
 ! D127  D(27,24,25,26)       -178.1029         calculate D2E/DX2 analytically  !
 ! D128  D(27,24,25,42)          2.8266         calculate D2E/DX2 analytically  !
 ! D129  D(23,24,27,28)         11.8745         calculate D2E/DX2 analytically  !
 ! D130  D(23,24,27,43)       -165.8844         calculate D2E/DX2 analytically  !
 ! D131  D(25,24,27,28)       -169.6119         calculate D2E/DX2 analytically  !
 ! D132  D(25,24,27,43)         12.6292         calculate D2E/DX2 analytically  !
 ! D133  D(24,25,26,20)          4.4283         calculate D2E/DX2 analytically  !
 ! D134  D(24,25,26,41)       -176.2404         calculate D2E/DX2 analytically  !
 ! D135  D(42,25,26,20)       -176.5068         calculate D2E/DX2 analytically  !
 ! D136  D(42,25,26,41)          2.8245         calculate D2E/DX2 analytically  !
 ! D137  D(24,27,28,29)          7.3586         calculate D2E/DX2 analytically  !
 ! D138  D(24,27,28,44)       -173.4764         calculate D2E/DX2 analytically  !
 ! D139  D(43,27,28,29)       -174.9657         calculate D2E/DX2 analytically  !
 ! D140  D(43,27,28,44)          4.1993         calculate D2E/DX2 analytically  !
 ! D141  D(27,28,29,30)        -12.0293         calculate D2E/DX2 analytically  !
 ! D142  D(27,28,29,45)        -71.5275         calculate D2E/DX2 analytically  !
 ! D143  D(27,28,29,46)        112.0316         calculate D2E/DX2 analytically  !
 ! D144  D(44,28,29,30)        168.7938         calculate D2E/DX2 analytically  !
 ! D145  D(44,28,29,45)        109.2956         calculate D2E/DX2 analytically  !
 ! D146  D(44,28,29,46)        -67.1454         calculate D2E/DX2 analytically  !
 ! D147  D(28,29,30,23)         -2.6369         calculate D2E/DX2 analytically  !
 ! D148  D(46,29,30,23)       -128.1202         calculate D2E/DX2 analytically  !
 --------------------------------------------------------------------------------
 Trust Radius=3.00D-01 FncErr=1.00D-07 GrdErr=1.00D-06 EigMax=2.50D+02 EigMin=1.00D-04
 Number of steps in this run=    276 maximum allowed number of steps=    276.
 Search for a saddle point of order  1.
 GradGradGradGradGradGradGradGradGradGradGradGradGradGradGradGradGradGrad

                          Input orientation:                          
 ---------------------------------------------------------------------
 Center     Atomic      Atomic             Coordinates (Angstroms)
 Number     Number       Type             X           Y           Z
 ---------------------------------------------------------------------
      1          6           0        0.756140   -0.981940   -0.356510
      2          6           0        0.403490    0.451500   -0.018190
      3          6           0        1.634570    1.076830    0.274840
      4          6           0        2.159240   -1.092380   -0.135900
      5          6           0        2.683190    0.144740    0.243960
      6          6           0        2.995740   -2.160420   -0.449980
      7          6           0        4.406170   -1.913460   -0.258850
      8          6           0        4.901300   -0.677300    0.117000
      9          6           0        4.025570    0.443890    0.345020
     10          6           0        1.903160    2.444960    0.395210
     11          6           0        3.298040    2.788120    0.581440
     12          6           0        4.305560    1.845350    0.564330
     13          6           0        0.170790   -2.079660   -0.965820
     14          6           0        0.973780   -3.219480   -1.256860
     15          6           0        2.338310   -3.288330   -1.008430
     16          6           0       -0.718390    1.302010   -0.082350
     17          6           0       -0.470930    2.737760   -0.073190
     18          6           0        0.798450    3.285700    0.182250
     19          6           0       -2.079280    0.847280   -0.116410
     20          6           0       -3.105820    1.736190   -0.508580
     21          6           0       -2.806050    3.130670   -0.675980
     22          6           0       -1.566910    3.610670   -0.398660
     23          6           0       -2.439190   -0.469890    0.358540
     24          6           0       -3.765950   -0.954860    0.101060
     25          6           0       -4.741900   -0.073230   -0.401580
     26          6           0       -4.426230    1.245190   -0.653670
     27          6           0       -4.067440   -2.354230    0.334090
     28          6           0       -3.213670   -3.149680    1.001370
     29          6           0       -2.012550   -2.540960    1.652830
     30          6           0       -1.651890   -1.138360    1.322410
     31          1           0       -0.876300   -2.099400   -1.241700
     32          1           0        0.488240   -4.071500   -1.720810
     33          1           0        2.892940   -4.180410   -1.279840
     34          1           0        5.107990   -2.718550   -0.452080
     35          1           0        5.975180   -0.548210    0.206260
     36          1           0        5.332900    2.174940    0.682190
     37          1           0        3.562590    3.832850    0.708990
     38          1           0        0.913050    4.364980    0.165530
     39          1           0       -1.371250    4.676690   -0.445640
     40          1           0       -3.606670    3.802950   -0.965370
     41          1           0       -5.199680    1.931900   -0.982810
     42          1           0       -5.750430   -0.434720   -0.575530
     43          1           0       -4.991060   -2.744330   -0.082710
     44          1           0       -3.389370   -4.218420    1.085120
     45          1           0       -1.015750   -2.090190    1.063210
     46          1           0       -2.104050   -2.603520    2.749210
 ---------------------------------------------------------------------
                    Distance matrix (angstroms):
                    1          2          3          4          5
     1  C    0.000000
     2  C    1.514455   0.000000
     3  C    2.325678   1.411546   0.000000
     4  C    1.424625   2.340957   2.269242   0.000000
     5  C    2.311600   2.315136   1.403335   1.396167   0.000000
     6  C    2.532461   3.705176   3.585796   1.392511   2.427551
     7  C    3.768287   4.655363   4.111986   2.395409   2.730873
     8  C    4.183225   4.639263   3.711255   2.784806   2.368941
     9  C    3.635149   3.640253   2.474352   2.464670   1.379017
    10  C    3.691122   2.528595   1.399432   3.586144   2.433585
    11  C    4.642667   3.767993   2.406169   4.107277   2.734848
    12  C    4.630324   4.184292   2.794390   3.705033   2.372087
    13  C    1.385237   2.712733   3.693957   2.370110   3.567026
    14  C    2.421690   3.916073   4.608799   2.680750   4.061098
    15  C    2.871880   4.325556   4.603982   2.369720   3.670612
    16  C    2.732367   1.409290   2.390546   3.743892   3.607838
    17  C    3.927103   2.448391   2.704245   4.646687   4.095462
    18  C    4.301721   2.868599   2.363636   4.595710   3.663561
    19  C    3.382795   2.516036   3.741450   4.661299   4.827479
    20  C    4.725049   3.769107   4.849722   5.988368   6.050758
    21  C    5.450213   4.232232   4.984117   6.540638   6.316156
    22  C    5.146883   3.742671   4.138046   6.005990   5.521683
    23  C    3.314155   3.011929   4.358310   4.666639   5.160395
    24  C    4.545261   4.401852   5.772658   5.931521   6.543772
    25  C    5.572812   5.186267   6.514565   6.981045   7.456286
    26  C    5.648484   4.935582   6.133822   7.007192   7.249868
    27  C    5.062315   5.290126   6.654968   6.370612   7.198887
    28  C    4.722534   5.204983   6.472763   5.864642   6.797046
    29  C    3.759473   4.193373   5.318717   4.764638   5.589980
    30  C    2.939702   2.923944   4.099425   4.080869   4.647829
    31  H    2.167288   3.105146   4.323517   3.383990   4.462434
    32  H    3.387988   4.833594   5.639326   3.765546   5.143424
    33  H    3.955839   5.407746   5.624864   3.373847   4.590521
    34  H    4.686528   5.689446   5.195957   3.382237   3.816092
    35  H    5.267182   5.665115   4.635337   3.869702   3.364342
    36  H    5.656105   5.268763   3.879359   4.627826   3.366708
    37  H    5.673945   4.684254   3.391370   5.190484   3.819915
    38  H    5.374635   3.950789   3.368155   5.605946   4.577114
    39  H    6.045976   4.602678   4.744791   6.770707   6.119853
    40  H    6.503845   5.311379   6.036592   7.609073   7.376132
    41  H    6.659918   5.875167   7.001414   8.001077   8.175484
    42  H    6.533213   6.242335   7.585917   7.949130   8.493132
    43  H    6.017582   6.270459   7.656897   7.338839   8.206555
    44  H    5.453288   6.116472   7.344127   6.484604   7.524673
    45  H    2.526543   3.105456   4.204252   3.537520   4.398663
    46  H    4.522798   4.824874   5.800411   5.364983   6.061920
                    6          7          8          9         10
     6  C    0.000000
     7  C    1.444587   0.000000
     8  C    2.480377   1.383658   0.000000
     9  C    2.911186   2.463050   1.440820   0.000000
    10  C    4.808077   5.068400   4.337597   2.917435   0.000000
    11  C    5.063918   4.902947   3.846464   2.465889   1.448493
    12  C    4.334818   3.849208   2.630356   1.445884   2.481866
    13  C    2.872796   4.297194   5.051419   4.790192   5.032464
    14  C    2.420947   3.805655   4.876021   5.029883   5.973187
    15  C    1.419951   2.593874   3.827922   4.313715   5.918629
    16  C    5.091005   6.052397   5.961403   4.839852   2.899469
    17  C    6.012648   6.741989   6.368647   5.065101   2.437506
    18  C    5.906608   6.343617   5.704648   4.303101   1.404486
    19  C    5.908753   7.050038   7.148938   6.135539   4.321361
    20  C    7.239892   8.355376   8.386314   7.297629   5.138976
    21  C    7.855411   8.810980   8.633232   7.411630   4.877941
    22  C    7.357030   8.137152   7.777553   6.469729   3.745730
    23  C    5.748918   7.023106   7.347391   6.529035   5.230076
    24  C    6.890390   8.236018   8.671708   7.919836   6.616956
    25  C    8.014348   9.332417   9.676008   8.814383   7.150733
    26  C    8.168556   9.388517   9.554722   8.548239   6.526927
    27  C    7.109208   8.505758   9.126747   8.563084   7.660550
    28  C    6.453048   7.821659   8.529215   8.108707   7.605878
    29  C    5.445144   6.726681   7.323478   6.861384   6.463265
    30  C    5.078035   6.308824   6.679063   5.974308   5.132082
    31  H    3.952624   5.376342   6.103204   5.745810   5.572798
    32  H    3.399234   4.705809   5.862869   6.096647   6.995984
    33  H    2.186229   2.910558   4.272757   5.030623   6.905142
    34  H    2.184746   1.085384   2.129149   3.436281   6.136014
    35  H    3.450643   2.131203   1.085288   2.191916   5.057283
    36  H    5.053659   4.296440   2.939556   2.195297   3.452301
    37  H    6.130564   5.887989   4.741735   3.439749   2.185956
    38  H    6.877303   7.197277   6.429081   5.009485   2.172452
    39  H    8.112749   8.766045   8.265994   6.904159   4.050853
    40  H    8.911747   9.868238   9.676245   8.441060   5.835541
    41  H    9.175832  10.372235  10.490343   9.438355   7.253448
    42  H    8.915677  10.268568  10.676975   9.858476   8.234824
    43  H    8.016534   9.435534  10.107981   9.573260   8.642188
    44  H    6.881971   8.239511   9.067083   8.790120   8.537417
    45  H    4.287975   5.583573   6.156545   5.687905   5.434505
    46  H    6.036473   7.204691   7.727469   7.255279   6.861938
                   11         12         13         14         15
    11  C    0.000000
    12  C    1.379929   0.000000
    13  C    5.989072   5.902829   0.000000
    14  C    6.698715   6.330086   1.424320   0.000000
    15  C    6.353897   5.718244   2.482104   1.388668   0.000000
    16  C    4.333688   5.094456   3.606501   4.968580   5.592161
    17  C    3.825730   4.900784   4.941268   6.243154   6.714184
    18  C    2.579707   3.810566   5.522600   6.664769   6.856147
    19  C    5.759290   6.498133   3.788310   5.211558   6.116704
    20  C    6.580587   7.489433   5.050342   6.462331   7.425241
    21  C    6.241663   7.332490   6.007755   7.412755   8.232771
    22  C    5.030400   6.207222   5.976715   7.337749   7.951023
    23  C    6.601524   7.134027   3.340252   4.670988   5.712855
    24  C    8.008784   8.555996   4.230996   5.425633   6.628578
    25  C    8.590360   9.298950   5.336539   6.580227   7.799648
    26  C    7.973110   8.836734   5.681959   7.032583   8.150930
    27  C    8.986392   9.369985   4.441593   5.356648   6.611243
    28  C    8.822481   9.037707   4.058245   4.758068   5.906183
    29  C    7.599298   7.768080   3.440509   4.224317   5.154692
    30  C    6.361453   6.705850   3.073142   4.228219   5.096752
    31  H    6.681078   6.758289   1.083004   2.162777   3.435358
    32  H    7.762069   7.402899   2.153651   1.084867   2.131572
    33  H    7.224187   6.458037   3.452805   2.146413   1.084935
    34  H    5.887911   4.744066   5.004803   4.241497   2.881892
    35  H    4.294058   2.940234   6.116376   5.855801   4.712807
    36  H    2.127627   1.085333   6.889480   7.201500   6.455469
    37  H    1.085226   2.126755   7.019051   7.765427   7.426951
    38  H    2.889229   4.244608   6.585157   7.716924   7.872909
    39  H    5.140414   6.423605   6.949586   8.276880   8.804494
    40  H    7.148253   8.293103   6.991016   8.389280   9.253696
    41  H    8.682813   9.630718   6.703346   8.045087   9.169119
    42  H    9.674714  10.374051   6.157841   7.309863   8.588260
    43  H    9.987907  10.388020   5.278860   6.097845   7.407601
    44  H    9.698801   9.810835   4.631996   5.051715   6.168820
    45  H    6.529839   6.637296   2.350521   3.258259   4.120309
    46  H    7.934203   8.102422   4.387570   5.089307   5.858616
                   16         17         18         19         20
    16  C    0.000000
    17  C    1.456948   0.000000
    18  C    2.511144   1.405992   0.000000
    19  C    1.435256   2.482453   3.783705   0.000000
    20  C    2.463738   2.852254   4.256942   1.413415   0.000000
    21  C    2.838084   2.443465   3.708506   2.460728   1.436126
    22  C    2.479909   1.438428   2.457232   2.824626   2.427757
    23  C    2.509017   3.788068   4.961638   1.445700   2.462333
    24  C    3.796673   4.952066   6.230786   2.477874   2.837108
    25  C    4.264015   5.123543   6.505286   2.831644   2.441763
    26  C    3.752028   4.267215   5.670954   2.440319   1.416197
    27  C    4.975706   6.247329   7.450420   3.795444   4.285597
    28  C    5.217127   6.583255   7.627724   4.302553   5.115008
    29  C    4.410682   5.763733   6.634327   3.822935   4.915378
    30  C    2.966510   4.285636   5.184249   2.489103   3.705331
    31  H    3.597029   4.992781   5.816504   3.375850   4.496663
    32  H    5.745878   7.071116   7.605673   5.775868   6.936572
    33  H    6.673276   7.786700   7.890969   7.166185   8.460858
    34  H    7.088604   7.812760   7.417919   8.030235   9.344227
    35  H    6.950575   7.240720   6.441892   8.180821   9.391168
    36  H    6.161545   5.879780   4.695207   7.572374   8.533606
    37  H    5.035689   4.252095   2.866583   6.436273   7.095502
    38  H    3.479199   2.149473   1.085476   4.626850   4.849358
    39  H    3.456396   2.169964   2.652677   3.908207   3.414562
    40  H    3.921299   3.429793   4.581448   3.433604   2.175087
    41  H    4.614060   4.882407   6.258411   3.415252   2.155794
    42  H    5.346109   6.179814   7.569913   3.915566   3.422177
    43  H    5.884605   7.105278   8.363605   4.623771   4.879606
    44  H    6.242777   7.631999   8.640881   5.368550   6.170710
    45  H    3.592736   4.989723   5.741742   3.339361   4.634663
    46  H    5.019059   6.257978   7.049589   4.485578   5.518136
                   21         22         23         24         25
    21  C    0.000000
    22  C    1.357488   0.000000
    23  C    3.764153   4.240895   0.000000
    24  C    4.268109   5.092108   1.435891   0.000000
    25  C    3.753370   4.863300   2.457152   1.407976   0.000000
    26  C    2.486064   3.719709   2.813254   2.417810   1.378923
    27  C    5.717996   6.509194   2.490489   1.450323   2.489793
    28  C    6.513252   7.097481   2.862573   2.435735   3.710566
    29  C    6.182264   6.499981   2.479221   2.828094   4.214219
    30  C    4.852862   5.051989   1.412706   2.448391   3.695241
    31  H    5.603357   5.813137   2.767435   3.385713   4.444551
    32  H    7.988446   8.061480   5.085778   5.579497   6.714231
    33  H    9.289512   9.020403   6.699542   7.526744   8.713842
    34  H    9.843553   9.198705   7.916660   9.064402  10.199049
    35  H    9.561512   8.633964   8.416112   9.750182  10.744807
    36  H    8.306657   7.130002   8.216158   9.639628  10.379327
    37  H    6.555210   5.252430   7.393088   8.774921   9.244208
    38  H    4.007913   2.652828   5.886487   7.085047   7.210949
    39  H    2.121765   1.084845   5.317376   6.143926   5.824514
    40  H    1.084758   2.125736   4.623084   4.878463   4.078159
    41  H    2.694561   4.044319   3.897194   3.400550   2.137273
    42  H    4.625091   5.822225   3.440644   2.160204   1.085388
    43  H    6.296178   7.225694   3.446711   2.176435   2.701580
    44  H    7.579635   8.174204   3.934747   3.429433   4.606757
    45  H    5.786824   5.911061   2.268945   3.127028   4.483072
    46  H    6.716075   6.986685   3.221801   3.534500   4.825774
                   26         27         28         29         30
    26  C    0.000000
    27  C    3.749697   0.000000
    28  C    4.850190   1.344220   0.000000
    29  C    5.047844   2.448779   1.495871   0.000000
    30  C    4.157303   2.879236   2.566638   1.485443   0.000000
    31  H    4.912643   3.568113   3.405547   3.140755   2.846014
    32  H    7.318333   5.284492   4.686593   4.469670   4.737579
    33  H    9.132331   7.374727   6.599773   5.945770   6.056505
    34  H   10.327305   9.216252   8.458630   7.427266   7.165319
    35  H   10.589858  10.204522   9.583048   8.358675   7.730864
    36  H    9.893916  10.440352  10.074587   8.782795   7.757263
    37  H    8.507295   9.830456   9.734419   8.520474   7.230492
    38  H    6.237956   8.365493   8.613859   7.646123   6.180942
    39  H    4.599062   7.570420   8.169481   7.543826   6.084371
    40  H    2.703881   6.309657   7.236130   7.045664   5.785469
    41  H    1.085416   4.624619   5.805485   6.091869   5.227557
    42  H    2.140493   2.710052   4.036431   4.834623   4.571139
    43  H    4.069557   1.085806   2.121003   3.453256   3.962772
    44  H    5.826620   2.121092   1.086319   2.243167   3.544279
    45  H    5.069893   3.148674   2.440737   1.242761   1.173814
    46  H    5.637790   3.122475   2.141143   1.101969   2.094493
                   31         32         33         34         35
    31  H    0.000000
    32  H    2.445546   0.000000
    33  H    4.305720   2.447223   0.000000
    34  H    6.067831   4.978176   2.780048   0.000000
    35  H    7.172556   6.799535   4.990148   2.428128   0.000000
    36  H    7.779814   8.262152   7.084733   5.028260   2.838059
    37  H    7.661627   8.822375   8.283490   6.830607   5.026631
    38  H    6.853487   8.655226   8.890037   8.255626   7.054520
    39  H    6.840620   9.034079   9.865466   9.832099   9.038506
    40  H    6.509148   8.907634  10.299411  10.896730  10.588539
    41  H    5.916926   8.302884  10.145889  11.320619  11.508359
    42  H    5.193466   7.311555   9.446380  11.096684  11.752192
    43  H    4.323244   5.870901   8.102648  10.105835  11.187711
    44  H    4.027388   4.788600   6.712816   8.764572  10.096417
    45  H    2.309143   3.733409   5.013657   6.339648   7.210074
    46  H    4.205814   5.371779   6.609821   7.891452   8.715782
                   36         37         38         39         40
    36  H    0.000000
    37  H    2.425568   0.000000
    38  H    4.959666   2.756551   0.000000
    39  H    7.244058   5.136926   2.385103   0.000000
    40  H    9.234759   7.362246   4.692833   2.455737   0.000000
    41  H   10.666140   9.124318   6.678625   4.741234   2.457400
    42  H   11.455671  10.324461   8.245499   6.732058   4.765032
    43  H   11.461607  10.819012   9.244589   8.264761   6.750000
    44  H   10.821987  10.643973   9.645269   9.248731   8.282156
    45  H    7.657798   7.494603   6.796714   6.942166   6.749600
    46  H    9.078242   8.814770   8.021115   7.984079   7.556377
                   41         42         43         44         45
    41  H    0.000000
    42  H    2.463756   0.000000
    43  H    4.766637   2.480688   0.000000
    44  H    6.736467   4.759070   2.470259   0.000000
    45  H    6.153753   5.276670   4.188570   3.188090   0.000000
    46  H    6.639347   5.390146   4.046532   2.651253   2.071352
                   46
    46  H    0.000000
 Stoichiometry    C30H16
 Framework group  C1[X(C30H16)]
 Deg. of freedom   132
 Full point group                 C1      NOp   1
 Largest Abelian subgroup         C1      NOp   1
 Largest concise Abelian subgroup C1      NOp   1
                         Standard orientation:                         
 ---------------------------------------------------------------------
 Center     Atomic      Atomic             Coordinates (Angstroms)
 Number     Number       Type             X           Y           Z
 ---------------------------------------------------------------------
      1          6           0        0.757289   -0.987007   -0.351856
      2          6           0        0.402227    0.446778   -0.017543
      3          6           0        1.632302    1.075117    0.273263
      4          6           0        2.160657   -1.094339   -0.131411
      5          6           0        2.682553    0.144791    0.244706
      6          6           0        2.998932   -2.161803   -0.442703
      7          6           0        4.408989   -1.911809   -0.252769
      8          6           0        4.902066   -0.673701    0.119352
      9          6           0        4.024438    0.446596    0.344444
     10          6           0        1.898520    2.444059    0.389602
     11          6           0        3.292856    2.790211    0.574365
     12          6           0        4.302031    1.849172    0.559623
     13          6           0        0.173670   -2.087506   -0.957803
     14          6           0        0.978569   -3.226743   -1.245836
     15          6           0        2.343303   -3.292473   -0.997678
     16          6           0       -0.721172    1.295121   -0.083766
     17          6           0       -0.476240    2.731326   -0.078823
     18          6           0        0.792258    3.282235    0.174602
     19          6           0       -2.081270    0.837898   -0.116049
     20          6           0       -3.109508    1.723865   -0.510424
     21          6           0       -2.812253    3.118383   -0.681940
     22          6           0       -1.573868    3.601363   -0.406428
     23          6           0       -2.438696   -0.478531    0.362814
     24          6           0       -3.764686   -0.966577    0.107186
     25          6           0       -4.742359   -0.088119   -0.397654
     26          6           0       -4.429099    1.230124   -0.653647
     27          6           0       -4.063630   -2.365800    0.344347
     28          6           0       -3.208233   -3.157820    1.013621
     29          6           0       -2.007968   -2.545111    1.662913
     30          6           0       -1.649893   -1.142835    1.328334
     31          1           0       -0.873477   -2.109885   -1.233266
     32          1           0        0.494375   -4.080949   -1.707165
     33          1           0        2.899413   -4.184352   -1.266709
     34          1           0        5.112162   -2.716214   -0.443921
     35          1           0        5.975747   -0.542463    0.207871
     36          1           0        5.328828    2.180910    0.676181
     37          1           0        3.555607    3.835768    0.698816
     38          1           0        0.904949    4.361662    0.154736
     39          1           0       -1.380103    4.667586   -0.456544
     40          1           0       -3.614155    3.788416   -0.972989
     41          1           0       -5.203870    1.914519   -0.984496
     42          1           0       -5.750309   -0.451885   -0.570217
     43          1           0       -4.986702   -2.758725   -0.071011
     44          1           0       -3.382020   -4.226622    1.100507
     45          1           0       -1.012164   -2.094285    1.071656
     46          1           0       -2.098987   -2.604675    2.759500
 ---------------------------------------------------------------------
 Rotational constants (GHZ):           0.2715079           0.1514099           0.1038845
 Standard basis: 6-311+G(d,p) (5D, 7F)
 There are   786 symmetry adapted cartesian basis functions of A   symmetry.
 There are   756 symmetry adapted basis functions of A   symmetry.
   756 basis functions,  1208 primitive gaussians,   786 cartesian basis functions
    98 alpha electrons       98 beta electrons
       nuclear repulsion energy      2607.6596645389 Hartrees.
 NAtoms=   46 NActive=   46 NUniq=   46 SFac= 1.00D+00 NAtFMM=   60 NAOKFM=F Big=F
 Integral buffers will be    131072 words long.
 Raffenetti 2 integral format.
 Two-electron integral symmetry is turned on.
 One-electron integrals computed using PRISM.
 NBasis=   756 RedAO= T EigKep=  1.10D-06  NBF=   756
 NBsUse=   737 1.00D-06 EigRej=  7.66D-07 NBFU=   737
 ExpMin= 4.38D-02 ExpMax= 4.56D+03 ExpMxC= 6.82D+02 IAcc=2 IRadAn=         4 AccDes= 0.00D+00
 Harris functional with IExCor=  402 and IRadAn=       4 diagonalized for initial guess.
 HarFok:  IExCor=  402 AccDes= 0.00D+00 IRadAn=         4 IDoV= 1 UseB2=F ITyADJ=14
 ICtDFT=  3500011 ScaDFX=  1.000000  1.000000  1.000000  1.000000
 FoFCou: FMM=F IPFlag=           0 FMFlag=      100000 FMFlg1=           0
         NFxFlg=           0 DoJE=T BraDBF=F KetDBF=T FulRan=T
         wScrn=  0.000000 ICntrl=       500 IOpCl=  0 I1Cent=   200000004 NGrid=           0
         NMat0=    1 NMatS0=      1 NMatT0=    0 NMatD0=    1 NMtDS0=    0 NMtDT0=    0
 Petite list used in FoFCou.
 Requested convergence on RMS density matrix=1.00D-08 within 128 cycles.
 Requested convergence on MAX density matrix=1.00D-06.
 Requested convergence on             energy=1.00D-06.
 No special actions if energy rises.
 SCF Done:  E(RB3LYP) =  -1152.94763156     A.U. after   17 cycles
            NFock= 17  Conv=0.91D-08     -V/T= 2.0044
 DoSCS=F DFT=T ScalE2(SS,OS)=  1.000000  1.000000
 Range of M.O.s used for correlation:     1   737
 NBasis=   756 NAE=    98 NBE=    98 NFC=     0 NFV=     0
 NROrb=    737 NOA=    98 NOB=    98 NVA=   639 NVB=   639

 **** Warning!!: The largest alpha MO coefficient is  0.14917045D+03

 Symmetrizing basis deriv contribution to polar:
 IMax=3 JMax=2 DiffMx= 0.00D+00
 G2DrvN: will do    47 centers at a time, making    1 passes.
 Calling FoFCou, ICntrl=  3107 FMM=F I1Cent=   0 AccDes= 0.00D+00.
 End of G2Drv F.D. properties file   721 does not exist.
 End of G2Drv F.D. properties file   722 does not exist.
 End of G2Drv F.D. properties file   788 does not exist.
          IDoAtm=1111111111111111111111111111111111111111111111
          Differentiating once with respect to nuclear coordinates.
 CalDSu exits because no D1Ps are significant.
          There are   141 degrees of freedom in the 1st order CPHF.  IDoFFX=6 NUNeed=     0.
    135 vectors produced by pass  0 Test12= 6.26D-14 1.00D-09 XBig12= 3.07D-01 1.13D-01.
 AX will form   135 AO Fock derivatives at one time.
    135 vectors produced by pass  1 Test12= 6.26D-14 1.00D-09 XBig12= 6.84D-02 5.48D-02.
    135 vectors produced by pass  2 Test12= 6.26D-14 1.00D-09 XBig12= 9.12D-04 5.47D-03.
    135 vectors produced by pass  3 Test12= 6.26D-14 1.00D-09 XBig12= 6.54D-06 2.14D-04.
    135 vectors produced by pass  4 Test12= 6.26D-14 1.00D-09 XBig12= 2.01D-08 1.06D-05.
    135 vectors produced by pass  5 Test12= 6.26D-14 1.00D-09 XBig12= 1.04D-10 7.09D-07.
    114 vectors produced by pass  6 Test12= 6.26D-14 1.00D-09 XBig12= 1.45D-11 2.53D-07.
     87 vectors produced by pass  7 Test12= 6.26D-14 1.00D-09 XBig12= 2.10D-12 1.13D-07.
     46 vectors produced by pass  8 Test12= 6.26D-14 1.00D-09 XBig12= 1.40D-13 1.91D-08.
      6 vectors produced by pass  9 Test12= 6.26D-14 1.00D-09 XBig12= 1.16D-15 2.65D-09.
 InvSVY:  IOpt=1 It=  1 EMax= 1.05D-15
 Solved reduced A of dimension  1063 with   141 vectors.
 End of Minotr F.D. properties file   721 does not exist.
 End of Minotr F.D. properties file   722 does not exist.
 End of Minotr F.D. properties file   788 does not exist.

 **********************************************************************

            Population analysis using the SCF Density.

 **********************************************************************

 Orbital symmetries:
       Occupied  (A) (A) (A) (A) (A) (A) (A) (A) (A) (A) (A) (A)
                 (A) (A) (A) (A) (A) (A) (A) (A) (A) (A) (A) (A)
                 (A) (A) (A) (A) (A) (A) (A) (A) (A) (A) (A) (A)
                 (A) (A) (A) (A) (A) (A) (A) (A) (A) (A) (A) (A)
                 (A) (A) (A) (A) (A) (A) (A) (A) (A) (A) (A) (A)
                 (A) (A) (A) (A) (A) (A) (A) (A) (A) (A) (A) (A)
                 (A) (A) (A) (A) (A) (A) (A) (A) (A) (A) (A) (A)
                 (A) (A) (A) (A) (A) (A) (A) (A) (A) (A) (A) (A)
                 (A) (A)
       Virtual   (A) (A) (A) (A) (A) (A) (A) (A) (A) (A) (A) (A)
                 (A) (A) (A) (A) (A) (A) (A) (A) (A) (A) (A) (A)
                 (A) (A) (A) (A) (A) (A) (A) (A) (A) (A) (A) (A)
                 (A) (A) (A) (A) (A) (A) (A) (A) (A) (A) (A) (A)
                 (A) (A) (A) (A) (A) (A) (A) (A) (A) (A) (A) (A)
                 (A) (A) (A) (A) (A) (A) (A) (A) (A) (A) (A) (A)
                 (A) (A) (A) (A) (A) (A) (A) (A) (A) (A) (A) (A)
                 (A) (A) (A) (A) (A) (A) (A) (A) (A) (A) (A) (A)
                 (A) (A) (A) (A) (A) (A) (A) (A) (A) (A) (A) (A)
                 (A) (A) (A) (A) (A) (A) (A) (A) (A) (A) (A) (A)
                 (A) (A) (A) (A) (A) (A) (A) (A) (A) (A) (A) (A)
                 (A) (A) (A) (A) (A) (A) (A) (A) (A) (A) (A) (A)
                 (A) (A) (A) (A) (A) (A) (A) (A) (A) (A) (A) (A)
                 (A) (A) (A) (A) (A) (A) (A) (A) (A) (A) (A) (A)
                 (A) (A) (A) (A) (A) (A) (A) (A) (A) (A) (A) (A)
                 (A) (A) (A) (A) (A) (A) (A) (A) (A) (A) (A) (A)
                 (A) (A) (A) (A) (A) (A) (A) (A) (A) (A) (A) (A)
                 (A) (A) (A) (A) (A) (A) (A) (A) (A) (A) (A) (A)
                 (A) (A) (A) (A) (A) (A) (A) (A) (A) (A) (A) (A)
                 (A) (A) (A) (A) (A) (A) (A) (A) (A) (A) (A) (A)
                 (A) (A) (A) (A) (A) (A) (A) (A) (A) (A) (A) (A)
                 (A) (A) (A) (A) (A) (A) (A) (A) (A) (A) (A) (A)
                 (A) (A) (A) (A) (A) (A) (A) (A) (A) (A) (A) (A)
                 (A) (A) (A) (A) (A) (A) (A) (A) (A) (A) (A) (A)
                 (A) (A) (A) (A) (A) (A) (A) (A) (A) (A) (A) (A)
                 (A) (A) (A) (A) (A) (A) (A) (A) (A) (A) (A) (A)
                 (A) (A) (A) (A) (A) (A) (A) (A) (A) (A) (A) (A)
                 (A) (A) (A) (A) (A) (A) (A) (A) (A) (A) (A) (A)
                 (A) (A) (A) (A) (A) (A) (A) (A) (A) (A) (A) (A)
                 (A) (A) (A) (A) (A) (A) (A) (A) (A) (A) (A) (A)
                 (A) (A) (A) (A) (A) (A) (A) (A) (A) (A) (A) (A)
                 (A) (A) (A) (A) (A) (A) (A) (A) (A) (A) (A) (A)
                 (A) (A) (A) (A) (A) (A) (A) (A) (A) (A) (A) (A)
                 (A) (A) (A) (A) (A) (A) (A) (A) (A) (A) (A) (A)
                 (A) (A) (A) (A) (A) (A) (A) (A) (A) (A) (A) (A)
                 (A) (A) (A) (A) (A) (A) (A) (A) (A) (A) (A) (A)
                 (A) (A) (A) (A) (A) (A) (A) (A) (A) (A) (A) (A)
                 (A) (A) (A) (A) (A) (A) (A) (A) (A) (A) (A) (A)
                 (A) (A) (A) (A) (A) (A) (A) (A) (A) (A) (A) (A)
                 (A) (A) (A) (A) (A) (A) (A) (A) (A) (A) (A) (A)
                 (A) (A) (A) (A) (A) (A) (A) (A) (A) (A) (A) (A)
                 (A) (A) (A) (A) (A) (A) (A) (A) (A) (A) (A) (A)
                 (A) (A) (A) (A) (A) (A) (A) (A) (A) (A) (A) (A)
                 (A) (A) (A) (A) (A) (A) (A) (A) (A) (A) (A) (A)
                 (A) (A) (A) (A) (A) (A) (A) (A) (A) (A) (A) (A)
                 (A) (A) (A) (A) (A) (A) (A) (A) (A) (A) (A) (A)
                 (A) (A) (A) (A) (A) (A) (A) (A) (A) (A) (A) (A)
                 (A) (A) (A) (A) (A) (A) (A) (A) (A) (A) (A) (A)
                 (A) (A) (A) (A) (A) (A) (A) (A) (A) (A) (A) (A)
                 (A) (A) (A) (A) (A) (A) (A) (A) (A) (A) (A) (A)
                 (A) (A) (A) (A) (A) (A) (A) (A) (A) (A) (A) (A)
                 (A) (A) (A) (A) (A) (A) (A) (A) (A) (A) (A) (A)
                 (A) (A) (A) (A) (A) (A) (A) (A) (A) (A) (A) (A)
                 (A) (A) (A)
 The electronic state is 1-A.
 Alpha  occ. eigenvalues --  -10.20848 -10.20225 -10.19837 -10.19671 -10.19670
 Alpha  occ. eigenvalues --  -10.19665 -10.19543 -10.19504 -10.19419 -10.19311
 Alpha  occ. eigenvalues --  -10.19223 -10.19199 -10.19150 -10.19118 -10.18893
 Alpha  occ. eigenvalues --  -10.18852 -10.18849 -10.18809 -10.18785 -10.18764
 Alpha  occ. eigenvalues --  -10.18705 -10.18670 -10.18557 -10.18424 -10.18336
 Alpha  occ. eigenvalues --  -10.18275 -10.17049 -10.16751 -10.16695 -10.16666
 Alpha  occ. eigenvalues --   -0.91725  -0.89652  -0.87295  -0.85586  -0.84470
 Alpha  occ. eigenvalues --   -0.82456  -0.81069  -0.79687  -0.78989  -0.77062
 Alpha  occ. eigenvalues --   -0.75392  -0.74598  -0.72820  -0.72258  -0.71499
 Alpha  occ. eigenvalues --   -0.66467  -0.65066  -0.63582  -0.63234  -0.62390
 Alpha  occ. eigenvalues --   -0.60828  -0.59851  -0.58375  -0.57049  -0.54334
 Alpha  occ. eigenvalues --   -0.53184  -0.52903  -0.51881  -0.50742  -0.50069
 Alpha  occ. eigenvalues --   -0.49581  -0.48143  -0.47420  -0.47095  -0.45981
 Alpha  occ. eigenvalues --   -0.44554  -0.44272  -0.43823  -0.43410  -0.43331
 Alpha  occ. eigenvalues --   -0.42738  -0.42124  -0.41673  -0.41194  -0.40313
 Alpha  occ. eigenvalues --   -0.39922  -0.39533  -0.38925  -0.38477  -0.37559
 Alpha  occ. eigenvalues --   -0.36801  -0.35864  -0.35260  -0.34921  -0.33793
 Alpha  occ. eigenvalues --   -0.33547  -0.33152  -0.31919  -0.31200  -0.29849
 Alpha  occ. eigenvalues --   -0.29057  -0.28433  -0.25338  -0.25023  -0.22986
 Alpha  occ. eigenvalues --   -0.22468  -0.21027  -0.19851
 Alpha virt. eigenvalues --   -0.09195  -0.08046  -0.05668  -0.04735  -0.02652
 Alpha virt. eigenvalues --   -0.00939  -0.00174   0.00219   0.00571   0.00699
 Alpha virt. eigenvalues --    0.01507   0.01553   0.01814   0.02359   0.02536
 Alpha virt. eigenvalues --    0.02929   0.03099   0.03327   0.04115   0.04288
 Alpha virt. eigenvalues --    0.04564   0.04777   0.04824   0.05166   0.05885
 Alpha virt. eigenvalues --    0.06467   0.06588   0.06924   0.07148   0.07333
 Alpha virt. eigenvalues --    0.08014   0.08227   0.08626   0.08897   0.09020
 Alpha virt. eigenvalues --    0.09441   0.09709   0.09902   0.10576   0.11034
 Alpha virt. eigenvalues --    0.11275   0.11403   0.11566   0.11818   0.12274
 Alpha virt. eigenvalues --    0.12764   0.12996   0.13348   0.13878   0.14309
 Alpha virt. eigenvalues --    0.14478   0.14680   0.14840   0.15081   0.15460
 Alpha virt. eigenvalues --    0.16012   0.16124   0.16262   0.16501   0.16589
 Alpha virt. eigenvalues --    0.16954   0.17010   0.17135   0.17388   0.17916
 Alpha virt. eigenvalues --    0.18076   0.18206   0.18428   0.18628   0.18652
 Alpha virt. eigenvalues --    0.19002   0.19239   0.19312   0.19562   0.19833
 Alpha virt. eigenvalues --    0.20022   0.20342   0.20383   0.20781   0.21088
 Alpha virt. eigenvalues --    0.21168   0.21372   0.21716   0.21790   0.21975
 Alpha virt. eigenvalues --    0.22267   0.22375   0.22506   0.22664   0.22997
 Alpha virt. eigenvalues --    0.23340   0.23443   0.23724   0.23836   0.23972
 Alpha virt. eigenvalues --    0.24106   0.24576   0.24754   0.25105   0.25310
 Alpha virt. eigenvalues --    0.25436   0.25533   0.25648   0.26148   0.26305
 Alpha virt. eigenvalues --    0.26517   0.26736   0.27140   0.27376   0.27495
 Alpha virt. eigenvalues --    0.27821   0.27965   0.28425   0.28617   0.28776
 Alpha virt. eigenvalues --    0.28990   0.29333   0.29638   0.29799   0.30151
 Alpha virt. eigenvalues --    0.30551   0.30697   0.30921   0.31092   0.31286
 Alpha virt. eigenvalues --    0.31542   0.32188   0.32463   0.32624   0.33139
 Alpha virt. eigenvalues --    0.33308   0.33705   0.33829   0.34090   0.34554
 Alpha virt. eigenvalues --    0.34902   0.35473   0.35505   0.36166   0.36991
 Alpha virt. eigenvalues --    0.37144   0.37417   0.38238   0.38572   0.39035
 Alpha virt. eigenvalues --    0.39472   0.39674   0.40509   0.41225   0.42039
 Alpha virt. eigenvalues --    0.42811   0.42954   0.43787   0.44267   0.44613
 Alpha virt. eigenvalues --    0.45643   0.46027   0.46794   0.47655   0.47813
 Alpha virt. eigenvalues --    0.48597   0.48780   0.49717   0.50718   0.51315
 Alpha virt. eigenvalues --    0.51795   0.52258   0.52549   0.53334   0.53739
 Alpha virt. eigenvalues --    0.53983   0.54287   0.54755   0.55042   0.55360
 Alpha virt. eigenvalues --    0.55801   0.56184   0.56473   0.56819   0.57743
 Alpha virt. eigenvalues --    0.57956   0.58066   0.58278   0.58520   0.58645
 Alpha virt. eigenvalues --    0.58737   0.59339   0.59696   0.60244   0.60650
 Alpha virt. eigenvalues --    0.61092   0.61746   0.62049   0.62442   0.63140
 Alpha virt. eigenvalues --    0.63570   0.63901   0.64286   0.64781   0.64900
 Alpha virt. eigenvalues --    0.65705   0.66073   0.66394   0.66731   0.67206
 Alpha virt. eigenvalues --    0.68211   0.68589   0.69043   0.69045   0.69427
 Alpha virt. eigenvalues --    0.69642   0.70261   0.70413   0.70787   0.70977
 Alpha virt. eigenvalues --    0.71176   0.71692   0.71820   0.72361   0.72430
 Alpha virt. eigenvalues --    0.72596   0.72915   0.73456   0.73935   0.74340
 Alpha virt. eigenvalues --    0.74752   0.74917   0.75119   0.75503   0.75851
 Alpha virt. eigenvalues --    0.76351   0.76451   0.77145   0.77700   0.77821
 Alpha virt. eigenvalues --    0.78416   0.78789   0.79808   0.80327   0.81113
 Alpha virt. eigenvalues --    0.82089   0.82707   0.83203   0.84064   0.84136
 Alpha virt. eigenvalues --    0.84635   0.84939   0.85535   0.85743   0.87264
 Alpha virt. eigenvalues --    0.87293   0.88020   0.88245   0.88764   0.89123
 Alpha virt. eigenvalues --    0.89779   0.89909   0.90227   0.90696   0.91272
 Alpha virt. eigenvalues --    0.92245   0.92783   0.93178   0.93407   0.94190
 Alpha virt. eigenvalues --    0.94485   0.94609   0.94997   0.95562   0.96028
 Alpha virt. eigenvalues --    0.96331   0.96843   0.97131   0.97371   0.97739
 Alpha virt. eigenvalues --    0.97908   0.98478   0.98830   0.99652   1.00309
 Alpha virt. eigenvalues --    1.00480   1.01277   1.02273   1.02750   1.03574
 Alpha virt. eigenvalues --    1.04399   1.04693   1.05526   1.05976   1.06345
 Alpha virt. eigenvalues --    1.07229   1.07544   1.08121   1.08539   1.08692
 Alpha virt. eigenvalues --    1.09161   1.09919   1.10423   1.11288   1.11732
 Alpha virt. eigenvalues --    1.12985   1.14641   1.15004   1.16435   1.16742
 Alpha virt. eigenvalues --    1.17008   1.18283   1.20264   1.20673   1.21739
 Alpha virt. eigenvalues --    1.22844   1.23524   1.24039   1.24192   1.25122
 Alpha virt. eigenvalues --    1.27434   1.28637   1.30068   1.30639   1.32447
 Alpha virt. eigenvalues --    1.33297   1.34085   1.36269   1.36933   1.37712
 Alpha virt. eigenvalues --    1.39127   1.40270   1.41545   1.42414   1.42881
 Alpha virt. eigenvalues --    1.44836   1.45666   1.45893   1.46814   1.47020
 Alpha virt. eigenvalues --    1.48098   1.48831   1.49209   1.49440   1.50312
 Alpha virt. eigenvalues --    1.51153   1.51320   1.52254   1.52568   1.52898
 Alpha virt. eigenvalues --    1.53643   1.54013   1.55039   1.55289   1.56034
 Alpha virt. eigenvalues --    1.56208   1.56932   1.57368   1.58542   1.59475
 Alpha virt. eigenvalues --    1.59817   1.60387   1.61064   1.61857   1.63222
 Alpha virt. eigenvalues --    1.64097   1.64474   1.66039   1.66347   1.66706
 Alpha virt. eigenvalues --    1.68128   1.68920   1.69234   1.69486   1.70391
 Alpha virt. eigenvalues --    1.71018   1.72154   1.72613   1.73571   1.74193
 Alpha virt. eigenvalues --    1.74316   1.74955   1.75437   1.75885   1.76710
 Alpha virt. eigenvalues --    1.77574   1.77863   1.78196   1.78878   1.79592
 Alpha virt. eigenvalues --    1.80981   1.81914   1.82368   1.83007   1.83486
 Alpha virt. eigenvalues --    1.84233   1.84703   1.85550   1.85788   1.86410
 Alpha virt. eigenvalues --    1.87055   1.87245   1.88109   1.88819   1.89482
 Alpha virt. eigenvalues --    1.89918   1.90332   1.90663   1.91621   1.91963
 Alpha virt. eigenvalues --    1.92332   1.93090   1.93440   1.94458   1.94846
 Alpha virt. eigenvalues --    1.95785   1.97020   1.97306   1.97972   1.98886
 Alpha virt. eigenvalues --    2.00283   2.00705   2.01131   2.01456   2.02513
 Alpha virt. eigenvalues --    2.03233   2.03428   2.03815   2.05338   2.05518
 Alpha virt. eigenvalues --    2.05854   2.06943   2.07408   2.09223   2.09965
 Alpha virt. eigenvalues --    2.10082   2.11631   2.13125   2.13339   2.14048
 Alpha virt. eigenvalues --    2.14658   2.15534   2.16680   2.17580   2.18103
 Alpha virt. eigenvalues --    2.19606   2.19844   2.22099   2.22202   2.23304
 Alpha virt. eigenvalues --    2.24166   2.25240   2.25841   2.26294   2.27781
 Alpha virt. eigenvalues --    2.28397   2.30534   2.31893   2.32515   2.33354
 Alpha virt. eigenvalues --    2.35033   2.37312   2.38100   2.38583   2.39953
 Alpha virt. eigenvalues --    2.41808   2.42949   2.43165   2.44772   2.45184
 Alpha virt. eigenvalues --    2.46048   2.46915   2.47130   2.48151   2.50372
 Alpha virt. eigenvalues --    2.51206   2.53358   2.55194   2.56094   2.57005
 Alpha virt. eigenvalues --    2.57310   2.58003   2.59608   2.59897   2.60973
 Alpha virt. eigenvalues --    2.61920   2.64521   2.65305   2.66902   2.67863
 Alpha virt. eigenvalues --    2.68259   2.69902   2.71010   2.71492   2.72224
 Alpha virt. eigenvalues --    2.72353   2.72785   2.73388   2.73618   2.74055
 Alpha virt. eigenvalues --    2.74365   2.74747   2.75322   2.75556   2.76115
 Alpha virt. eigenvalues --    2.76544   2.76773   2.77222   2.77659   2.78246
 Alpha virt. eigenvalues --    2.78896   2.79531   2.79848   2.80086   2.80465
 Alpha virt. eigenvalues --    2.81606   2.82351   2.83193   2.84466   2.85492
 Alpha virt. eigenvalues --    2.86307   2.87062   2.87505   2.87930   2.88534
 Alpha virt. eigenvalues --    2.89353   2.90196   2.90336   2.91846   2.92830
 Alpha virt. eigenvalues --    2.95051   2.95527   2.96420   2.98545   2.99111
 Alpha virt. eigenvalues --    3.01209   3.02349   3.03443   3.05098   3.06988
 Alpha virt. eigenvalues --    3.08262   3.09086   3.11812   3.13360   3.14284
 Alpha virt. eigenvalues --    3.14601   3.16090   3.18012   3.19643   3.20096
 Alpha virt. eigenvalues --    3.21487   3.21903   3.22488   3.23402   3.24866
 Alpha virt. eigenvalues --    3.26665   3.27776   3.30137   3.31937   3.34404
 Alpha virt. eigenvalues --    3.34690   3.35917   3.36248   3.38992   3.40311
 Alpha virt. eigenvalues --    3.41640   3.42898   3.43756   3.45972   3.46520
 Alpha virt. eigenvalues --    3.47784   3.47955   3.49330   3.51267   3.52142
 Alpha virt. eigenvalues --    3.53885   3.54911   3.56782   3.58010   3.61136
 Alpha virt. eigenvalues --    3.62779   3.63923   3.64224   3.69338   3.74020
 Alpha virt. eigenvalues --    3.75505   3.81698   3.83511   3.86051   3.91348
 Alpha virt. eigenvalues --    3.95112   4.01940   4.04980   4.06261   4.06441
 Alpha virt. eigenvalues --    4.07304   4.07790   4.08319   4.10640   4.14478
 Alpha virt. eigenvalues --    4.22002   4.25570   4.29391   4.35105   4.41447
 Alpha virt. eigenvalues --    4.63403   4.72776   4.75443   4.77079   4.77962
 Alpha virt. eigenvalues --    4.79156   4.80228   4.84374   4.88091  23.43636
 Alpha virt. eigenvalues --   23.59923  23.71690  23.78262  23.82057  23.83369
 Alpha virt. eigenvalues --   23.85175  23.86572  23.89505  23.91358  23.92423
 Alpha virt. eigenvalues --   23.94135  23.95009  23.98446  23.99513  24.00002
 Alpha virt. eigenvalues --   24.01512  24.02764  24.04302  24.07002  24.09003
 Alpha virt. eigenvalues --   24.09663  24.11908  24.12922  24.13753  24.15601
 Alpha virt. eigenvalues --   24.15982  24.19862  24.20581  24.22407
          Condensed to atoms (all electrons):
               1          2          3          4          5          6
     1  C   11.840106   0.347252  -1.302170   0.422766  -1.385591  -1.108688
     2  C    0.347252   9.723094   0.563828  -0.468583  -0.494673  -0.347158
     3  C   -1.302170   0.563828   9.808357  -0.546322   1.544238   0.058231
     4  C    0.422766  -0.468583  -0.546322   8.187263  -1.137544   2.230232
     5  C   -1.385591  -0.494673   1.544238  -1.137544   9.532603  -1.125328
     6  C   -1.108688  -0.347158   0.058231   2.230232  -1.125328  13.166362
     7  C   -1.991551   0.450566   0.046788  -2.926824   3.204189  -4.182727
     8  C    0.660954   0.008787  -1.473584   1.676655  -2.996946   0.020785
     9  C   -0.562247  -0.155985  -0.406558  -0.215501   1.452339  -0.075819
    10  C   -2.307849   0.596932   1.520786  -0.215132   0.447404  -0.542388
    11  C   -0.266589  -1.605318   0.511693  -0.452841   1.224138   0.017390
    12  C    0.271392  -0.500122   0.808061   0.007342  -0.480105   0.521006
    13  C    0.184810  -0.940951  -1.973605   0.056088  -0.813219   0.725751
    14  C   -2.558137  -1.386928  -0.311683   1.313129   0.001116   0.556159
    15  C    2.149728   0.121437  -0.057887  -1.432894  -1.330516  -4.046998
    16  C    1.240838  -0.196582   0.160605   0.129714  -0.244881  -0.076251
    17  C   -1.518492   0.020473   0.268005  -0.340015  -0.207455   0.143728
    18  C    0.529222   1.043411   0.011708  -0.003152  -0.713799  -0.057029
    19  C    0.034912   0.165772  -0.049409  -0.034816  -0.447619   0.047241
    20  C    0.313023  -0.258858  -0.570728   0.078014   0.027909  -0.025447
    21  C    0.223057  -0.358339  -0.300580  -0.002346   0.000082   0.010250
    22  C    0.153969  -0.621445  -1.344063  -0.088287   0.064555   0.050535
    23  C    1.121902  -1.648935  -0.717934  -0.016228  -0.386515   0.186199
    24  C    0.101432  -0.224170  -0.092103  -0.052886  -0.025618  -0.078540
    25  C   -0.052856   0.231475  -0.010762  -0.019853  -0.001117   0.001529
    26  C    0.033842   0.074024  -0.335063  -0.048337   0.010209  -0.011929
    27  C    0.111999  -0.427966   0.117237  -0.051352  -0.005926   0.097805
    28  C   -0.023609   0.022160  -0.031463  -0.015189  -0.006738  -0.046778
    29  C    0.176263   0.280383   0.071537  -0.024704   0.094046   0.017962
    30  C   -1.380810   1.486507   0.112571  -0.202987   0.209917  -0.178725
    31  H   -0.012285   0.049818   0.003879   0.034769   0.004431  -0.024527
    32  H    0.074712   0.003098   0.002799  -0.018161  -0.000712  -0.034989
    33  H   -0.005254  -0.001122   0.004391   0.033141  -0.002914  -0.065197
    34  H   -0.007950   0.003265  -0.002620   0.025786  -0.019867  -0.117391
    35  H   -0.007015   0.005027  -0.015993  -0.013583   0.042548  -0.041563
    36  H    0.005997  -0.001546   0.007940  -0.008197   0.020905   0.009028
    37  H    0.002616  -0.006558   0.030130  -0.000959  -0.003805   0.000368
    38  H   -0.004794  -0.024481   0.002655   0.002384  -0.006324  -0.000046
    39  H   -0.000125  -0.005969   0.014664  -0.000032   0.001683   0.000001
    40  H    0.000578  -0.000473   0.000634   0.000066   0.000087   0.000000
    41  H   -0.000354   0.003093  -0.000146   0.000061   0.000041  -0.000003
    42  H    0.000281  -0.001120  -0.000110  -0.000047  -0.000022  -0.000020
    43  H   -0.000960   0.001900  -0.000007   0.000084   0.000020  -0.000062
    44  H    0.001924   0.001677   0.000252   0.000303   0.000193   0.000200
    45  H   -0.023169  -0.109066  -0.008769   0.003636  -0.018053   0.019913
    46  H   -0.007186  -0.003541   0.001898   0.001859   0.002260   0.001968
               7          8          9         10         11         12
     1  C   -1.991551   0.660954  -0.562247  -2.307849  -0.266589   0.271392
     2  C    0.450566   0.008787  -0.155985   0.596932  -1.605318  -0.500122
     3  C    0.046788  -1.473584  -0.406558   1.520786   0.511693   0.808061
     4  C   -2.926824   1.676655  -0.215501  -0.215132  -0.452841   0.007342
     5  C    3.204189  -2.996946   1.452339   0.447404   1.224138  -0.480105
     6  C   -4.182727   0.020785  -0.075819  -0.542388   0.017390   0.521006
     7  C   14.744627  -1.546213   0.339968   0.973108  -0.111276  -1.328896
     8  C   -1.546213  11.824000  -2.646897  -0.369848  -0.201243   0.262377
     9  C    0.339968  -2.646897  11.205508   1.358725  -1.233304  -1.579232
    10  C    0.973108  -0.369848   1.358725  13.384161  -1.160189  -2.296777
    11  C   -0.111276  -0.201243  -1.233304  -1.160189  10.601766   2.261825
    12  C   -1.328896   0.262377  -1.579232  -2.296777   2.261825   8.888480
    13  C   -0.228209   0.851093  -0.018381  -0.746605  -0.259873  -0.068569
    14  C   -0.252178  -0.323216   0.305982  -0.127350   0.093426  -0.016116
    15  C   -1.048534   0.148659  -0.203689  -0.299728  -0.183822   0.065772
    16  C   -0.270563   0.038517  -0.621580  -1.944024  -0.837996   0.038734
    17  C    0.158904  -0.293774  -0.172151   0.382693  -0.198997  -0.224118
    18  C   -0.101303   0.111575  -0.399680   0.974549  -1.689513  -0.455147
    19  C   -0.002210   0.013782  -0.009809  -0.657115  -0.203307  -0.021449
    20  C   -0.032737   0.012440  -0.060517  -0.561107  -0.039803  -0.006346
[...]
 04,-0.00565869,-0.00294821,-0.00374094,0.00043390,0.00203041,0.0007121
 7,-0.00006350,-0.00035693,0.00026307,-0.25967923,-0.08438631,-0.090124
 21,-0.01152615,-0.00975321,-0.00578881,0.00212199,0.00171564,-0.005957
 09,0.00014913,0.00106358,0.00047317,-0.00000357,-0.00002413,-0.0000499
 5,-0.00000663,0.00001523,0.00000111,-0.00000432,0.00000236,-0.00000155
 ,-0.00000197,0.00000266,-0.00000077,-0.00000329,0.00000023,-0.00000068
 ,-0.00000353,0.00000035,-0.00000096,-0.00000041,-0.00000304,-0.0000008
 5,-0.00000310,-0.00000488,-0.00000535,-0.00000515,-0.00000226,0.000009
 23,0.00000412,-0.00001526,0.00000024,-0.00000314,-0.00005127,-0.000009
 74,0.00054228,-0.00052075,0.00011115,0.27279932,0.00003236,-0.00004350
 ,-0.00000788,0.00003382,-0.00003842,-0.00000465,-0.00000164,0.00000831
 ,-0.00001255,-0.00002513,0.00001112,0.00000159,-0.00001185,-0.00000785
 ,-0.00000291,0.00000876,-0.00000012,0.00000124,-0.00001641,-0.00000289
 ,-0.00000237,0.00000431,0.00001321,0.00000398,0.00000018,-0.00001659,-
 0.00000657,-0.00001098,0.00000311,0.00000741,0.00001388,0.00000929,0.0
 0000287,-0.00001217,0.00001046,0.00000121,0.00000559,0.00003291,-0.000
 01519,-0.00000523,0.00000957,0.00000279,-0.00000440,0.00000414,-0.0000
 0175,0.00003282,-0.00035116,0.00027560,-0.00013869,0.00000814,-0.00001
 453,0.00002372,-0.00004249,-0.00002664,-0.00149766,0.00026463,-0.00036
 539,-0.00002540,0.00011862,-0.00003191,0.00010073,0.00004522,0.0000104
 1,-0.00002395,-0.00000407,0.00000145,-0.00060628,-0.00422544,0.0024820
 6,-0.02549783,-0.00608084,-0.01054385,-0.00134924,0.00095813,-0.001376
 51,0.00041532,0.00007872,0.00011739,-0.08533278,-0.09102252,-0.0294154
 7,0.01672795,0.01117250,0.00726587,0.00001162,-0.00082065,0.00540369,0
 .00057918,-0.00098260,0.00018115,-0.00000276,-0.00001648,0.00000208,0.
 00000060,0.00000315,0.00000272,-0.00000106,0.00000167,0.00000085,-0.00
 000117,0.00000162,0.00000042,-0.00000277,0.00000043,0.00000036,-0.0000
 0275,0.00000032,0.00000043,-0.00000117,-0.00000266,-0.00000016,-0.0000
 1302,-0.00000882,-0.00000434,0.00000150,-0.00000305,0.00000720,0.00000
 124,-0.00002732,0.00000190,0.00000851,-0.00002371,-0.00001056,0.001022
 97,-0.00012083,0.00048610,0.09382950,0.09043360,0.00003864,-0.00003659
 ,-0.00002265,0.00003536,0.00004518,-0.00001699,-0.00005103,-0.00002762
 ,-0.00001235,-0.00002970,0.00000192,0.00000014,0.00001190,-0.00001333,
 -0.00000502,-0.00000141,-0.00001764,-0.00000727,-0.00000132,0.00000028
 ,0.00000181,0.00000562,-0.00000350,-0.00000027,-0.00002055,-0.00001710
 ,-0.00001100,-0.00002683,0.00003499,0.00000226,0.00001900,0.00000836,0
 .00000269,-0.00001283,0.00001864,0.00000266,0.00005119,0.00000282,-0.0
 0001996,-0.00002786,0.00000892,-0.00000207,0.00002152,0.00001020,0.000
 00274,0.00006018,0.00008041,-0.00001411,-0.00002038,-0.00000659,-0.000
 01078,0.00004380,-0.00000188,-0.00000385,0.00033003,0.00025245,-0.0001
 5569,0.00010788,-0.00000487,0.00003964,0.00000014,0.00004130,0.0000051
 7,-0.00001259,-0.00000188,-0.00000946,-0.00140185,0.00257209,0.0022504
 0,0.00643949,0.00573361,0.00491775,0.00143492,-0.00051269,-0.00117383,
 0.00017346,-0.00010922,0.00001576,-0.08876641,-0.03144575,-0.07587539,
 -0.01870641,-0.00606912,-0.00217560,-0.00438611,0.00531370,0.00544860,
 0.00075809,-0.00144974,-0.00078381,-0.00000313,-0.00000177,0.00000877,
 0.00000487,-0.00000226,0.00000309,-0.00000367,0.00000235,0.00000211,-0
 .00000229,0.00000291,0.00000104,-0.00000413,-0.00000062,0.,-0.00000404
 ,-0.00000044,0.00000053,-0.00000142,-0.00000415,-0.00000008,-0.0000009
 4,-0.00000365,0.00001012,-0.00000456,-0.00000594,-0.00000096,0.0000043
 2,0.00000025,0.00000268,-0.00003498,0.00000676,0.00009187,-0.00016820,
 -0.00017854,0.00020605,0.10168651,0.02749592,0.07174746,0.00004191,-0.
 00003204,0.00001535,0.00018057,0.00007853,-0.00015602,-0.00003557,-0.0
 0000090,-0.00005388,0.00000937,-0.00000605,0.00002626,0.00003641,-0.00
 000418,0.00000868,0.00000940,0.00003677,0.00000270,0.00000048,-0.00000
 144,-0.00000309,-0.00000314,0.00000448,-0.00000122,-0.00002071,-0.0000
 4305,-0.00000440,-0.00005689,0.00003021,-0.00000085,0.00004258,0.00000
 036,0.00001011,-0.00002728,0.00003309,-0.00000046,-0.00004732,0.000004
 06,0.00011559,0.00005711,-0.00006970,-0.00006381,-0.00006789,0.0000243
 6,-0.00002047,0.00019118,-0.00008593,0.00026165,0.00000581,0.00007700,
 0.00001026,0.00006171,-0.00001953,0.00001538,-0.00028636,-0.00006551,0
 .00113046,-0.00044033,0.00001374,-0.00019224,0.00003822,0.00000190,-0.
 00008083,-0.00003554,-0.00005180,0.00000293,-0.00123878,0.00053320,-0.
 00065697,0.00036146,-0.00001679,-0.00650819,0.00067740,0.00018329,0.00
 002679,-0.00000443,0.00053330,0.00031085,0.00851939,0.01844619,-0.0056
 3838,-0.06825369,-0.06903296,0.00708946,-0.00200677,-0.02505130,0.0079
 3957,-0.00105646,-0.00011444,-0.00356060,-0.00000438,-0.00004046,-0.00
 001630,-0.00000823,0.00001623,0.00004303,-0.00001103,-0.00000057,0.000
 00947,-0.00000433,0.00000054,0.00000370,-0.00000147,-0.00000016,0.0000
 0063,-0.00000115,0.00000096,0.00000008,-0.00000118,-0.00000169,0.00000
 083,-0.00000161,-0.00000506,-0.00000649,0.00000397,-0.00000492,-0.0000
 0707,-0.00000196,-0.00000851,0.00000002,0.00002892,0.00010615,-0.00002
 935,0.00005467,-0.00007491,-0.00012831,-0.00066317,0.00084347,0.003061
 71,0.06444173,0.00003998,-0.00000580,-0.00001278,0.00007249,-0.0000191
 6,-0.00003074,0.00000507,-0.00001672,0.00002661,0.00002485,0.00002304,
 0.00002133,-0.00000588,-0.00002136,-0.00001140,0.00001131,0.00003620,0
 .00001176,-0.00002322,-0.00000944,-0.00000467,0.00001083,0.00002094,0.
 00001027,-0.00001097,-0.00002980,-0.00001740,-0.00001110,0.00000058,0.
 00000409,0.00002578,0.00001050,0.00000371,-0.00000824,0.00002837,0.000
 00464,-0.00005546,0.00000360,0.00008088,0.00003443,-0.00006843,-0.0000
 2062,-0.00004665,0.00001072,-0.00001548,-0.00007172,0.00002737,-0.0000
 2078,-0.00006322,0.00005419,-0.00001792,0.00001240,-0.00003243,-0.0000
 1412,0.00011524,0.00020346,-0.00035015,0.00028573,0.00004296,0.0001264
 1,0.00001662,0.00000335,0.00004687,0.00001035,0.00003736,-0.00000595,0
 .00074410,0.00036635,0.00014980,0.00112421,0.00146419,0.00374934,-0.00
 082543,-0.00011875,-0.00001795,0.00024323,-0.00041874,-0.00008185,-0.0
 0670051,-0.01180499,0.00232920,-0.06655013,-0.30141135,0.06526096,0.00
 098802,-0.00584070,0.00415159,-0.00376875,0.00042820,-0.00158500,-0.00
 000605,-0.00001954,-0.00002461,-0.00000212,0.00001580,0.00001932,-0.00
 000946,0.00000456,0.00000240,-0.00000532,0.00000567,-0.00000038,-0.000
 00783,-0.00000038,-0.00000005,-0.00000754,-0.00000103,-0.00000047,-0.0
 0000191,-0.00000653,-0.00000238,-0.00000480,-0.00000684,0.00000463,-0.
 00000424,-0.00001042,0.00000340,0.00001080,-0.00000396,-0.00000261,-0.
 00001354,-0.00009985,-0.00002188,0.00004701,0.00006599,0.00013265,0.00
 130076,0.00010465,-0.00158737,0.07302762,0.31736828,-0.00000766,0.0000
 5678,-0.00003993,0.00001617,0.00000570,0.00002284,0.00001294,-0.000039
 61,0.00007000,0.00003229,0.00000625,0.00000203,-0.00002832,-0.00000861
 ,-0.00002346,-0.00000243,0.00000587,0.00000865,-0.00000900,-0.00001291
 ,-0.00000732,0.00000359,0.00000181,0.00000878,0.00000219,0.00002669,-0
 .00000764,0.00005839,-0.00002507,0.00001361,-0.00004071,-0.00001153,-0
 .00000815,0.00003988,-0.00001306,0.00000190,-0.00000256,-0.00001272,0.
 00001443,0.00000640,0.00001019,0.00004493,0.00000983,-0.00001383,-0.00
 000690,-0.00022509,0.00008870,-0.00016539,0.00000395,0.00005700,-0.000
 02998,-0.00005825,-0.00004794,-0.00003515,0.00050543,0.00014058,-0.001
 01634,0.00051844,-0.00010987,0.00025003,0.00009623,-0.00000899,0.00014
 249,-0.00001217,0.00013527,-0.00002758,0.00084291,-0.00021839,0.000198
 69,-0.00633928,0.00293320,0.00560439,0.00042169,0.00151756,-0.00022894
 ,-0.00039033,-0.00045119,-0.00065924,0.00563669,0.01917695,0.00020317,
 0.00478573,0.06264957,-0.05649143,-0.00042873,-0.01129298,0.00606628,-
 0.00615618,-0.00015158,-0.00004195,-0.00003580,0.00004814,0.00001208,0
 .00001517,-0.00001360,-0.00002409,0.00000230,0.00000144,-0.00000179,-0
 .00000033,0.00000264,-0.00000329,-0.00000303,-0.00000118,-0.00000047,-
 0.00000282,-0.00000310,-0.00000026,0.00000081,-0.00000079,-0.00000355,
 -0.00000313,0.00000195,0.00001449,0.00000424,-0.00000142,0.00000906,0.
 00000515,0.00000036,-0.00000418,0.00001195,0.00007777,-0.00000975,-0.0
 0005982,0.00009270,0.00021867,0.00256896,-0.00209415,-0.00365437,-0.00
 333537,-0.07181545,0.04965817,-0.00116356,-0.00286929,0.00081132,0.000
 49097,0.00151603,-0.00008967,-0.00090994,-0.00036319,-0.00045346,-0.00
 057269,-0.00014481,-0.00007949,-0.00003212,-0.00008791,-0.00006824,0.0
 0021727,-0.00022318,-0.00004992,-0.00033362,-0.00012557,-0.00010413,-0
 .00004362,0.00030515,0.00008578,0.00011009,-0.00051561,-0.00008975,-0.
 00080493,0.00091287,-0.00002984,0.00033235,0.00002157,0.00005875,-0.00
 029169,0.00033127,0.00003885,0.00144262,0.00088263,0.00023407,-0.00075
 378,0.00064691,0.00025585,0.00015582,0.00011411,0.00006656,0.00195618,
 0.00053818,0.00047158,-0.00064187,-0.00056628,0.00005727,0.00115869,0.
 00014202,0.00026421,0.00011717,-0.00074626,0.00228500,-0.00052965,0.00
 087551,-0.00000784,-0.00028373,0.00000861,-0.00022219,0.00018818,-0.00
 035209,0.00012765,-0.00771533,-0.00321580,-0.00025342,0.00043001,0.002
 91998,-0.00178627,-0.00045215,-0.00144366,-0.00080495,0.00129373,-0.00
 021096,0.00069837,-0.00085604,-0.00663733,0.00294988,-0.01584268,0.003
 04888,-0.00441586,-0.06995766,0.00058877,0.04986669,-0.01485929,0.0578
 0402,0.01601232,-0.00016878,-0.00018789,0.00017439,0.00003019,-0.00006
 767,-0.00002771,0.00001113,-0.00000920,0.00001425,0.00001051,-0.000011
 57,0.00000857,0.00000907,0.00001344,0.00000961,0.00001017,0.00001481,0
 .00000656,-0.00000416,0.00000021,0.00001340,0.00001386,-0.00001610,-0.
 00005422,-0.00002239,-0.00001173,-0.00002360,-0.00000217,-0.00000912,-
 0.00000776,-0.00004712,0.00004472,0.00006192,0.00002046,-0.00005223,-0
 .00024569,0.00029808,-0.00019842,-0.00058043,-0.00059369,0.00005054,0.
 00040307,0.10857472,-0.00043877,-0.00073653,0.00043388,-0.00036350,-0.
 00073435,0.00081972,0.00028001,-0.00003872,0.00021538,-0.00029394,-0.0
 0004049,0.00008073,-0.00028457,0.00011020,-0.00005322,-0.00009845,-0.0
 0013093,-0.00009822,0.00010364,0.00006213,0.00003320,0.00002129,-0.000
 09990,-0.00004651,0.00012213,0.00011827,0.00002325,0.00013298,-0.00021
 058,-0.00004014,-0.00025235,0.00011823,-0.00003037,-0.00005720,-0.0003
 0320,-0.00004695,-0.00050795,-0.00017091,0.00017552,-0.00001290,0.0000
 6071,-0.00002502,0.00027216,-0.00002071,0.00010365,-0.00108114,-0.0001
 9372,-0.00089384,0.00006672,0.00023458,-0.00014667,-0.00042622,0.00014
 744,0.00010348,0.00110407,0.00165769,0.00114993,-0.00147569,0.00116056
 ,-0.00057459,0.00023457,0.00041643,-0.00001361,-0.00040855,0.00014600,
 -0.00011389,0.00624043,-0.00389335,0.00249102,0.00004064,0.00448572,-0
 .00233956,0.00079337,-0.00434508,0.00265274,0.00317859,0.00232171,0.00
 022400,-0.00030210,-0.01220209,0.00694589,-0.02018793,0.00147441,-0.00
 788112,0.07820306,-0.02768247,-0.03362407,0.00302928,0.02860819,-0.002
 15342,0.00010002,0.00020754,0.00022697,0.00001348,-0.00002139,-0.00008
 800,0.00000899,0.00000565,0.00000546,-0.00000320,0.00000540,0.00000824
 ,-0.00000443,-0.00000285,0.00000328,0.00000028,0.00000121,0.00000596,-
 0.00001507,-0.00001031,-0.00000253,-0.00002355,-0.00002963,0.00001578,
 -0.00000393,-0.00003590,-0.00003092,0.00000772,0.00003671,-0.00001089,
 0.00001601,0.00007359,-0.00006905,0.00004066,-0.00008850,0.00001762,0.
 00030871,-0.00011531,-0.00034749,-0.00005145,-0.00041339,-0.00081180,-
 0.05384708,0.00426153,0.00056606,0.00284222,-0.00006655,-0.00019310,-0
 .00100571,0.00012142,0.00028095,0.00025195,0.00006011,0.00036254,0.000
 00637,-0.00021306,0.00018555,-0.00005808,0.00007381,-0.00047272,0.0002
 3007,0.00002543,0.00044652,0.00014670,0.00011169,-0.00001604,-0.000425
 77,-0.00015726,-0.00034628,0.00042198,0.00010825,0.00050238,-0.0006476
 8,0.00001807,-0.00017780,-0.00001738,-0.00005337,0.00019216,-0.0002035
 0,-0.00002725,0.00010594,-0.00095415,0.00056189,0.00044828,-0.00073147
 ,-0.00034142,-0.00024501,-0.00006496,-0.00012854,-0.00090299,-0.000346
 12,-0.00005384,0.00039543,0.00014686,-0.00005237,-0.00067034,0.0000035
 9,-0.00014133,0.00012891,-0.00008699,-0.00093811,0.00024177,-0.0005865
 5,-0.00021228,-0.00000209,0.00000002,0.00011359,-0.00003255,0.00007067
 ,-0.00003124,-0.00514986,0.00329301,0.00208364,-0.00166910,-0.00028044
 ,-0.00013116,-0.00025785,0.00083705,-0.00062966,-0.00095632,-0.0001271
 1,-0.00023383,-0.00051049,0.00417581,-0.00230037,-0.00340651,0.0025980
 7,0.00837437,0.04961535,-0.00512061,-0.05548055,0.01414956,-0.01917803
 ,-0.01588598,-0.00019816,0.00055691,-0.00178555,0.00002988,-0.00003269
 ,0.00001831,-0.00006488,0.00001841,-0.00000838,-0.00001634,0.00000862,
 0.00001530,-0.00000296,-0.00002034,-0.00000380,-0.00000742,-0.00001085
 ,0.00000378,0.00000542,-0.00000204,0.00000186,0.00000006,0.00001396,0.
 00002934,0.00000663,0.00001701,0.00001035,-0.00000255,0.00000506,0.000
 01274,-0.00000729,-0.00000544,0.00006168,-0.00012205,0.00006658,-0.000
 17050,0.00024001,-0.00029640,-0.00064525,0.00049248,-0.00017903,-0.000
 06719,-0.06564248,0.01924902,0.08206900,-0.00018277,-0.00019369,0.0001
 6333,-0.00006174,-0.00001610,0.00029653,0.00007571,-0.00003743,0.00010
 073,0.00014793,-0.00000974,0.00009955,-0.00014893,-0.00004047,-0.00006
 549,-0.00000259,0.00007453,0.00001442,-0.00003135,-0.00001891,-0.00001
 365,-0.00003271,0.00004236,0.00000669,0.00011868,0.00002268,-0.0000045
 7,0.00002606,-0.00002544,-0.00001290,-0.00006871,0.00000548,-0.0000147
 7,-0.00000353,-0.00008034,-0.00000621,-0.00007983,-0.00002310,-0.00000
 581,0.00007892,-0.00008008,0.00001742,-0.00011637,-0.00000467,-0.00003
 328,-0.00047045,-0.00011085,-0.00040482,-0.00000884,0.00015511,-0.0000
 1263,-0.00009141,0.00001154,0.00002769,0.00080768,0.00028592,-0.000333
 77,-0.00016125,0.00006923,0.00041522,0.00003021,-0.00001423,0.00005221
 ,0.00000865,0.00000479,-0.00002332,0.00546053,-0.00375018,-0.00290643,
 -0.00025344,-0.00054231,-0.00003823,0.00024014,-0.00019751,0.00112064,
 0.00031304,0.00033664,-0.00005935,-0.00252344,-0.00509841,-0.00182534,
 -0.00931816,0.01122576,-0.02407818,-0.07950882,0.03398786,-0.09097737,
 -0.00354842,0.00894642,0.01188187,-0.00003717,-0.00002479,-0.00008505,
 -0.00000172,0.00000863,0.00001694,-0.00000871,0.00000444,0.00000213,-0
 .00000650,0.00000017,0.00000336,-0.00000195,0.00000023,0.00000266,-0.0
 0000026,-0.00000231,0.00000161,-0.00000447,-0.00000165,-0.00000167,-0.
 00000582,-0.00000693,0.00000033,0.00000444,-0.00000630,-0.00000435,0.0
 0000137,-0.00000867,0.00000263,0.00003085,-0.00000315,-0.00008212,0.00
 012208,-0.00013109,0.00001533,-0.00114347,0.00108474,-0.00001560,0.000
 11106,0.00000270,0.00113662,0.00001140,-0.01417888,0.01267730,0.090234
 09,0.00018133,0.00015610,-0.00004561,0.00026297,-0.00000368,-0.0002785
 8,-0.00018790,-0.00002410,-0.00011634,-0.00007707,0.00000400,-0.000051
 72,0.00015703,-0.00001461,0.00002943,-0.00000292,0.00001527,-0.0000157
 1,0.00002317,0.00000919,0.00000943,0.00001363,-0.00002632,-0.00001446,
 -0.00014335,-0.00008196,-0.00000901,-0.00012134,0.00008569,-0.00000049
 ,0.00012296,-0.00000472,0.00001614,-0.00003809,0.00012044,0.00000627,-
 0.00000386,0.00002576,0.00010515,-0.00000732,-0.00000632,-0.00002206,0
 .00003153,0.00000799,0.00001349,0.00030450,0.00015930,0.00030500,-0.00
 016250,-0.00006079,-0.00003280,0.00020320,-0.00002456,0.00000648,0.001
 16065,-0.00002040,0.00071200,0.00021265,-0.00039986,0.00000479,0.00009
 764,-0.00011507,-0.00002633,0.00010124,-0.00002251,0.00004465,-0.00438
 053,-0.00390833,0.00506732,0.00033787,-0.00176811,-0.00011152,-0.00009
 670,0.00082413,-0.00100571,-0.00041006,-0.00066531,0.00012004,-0.00372
 033,0.00072852,-0.00065201,-0.00193042,0.00769987,-0.01025330,0.026613
 97,-0.08402912,0.09227437,0.01192129,-0.02097856,0.02189428,0.00002726
 ,-0.00001228,0.00000177,0.00000016,-0.00000325,-0.00001956,0.00000215,
 -0.00000272,0.00000135,0.00000199,0.00000084,0.00000396,-0.00000207,-0
 .00000167,0.00000130,-0.00000372,0.00000235,0.00000241,0.00000086,-0.0
 0000409,0.00000564,-0.00000148,-0.00000498,-0.00000612,-0.00001042,-0.
 00000611,0.00000855,-0.00000510,-0.00005620,0.00000277,-0.00000671,0.0
 0000456,0.00003347,0.00003232,-0.00001137,0.00010512,-0.00075705,0.000
 66376,0.00021667,0.00078790,0.00003331,0.00012266,0.00113270,0.0058064
 3,-0.00457861,-0.03166201,0.09590952,0.00015939,0.00023253,-0.00017476
 ,0.00015618,0.00002163,-0.00026020,-0.00018140,-0.00001795,-0.00012553
 ,-0.00012414,-0.00000791,-0.00008850,0.00017585,0.00002317,0.00005058,
 -0.00001103,-0.00006423,-0.00002082,0.00006910,0.00002383,0.00001824,0
 .00001623,-0.00007487,-0.00002146,-0.00014124,-0.00000467,0.00001734,-
 0.00004013,0.00005547,0.00000994,0.00004728,-0.00002177,0.00000855,0.0
 0001209,0.00006687,0.00000191,0.00007286,0.00005812,-0.00006425,-0.000
 10807,0.00008181,0.00002863,0.00015847,-0.00001899,0.00006910,0.000322
 97,0.00007782,0.00033932,-0.00002340,-0.00010871,-0.00002195,0.0001146
 3,-0.00001439,-0.00000519,-0.00057492,0.00000025,0.00031398,0.00041983
 ,-0.00005568,-0.00025258,-0.00001759,-0.00003674,-0.00002627,0.0000243
 6,0.00002940,0.00001459,-0.00289107,0.00072667,0.00441772,0.00095660,-
 0.00045326,0.00023974,-0.00016779,0.00043592,-0.00094102,-0.00034324,-
 0.00049153,0.00008930,-0.00230496,-0.00091556,0.00028663,-0.00223819,0
 .00526188,-0.00500550,-0.09572810,0.08764167,-0.22799077,0.00959482,-0
 .00327619,-0.00324546,0.00001183,0.00002626,0.00008568,-0.00000268,-0.
 00001772,-0.00005969,0.00001963,-0.00000726,-0.00001315,0.00001086,-0.
 00000339,-0.00000369,0.00000684,-0.00000145,-0.00000277,0.00000463,0.0
 0000207,-0.00000024,0.00000536,0.00000471,0.00000332,0.00000610,0.0000
 0839,-0.00000197,0.00000066,0.00000854,0.00000560,-0.00000459,0.000012
 11,-0.00000242,-0.00003129,0.00002259,0.00004979,-0.00007142,0.0000097
 2,0.00002358,-0.00025840,0.00047709,-0.00016260,-0.00011368,-0.0002988
 5,-0.00000635,0.00006104,0.01445719,-0.01411583,0.09294970,-0.10387461
 ,0.24653943\\-0.00000061,-0.00000108,0.00000252,0.00000094,0.00000079,
 -0.00000167,-0.00000045,0.00000041,0.00000105,-0.00000044,-0.00000081,
 0.00000260,-0.00000015,-0.00000076,0.00000321,0.00000003,0.00000032,-0
 .00000026,0.00000026,0.00000104,-0.00000223,0.00000026,0.00000108,-0.0
 0000208,-0.00000004,0.00000071,-0.00000059,-0.00000044,0.00000066,0.00
 000082,-0.00000018,0.00000047,-0.00000127,-0.00000036,0.00000054,-0.00
 000112,0.00000156,0.00000139,-0.00000331,-0.00000020,0.00000069,-0.000
 00117,0.00000065,0.00000106,-0.00000187,0.00000020,-0.00000043,0.00000
 142,-0.00000049,-0.00000008,0.00000087,0.00000037,-0.00000013,-0.00000
 221,-0.00000233,-0.00000064,-0.00000089,-0.00000201,0.00000010,0.00000
 110,-0.00000029,-0.00000011,0.00000082,-0.00000088,-0.00000034,0.00000
 024,-0.00000273,0.00000058,-0.00000474,0.00000519,0.00000142,-0.000001
 91,-0.00000085,0.00000007,0.00000413,0.00000147,0.00000058,0.00000064,
 -0.00000099,0.00000016,0.00000524,-0.00002149,-0.00000707,0.00000660,0
 .00001255,-0.00001728,0.00000343,0.00001484,0.00002478,-0.00001189,-0.
 00000003,-0.00000004,0.00000012,0.00000035,0.00000040,-0.00000089,0.00
 000046,0.00000070,-0.00000112,0.00000023,0.00000065,-0.00000077,0.0000
 0006,0.00000073,-0.00000043,-0.00000023,0.00000050,0.00000018,-0.00000
 046,0.00000029,0.00000064,-0.00000064,0.00000004,0.00000151,-0.0000009
 1,-0.00000005,0.00000192,-0.00000082,-0.00000013,0.00000181,-0.0000002
 3,-0.00000044,0.00000054,-0.00000002,-0.00000063,0.00000043,0.00000180
 ,-0.00000241,-0.00000186,0.00000642,-0.00000447,-0.00000978,-0.0000042
 9,0.00000038,0.00000769,-0.00000506,-0.00000365,0.00000251\\\@


 REALITY IS FOR PEOPLE WHO CAN'T FACE SCIENCE FICTION.
 Job cpu time:       0 days 23 hours 27 minutes 34.3 seconds.
 Elapsed time:       0 days  1 hours 10 minutes 34.7 seconds.
 File lengths (MBytes):  RWF=   2281 Int=      0 D2E=      0 Chk=     49 Scr=      1
 Normal termination of Gaussian 16 at Tue Aug 13 00:25:36 2019.
