 Entering Gaussian System, Link 0=/share/apps/gaussian16/g16/g16
 Initial command:
 /share/apps/gaussian16/g16/l1.exe "/home/amen01//scratch/671/Gau-3500.inp" -scrdir="/home/amen01//scratch/671/"
 Entering Link 1 = /share/apps/gaussian16/g16/l1.exe PID=      3501.
  
 Copyright (c) 1988-2017, Gaussian, Inc.  All Rights Reserved.
  
 This is part of the Gaussian(R) 16 program.  It is based on
 the Gaussian(R) 09 system (copyright 2009, Gaussian, Inc.),
 the Gaussian(R) 03 system (copyright 2003, Gaussian, Inc.),
 the Gaussian(R) 98 system (copyright 1998, Gaussian, Inc.),
 the Gaussian(R) 94 system (copyright 1995, Gaussian, Inc.),
 the Gaussian 92(TM) system (copyright 1992, Gaussian, Inc.),
 the Gaussian 90(TM) system (copyright 1990, Gaussian, Inc.),
 the Gaussian 88(TM) system (copyright 1988, Gaussian, Inc.),
 the Gaussian 86(TM) system (copyright 1986, Carnegie Mellon
 University), and the Gaussian 82(TM) system (copyright 1983,
 Carnegie Mellon University). Gaussian is a federally registered
 trademark of Gaussian, Inc.
  
 This software contains proprietary and confidential information,
 including trade secrets, belonging to Gaussian, Inc.
  
 This software is provided under written license and may be
 used, copied, transmitted, or stored only in accord with that
 written license.
  
 The following legend is applicable only to US Government
 contracts under FAR:
  
                    RESTRICTED RIGHTS LEGEND
  
 Use, reproduction and disclosure by the US Government is
 subject to restrictions as set forth in subparagraphs (a)
 and (c) of the Commercial Computer Software - Restricted
 Rights clause in FAR 52.227-19.
  
 Gaussian, Inc.
 340 Quinnipiac St., Bldg. 40, Wallingford CT 06492
  
  
 ---------------------------------------------------------------
 Warning -- This program may not be used in any manner that
 competes with the business of Gaussian, Inc. or will provide
 assistance to any competitor of Gaussian, Inc.  The licensee
 of this program is prohibited from giving any competitor of
 Gaussian, Inc. access to this program.  By using this program,
 the user acknowledges that Gaussian, Inc. is engaged in the
 business of creating and licensing software in the field of
 computational chemistry and represents and warrants to the
 licensee that it is not a competitor of Gaussian, Inc. and that
 it will not use this program in any manner prohibited above.
 ---------------------------------------------------------------
  

 Cite this work as:
 Gaussian 16, Revision B.01,
 M. J. Frisch, G. W. Trucks, H. B. Schlegel, G. E. Scuseria, 
 M. A. Robb, J. R. Cheeseman, G. Scalmani, V. Barone, 
 G. A. Petersson, H. Nakatsuji, X. Li, M. Caricato, A. V. Marenich, 
 J. Bloino, B. G. Janesko, R. Gomperts, B. Mennucci, H. P. Hratchian, 
 J. V. Ortiz, A. F. Izmaylov, J. L. Sonnenberg, D. Williams-Young, 
 F. Ding, F. Lipparini, F. Egidi, J. Goings, B. Peng, A. Petrone, 
 T. Henderson, D. Ranasinghe, V. G. Zakrzewski, J. Gao, N. Rega, 
 G. Zheng, W. Liang, M. Hada, M. Ehara, K. Toyota, R. Fukuda, 
 J. Hasegawa, M. Ishida, T. Nakajima, Y. Honda, O. Kitao, H. Nakai, 
 T. Vreven, K. Throssell, J. A. Montgomery, Jr., J. E. Peralta, 
 F. Ogliaro, M. J. Bearpark, J. J. Heyd, E. N. Brothers, K. N. Kudin, 
 V. N. Staroverov, T. A. Keith, R. Kobayashi, J. Normand, 
 K. Raghavachari, A. P. Rendell, J. C. Burant, S. S. Iyengar, 
 J. Tomasi, M. Cossi, J. M. Millam, M. Klene, C. Adamo, R. Cammi, 
 J. W. Ochterski, R. L. Martin, K. Morokuma, O. Farkas, 
 J. B. Foresman, and D. J. Fox, Gaussian, Inc., Wallingford CT, 2016.
 
 ******************************************
 Gaussian 16:  ES64L-G16RevB.01 20-Dec-2017
                 3-Jul-2019 
 ******************************************
 %nprocshared=20
 Will use up to   20 processors via shared memory.
 %mem=100GB
 %chk=7-memb2-haddTSguess-1a.chk
 ---------------------------------------------------------------
 # opt=(ts,calcfc,noeigen) freq b3lyp/6-311+g(d,p) int=grid=fine
 ---------------------------------------------------------------
 1/5=1,10=4,11=1,18=20,26=3,38=1/1,3;
 2/9=110,12=2,17=6,18=5,40=1/2;
 3/5=4,6=6,7=111,11=2,25=1,30=1,71=2,74=-5,75=-4,140=1/1,2,3;
 4//1;
 5/5=2,38=5/2;
 8/6=4,10=90,11=11/1;
 11/6=1,8=1,9=11,15=111,16=1/1,2,10;
 10/6=1,13=1/2;
 6/7=2,8=2,9=2,10=2,28=1/1;
 7/10=1,18=20,25=1/1,2,3,16;
 1/5=1,10=4,11=1,18=20,26=3/3(2);
 2/9=110/2;
 99//99;
 2/9=110/2;
 3/5=4,6=6,7=111,11=2,25=1,30=1,71=1,74=-5,75=-4/1,2,3;
 4/5=5,16=3,69=1/1;
 5/5=2,38=5/2;
 7//1,2,3,16;
 1/5=1,11=1,18=20,26=3/3(-5);
 2/9=110/2;
 6/7=2,8=2,9=2,10=2,19=2,28=1/1;
 99/9=1/99;
 ----------------------
 7-memb2-haddTSguess-1a
 ----------------------
 Symbolic Z-matrix:
 Charge =  0 Multiplicity = 2
 C                     0.8063   -1.00149  -0.33484 
 C                     0.4508    0.42692   0.01165 
 C                     1.68955   1.05523   0.27581 
 C                     2.22383  -1.09837  -0.17686 
 C                     2.74637   0.13435   0.19741 
 C                     3.05412  -2.18108  -0.4566 
 C                     4.46552  -1.93282  -0.27002 
 C                     4.96203  -0.69299   0.09489 
 C                     4.08862   0.42994   0.31934 
 C                     1.95794   2.41531   0.45513 
 C                     3.35434   2.7594    0.64099 
 C                     4.36645   1.82405   0.58426 
 C                     0.19594  -2.12405  -0.84742 
 C                     1.00472  -3.27144  -1.17528 
 C                     2.38473  -3.33591  -0.92849 
 C                    -0.69016   1.2617    0.00685 
 C                    -0.42706   2.69977   0.02908 
 C                     0.8436    3.24768   0.29149 
 C                    -2.07679   0.8292   -0.09322 
 C                    -3.02329   1.73623  -0.61888 
 C                    -2.69318   3.1245   -0.74956 
 C                    -1.48617   3.59285  -0.34593 
 C                    -2.56572  -0.4492    0.38423 
 C                    -3.88219  -0.87604   0.01779 
 C                    -4.72617   0.00561  -0.71738 
 C                    -4.33106   1.28567  -0.96625 
 C                    -4.3634   -2.13006   0.46572 
 C                    -3.62043  -2.9108    1.32174 
 C                    -2.372    -2.4438    1.77687 
 C                    -1.85917  -1.2503    1.31586 
 H                    -0.86512  -2.17376  -1.05014 
 H                     0.48604  -4.18723  -1.4328 
 H                     2.92633  -4.24683  -1.15865 
 H                     5.16588  -2.74237  -0.44854 
 H                     6.03572  -0.56677   0.1894 
 H                     5.39267   2.15281   0.71232 
 H                     3.61325   3.8002    0.80647 
 H                     0.9469    4.32828   0.29705 
 H                    -1.27522   4.65668  -0.36186 
 H                    -3.45568   3.80357  -1.11544 
 H                    -5.00916   1.98935  -1.43732 
 H                    -5.71356  -0.33599  -1.00921 
 H                    -5.35194  -2.44793   0.15071 
 H                    -4.00736  -3.86069   1.67284 
 H                    -1.81089  -3.02234   2.502 
 H                    -0.90741  -0.90714   1.69421 
 H                     0.96111  -3.02007  -3.06127 
 
 Add virtual bond connecting atoms H47        and C14        Dist= 3.60D+00.
 Add virtual bond connecting atoms H47        and H32        Dist= 3.89D+00.

 GradGradGradGradGradGradGradGradGradGradGradGradGradGradGradGradGradGrad
 Berny optimization.
 Initialization pass.
                           ----------------------------
                           !    Initial Parameters    !
                           ! (Angstroms and Degrees)  !
 --------------------------                            --------------------------
 ! Name  Definition              Value          Derivative Info.                !
 --------------------------------------------------------------------------------
 ! R1    R(1,2)                  1.5122         calculate D2E/DX2 analytically  !
 ! R2    R(1,4)                  1.4296         calculate D2E/DX2 analytically  !
 ! R3    R(1,13)                 1.3767         calculate D2E/DX2 analytically  !
 ! R4    R(2,3)                  1.4139         calculate D2E/DX2 analytically  !
 ! R5    R(2,16)                 1.4137         calculate D2E/DX2 analytically  !
 ! R6    R(3,5)                  1.4039         calculate D2E/DX2 analytically  !
 ! R7    R(3,10)                 1.3979         calculate D2E/DX2 analytically  !
 ! R8    R(4,5)                  1.3902         calculate D2E/DX2 analytically  !
 ! R9    R(4,6)                  1.3928         calculate D2E/DX2 analytically  !
 ! R10   R(5,9)                  1.3798         calculate D2E/DX2 analytically  !
 ! R11   R(6,7)                  1.4452         calculate D2E/DX2 analytically  !
 ! R12   R(6,15)                 1.4158         calculate D2E/DX2 analytically  !
 ! R13   R(7,8)                  1.3845         calculate D2E/DX2 analytically  !
 ! R14   R(7,34)                 1.0852         calculate D2E/DX2 analytically  !
 ! R15   R(8,9)                  1.4402         calculate D2E/DX2 analytically  !
 ! R16   R(8,35)                 1.0852         calculate D2E/DX2 analytically  !
 ! R17   R(9,12)                 1.446          calculate D2E/DX2 analytically  !
 ! R18   R(10,11)                1.4501         calculate D2E/DX2 analytically  !
 ! R19   R(10,18)                1.4005         calculate D2E/DX2 analytically  !
 ! R20   R(11,12)                1.3793         calculate D2E/DX2 analytically  !
 ! R21   R(11,37)                1.0852         calculate D2E/DX2 analytically  !
 ! R22   R(12,36)                1.0852         calculate D2E/DX2 analytically  !
 ! R23   R(13,14)                1.4416         calculate D2E/DX2 analytically  !
 ! R24   R(13,31)                1.0814         calculate D2E/DX2 analytically  !
 ! R25   R(14,15)                1.4034         calculate D2E/DX2 analytically  !
 ! R26   R(14,32)                1.0835         calculate D2E/DX2 analytically  !
 ! R27   R(14,47)                1.9032         calculate D2E/DX2 analytically  !
 ! R28   R(15,33)                1.0845         calculate D2E/DX2 analytically  !
 ! R29   R(16,17)                1.4621         calculate D2E/DX2 analytically  !
 ! R30   R(16,19)                1.456          calculate D2E/DX2 analytically  !
 ! R31   R(17,18)                1.4084         calculate D2E/DX2 analytically  !
 ! R32   R(17,22)                1.4352         calculate D2E/DX2 analytically  !
 ! R33   R(18,38)                1.0855         calculate D2E/DX2 analytically  !
 ! R34   R(19,20)                1.4124         calculate D2E/DX2 analytically  !
 ! R35   R(19,23)                1.4496         calculate D2E/DX2 analytically  !
 ! R36   R(20,21)                1.433          calculate D2E/DX2 analytically  !
 ! R37   R(20,26)                1.4262         calculate D2E/DX2 analytically  !
 ! R38   R(21,22)                1.3562         calculate D2E/DX2 analytically  !
 ! R39   R(21,40)                1.0846         calculate D2E/DX2 analytically  !
 ! R40   R(22,39)                1.0847         calculate D2E/DX2 analytically  !
 ! R41   R(23,24)                1.4316         calculate D2E/DX2 analytically  !
 ! R42   R(23,30)                1.4174         calculate D2E/DX2 analytically  !
 ! R43   R(24,25)                1.4248         calculate D2E/DX2 analytically  !
 ! R44   R(24,27)                1.4159         calculate D2E/DX2 analytically  !
 ! R45   R(25,26)                1.3626         calculate D2E/DX2 analytically  !
 ! R46   R(25,42)                1.0848         calculate D2E/DX2 analytically  !
 ! R47   R(26,41)                1.0848         calculate D2E/DX2 analytically  !
 ! R48   R(27,28)                1.3763         calculate D2E/DX2 analytically  !
 ! R49   R(27,43)                1.0851         calculate D2E/DX2 analytically  !
 ! R50   R(28,29)                1.4085         calculate D2E/DX2 analytically  !
 ! R51   R(28,44)                1.0841         calculate D2E/DX2 analytically  !
 ! R52   R(29,30)                1.3784         calculate D2E/DX2 analytically  !
 ! R53   R(29,45)                1.0841         calculate D2E/DX2 analytically  !
 ! R54   R(30,46)                1.0802         calculate D2E/DX2 analytically  !
 ! R55   R(32,47)                2.0591         calculate D2E/DX2 analytically  !
 ! A1    A(2,1,4)              105.7708         calculate D2E/DX2 analytically  !
 ! A2    A(2,1,13)             138.701          calculate D2E/DX2 analytically  !
 ! A3    A(4,1,13)             115.1813         calculate D2E/DX2 analytically  !
 ! A4    A(1,2,3)              104.8687         calculate D2E/DX2 analytically  !
 ! A5    A(1,2,16)             138.3052         calculate D2E/DX2 analytically  !
 ! A6    A(3,2,16)             116.4438         calculate D2E/DX2 analytically  !
 ! A7    A(2,3,5)              110.9527         calculate D2E/DX2 analytically  !
 ! A8    A(2,3,10)             128.6503         calculate D2E/DX2 analytically  !
 ! A9    A(5,3,10)             120.0551         calculate D2E/DX2 analytically  !
 ! A10   A(1,4,5)              110.0204         calculate D2E/DX2 analytically  !
 ! A11   A(1,4,6)              128.4319         calculate D2E/DX2 analytically  !
 ! A12   A(5,4,6)              121.2852         calculate D2E/DX2 analytically  !
 ! A13   A(3,5,4)              108.2833         calculate D2E/DX2 analytically  !
 ! A14   A(3,5,9)              125.9313         calculate D2E/DX2 analytically  !
 ! A15   A(4,5,9)              125.4067         calculate D2E/DX2 analytically  !
 ! A16   A(4,6,7)              115.0072         calculate D2E/DX2 analytically  !
 ! A17   A(4,6,15)             114.7823         calculate D2E/DX2 analytically  !
 ! A18   A(7,6,15)             130.1601         calculate D2E/DX2 analytically  !
 ! A19   A(6,7,8)              122.5549         calculate D2E/DX2 analytically  !
 ! A20   A(6,7,34)             118.7431         calculate D2E/DX2 analytically  !
 ! A21   A(8,7,34)             118.6813         calculate D2E/DX2 analytically  !
 ! A22   A(7,8,9)              121.454          calculate D2E/DX2 analytically  !
 ! A23   A(7,8,35)             118.8113         calculate D2E/DX2 analytically  !
 ! A24   A(9,8,35)             119.7192         calculate D2E/DX2 analytically  !
 ! A25   A(5,9,8)              114.1506         calculate D2E/DX2 analytically  !
 ! A26   A(5,9,12)             114.1819         calculate D2E/DX2 analytically  !
 ! A27   A(8,9,12)             131.5866         calculate D2E/DX2 analytically  !
 ! A28   A(3,10,11)            115.6072         calculate D2E/DX2 analytically  !
 ! A29   A(3,10,18)            114.2372         calculate D2E/DX2 analytically  !
 ! A30   A(11,10,18)           129.8029         calculate D2E/DX2 analytically  !
 ! A31   A(10,11,12)           122.7121         calculate D2E/DX2 analytically  !
 ! A32   A(10,11,37)           118.4802         calculate D2E/DX2 analytically  !
 ! A33   A(12,11,37)           118.7892         calculate D2E/DX2 analytically  !
 ! A34   A(9,12,11)            121.3554         calculate D2E/DX2 analytically  !
 ! A35   A(9,12,36)            119.6963         calculate D2E/DX2 analytically  !
 ! A36   A(11,12,36)           118.9223         calculate D2E/DX2 analytically  !
 ! A37   A(1,13,14)            119.0081         calculate D2E/DX2 analytically  !
 ! A38   A(1,13,31)            122.8387         calculate D2E/DX2 analytically  !
 ! A39   A(14,13,31)           118.1163         calculate D2E/DX2 analytically  !
 ! A40   A(13,14,15)           123.2475         calculate D2E/DX2 analytically  !
 ! A41   A(13,14,32)           117.2717         calculate D2E/DX2 analytically  !
 ! A42   A(13,14,47)            96.1654         calculate D2E/DX2 analytically  !
 ! A43   A(15,14,32)           118.2746         calculate D2E/DX2 analytically  !
 ! A44   A(15,14,47)           101.7044         calculate D2E/DX2 analytically  !
 ! A45   A(6,15,14)            119.0836         calculate D2E/DX2 analytically  !
 ! A46   A(6,15,33)            121.3164         calculate D2E/DX2 analytically  !
 ! A47   A(14,15,33)           119.4954         calculate D2E/DX2 analytically  !
 ! A48   A(2,16,17)            115.8163         calculate D2E/DX2 analytically  !
 ! A49   A(2,16,19)            126.4022         calculate D2E/DX2 analytically  !
 ! A50   A(17,16,19)           117.6841         calculate D2E/DX2 analytically  !
 ! A51   A(16,17,18)           123.2167         calculate D2E/DX2 analytically  !
 ! A52   A(16,17,22)           118.3764         calculate D2E/DX2 analytically  !
 ! A53   A(18,17,22)           118.1875         calculate D2E/DX2 analytically  !
 ! A54   A(10,18,17)           120.5581         calculate D2E/DX2 analytically  !
 ! A55   A(10,18,38)           121.0193         calculate D2E/DX2 analytically  !
 ! A56   A(17,18,38)           118.2977         calculate D2E/DX2 analytically  !
 ! A57   A(16,19,20)           118.2317         calculate D2E/DX2 analytically  !
 ! A58   A(16,19,23)           124.095          calculate D2E/DX2 analytically  !
 ! A59   A(20,19,23)           117.5744         calculate D2E/DX2 analytically  !
 ! A60   A(19,20,21)           120.1144         calculate D2E/DX2 analytically  !
 ! A61   A(19,20,26)           120.1507         calculate D2E/DX2 analytically  !
 ! A62   A(21,20,26)           119.6766         calculate D2E/DX2 analytically  !
 ! A63   A(20,21,22)           120.829          calculate D2E/DX2 analytically  !
 ! A64   A(20,21,40)           118.3844         calculate D2E/DX2 analytically  !
 ! A65   A(22,21,40)           120.6551         calculate D2E/DX2 analytically  !
 ! A66   A(17,22,21)           121.3082         calculate D2E/DX2 analytically  !
 ! A67   A(17,22,39)           118.0749         calculate D2E/DX2 analytically  !
 ! A68   A(21,22,39)           120.4939         calculate D2E/DX2 analytically  !
 ! A69   A(19,23,24)           119.2613         calculate D2E/DX2 analytically  !
 ! A70   A(19,23,30)           123.1485         calculate D2E/DX2 analytically  !
 ! A71   A(24,23,30)           117.2662         calculate D2E/DX2 analytically  !
 ! A72   A(23,24,25)           119.49           calculate D2E/DX2 analytically  !
 ! A73   A(23,24,27)           119.7098         calculate D2E/DX2 analytically  !
 ! A74   A(25,24,27)           120.6615         calculate D2E/DX2 analytically  !
 ! A75   A(24,25,26)           120.2517         calculate D2E/DX2 analytically  !
 ! A76   A(24,25,42)           118.8885         calculate D2E/DX2 analytically  !
 ! A77   A(26,25,42)           120.7052         calculate D2E/DX2 analytically  !
 ! A78   A(20,26,25)           121.2116         calculate D2E/DX2 analytically  !
 ! A79   A(20,26,41)           118.2956         calculate D2E/DX2 analytically  !
 ! A80   A(25,26,41)           120.4928         calculate D2E/DX2 analytically  !
 ! A81   A(24,27,28)           121.0445         calculate D2E/DX2 analytically  !
 ! A82   A(24,27,43)           118.5034         calculate D2E/DX2 analytically  !
 ! A83   A(28,27,43)           120.4079         calculate D2E/DX2 analytically  !
 ! A84   A(27,28,29)           119.43           calculate D2E/DX2 analytically  !
 ! A85   A(27,28,44)           120.3836         calculate D2E/DX2 analytically  !
 ! A86   A(29,28,44)           120.1477         calculate D2E/DX2 analytically  !
 ! A87   A(28,29,30)           120.5836         calculate D2E/DX2 analytically  !
 ! A88   A(28,29,45)           119.8636         calculate D2E/DX2 analytically  !
 ! A89   A(30,29,45)           119.551          calculate D2E/DX2 analytically  !
 ! A90   A(23,30,29)           121.5848         calculate D2E/DX2 analytically  !
 ! A91   A(23,30,46)           119.3345         calculate D2E/DX2 analytically  !
 ! A92   A(29,30,46)           119.062          calculate D2E/DX2 analytically  !
 ! D1    D(4,1,2,3)              2.8069         calculate D2E/DX2 analytically  !
 ! D2    D(4,1,2,16)           174.9956         calculate D2E/DX2 analytically  !
 ! D3    D(13,1,2,3)          -169.6667         calculate D2E/DX2 analytically  !
 ! D4    D(13,1,2,16)            2.5219         calculate D2E/DX2 analytically  !
 ! D5    D(2,1,4,5)             -1.3749         calculate D2E/DX2 analytically  !
 ! D6    D(2,1,4,6)           -175.4662         calculate D2E/DX2 analytically  !
 ! D7    D(13,1,4,5)           173.1436         calculate D2E/DX2 analytically  !
 ! D8    D(13,1,4,6)            -0.9477         calculate D2E/DX2 analytically  !
 ! D9    D(2,1,13,14)          171.9515         calculate D2E/DX2 analytically  !
 ! D10   D(2,1,13,31)           -5.7975         calculate D2E/DX2 analytically  !
 ! D11   D(4,1,13,14)           -0.0418         calculate D2E/DX2 analytically  !
 ! D12   D(4,1,13,31)         -177.7908         calculate D2E/DX2 analytically  !
 ! D13   D(1,2,3,5)             -3.3178         calculate D2E/DX2 analytically  !
 ! D14   D(1,2,3,10)           169.8655         calculate D2E/DX2 analytically  !
 ! D15   D(16,2,3,5)          -177.5229         calculate D2E/DX2 analytically  !
 ! D16   D(16,2,3,10)           -4.3396         calculate D2E/DX2 analytically  !
 ! D17   D(1,2,16,17)         -160.6798         calculate D2E/DX2 analytically  !
 ! D18   D(1,2,16,19)           15.6269         calculate D2E/DX2 analytically  !
 ! D19   D(3,2,16,17)           10.8838         calculate D2E/DX2 analytically  !
 ! D20   D(3,2,16,19)         -172.8095         calculate D2E/DX2 analytically  !
 ! D21   D(2,3,5,4)              2.5821         calculate D2E/DX2 analytically  !
 ! D22   D(2,3,5,9)            175.8033         calculate D2E/DX2 analytically  !
 ! D23   D(10,3,5,4)          -171.27           calculate D2E/DX2 analytically  !
 ! D24   D(10,3,5,9)             1.9512         calculate D2E/DX2 analytically  !
 ! D25   D(2,3,10,11)         -176.7447         calculate D2E/DX2 analytically  !
 ! D26   D(2,3,10,18)           -2.8849         calculate D2E/DX2 analytically  !
 ! D27   D(5,3,10,11)           -4.1024         calculate D2E/DX2 analytically  !
 ! D28   D(5,3,10,18)          169.7574         calculate D2E/DX2 analytically  !
 ! D29   D(1,4,5,3)             -0.632          calculate D2E/DX2 analytically  !
 ! D30   D(1,4,5,9)           -173.8978         calculate D2E/DX2 analytically  !
 ! D31   D(6,4,5,3)            173.9534         calculate D2E/DX2 analytically  !
 ! D32   D(6,4,5,9)              0.6877         calculate D2E/DX2 analytically  !
 ! D33   D(1,4,6,7)            176.0891         calculate D2E/DX2 analytically  !
 ! D34   D(1,4,6,15)            -1.5936         calculate D2E/DX2 analytically  !
 ! D35   D(5,4,6,7)              2.5878         calculate D2E/DX2 analytically  !
 ! D36   D(5,4,6,15)          -175.095          calculate D2E/DX2 analytically  !
 ! D37   D(3,5,9,8)           -175.4781         calculate D2E/DX2 analytically  !
 ! D38   D(3,5,9,12)             1.6372         calculate D2E/DX2 analytically  !
 ! D39   D(4,5,9,8)             -3.3819         calculate D2E/DX2 analytically  !
 ! D40   D(4,5,9,12)           173.7334         calculate D2E/DX2 analytically  !
 ! D41   D(4,6,7,8)             -3.0843         calculate D2E/DX2 analytically  !
 ! D42   D(4,6,7,34)           178.5937         calculate D2E/DX2 analytically  !
 ! D43   D(15,6,7,8)           174.1626         calculate D2E/DX2 analytically  !
 ! D44   D(15,6,7,34)           -4.1594         calculate D2E/DX2 analytically  !
 ! D45   D(4,6,15,14)            5.0575         calculate D2E/DX2 analytically  !
 ! D46   D(4,6,15,33)         -178.6795         calculate D2E/DX2 analytically  !
 ! D47   D(7,6,15,14)         -172.1944         calculate D2E/DX2 analytically  !
 ! D48   D(7,6,15,33)            4.0686         calculate D2E/DX2 analytically  !
 ! D49   D(6,7,8,9)              0.3784         calculate D2E/DX2 analytically  !
 ! D50   D(6,7,8,35)          -178.1887         calculate D2E/DX2 analytically  !
 ! D51   D(34,7,8,9)           178.7014         calculate D2E/DX2 analytically  !
 ! D52   D(34,7,8,35)            0.1343         calculate D2E/DX2 analytically  !
 ! D53   D(7,8,9,5)              2.7735         calculate D2E/DX2 analytically  !
 ! D54   D(7,8,9,12)          -173.7075         calculate D2E/DX2 analytically  !
 ! D55   D(35,8,9,5)          -178.6722         calculate D2E/DX2 analytically  !
 ! D56   D(35,8,9,12)            4.8469         calculate D2E/DX2 analytically  !
 ! D57   D(5,9,12,11)           -2.8515         calculate D2E/DX2 analytically  !
 ! D58   D(5,9,12,36)          179.0227         calculate D2E/DX2 analytically  !
 ! D59   D(8,9,12,11)          173.6286         calculate D2E/DX2 analytically  !
 ! D60   D(8,9,12,36)           -4.4973         calculate D2E/DX2 analytically  !
 ! D61   D(3,10,11,12)           2.9263         calculate D2E/DX2 analytically  !
 ! D62   D(3,10,11,37)        -178.6582         calculate D2E/DX2 analytically  !
 ! D63   D(18,10,11,12)       -169.7801         calculate D2E/DX2 analytically  !
 ! D64   D(18,10,11,37)          8.6354         calculate D2E/DX2 analytically  !
 ! D65   D(3,10,18,17)           2.6893         calculate D2E/DX2 analytically  !
 ! D66   D(3,10,18,38)        -173.1796         calculate D2E/DX2 analytically  !
 ! D67   D(11,10,18,17)        175.4767         calculate D2E/DX2 analytically  !
 ! D68   D(11,10,18,38)         -0.3922         calculate D2E/DX2 analytically  !
 ! D69   D(10,11,12,9)           0.6273         calculate D2E/DX2 analytically  !
 ! D70   D(10,11,12,36)        178.7674         calculate D2E/DX2 analytically  !
 ! D71   D(37,11,12,9)        -177.7835         calculate D2E/DX2 analytically  !
 ! D72   D(37,11,12,36)          0.3565         calculate D2E/DX2 analytically  !
 ! D73   D(1,13,14,15)           3.7377         calculate D2E/DX2 analytically  !
 ! D74   D(1,13,14,32)         170.9508         calculate D2E/DX2 analytically  !
 ! D75   D(1,13,14,47)        -104.6108         calculate D2E/DX2 analytically  !
 ! D76   D(31,13,14,15)       -178.4066         calculate D2E/DX2 analytically  !
 ! D77   D(31,13,14,32)        -11.1934         calculate D2E/DX2 analytically  !
 ! D78   D(31,13,14,47)         73.2449         calculate D2E/DX2 analytically  !
 ! D79   D(13,14,15,6)          -6.4211         calculate D2E/DX2 analytically  !
 ! D80   D(13,14,15,33)        177.2467         calculate D2E/DX2 analytically  !
 ! D81   D(32,14,15,6)        -173.5137         calculate D2E/DX2 analytically  !
 ! D82   D(32,14,15,33)         10.1541         calculate D2E/DX2 analytically  !
 ! D83   D(47,14,15,6)          99.0624         calculate D2E/DX2 analytically  !
 ! D84   D(47,14,15,33)        -77.2698         calculate D2E/DX2 analytically  !
 ! D85   D(2,16,17,18)         -11.6476         calculate D2E/DX2 analytically  !
 ! D86   D(2,16,17,22)         162.8664         calculate D2E/DX2 analytically  !
 ! D87   D(19,16,17,18)        171.7089         calculate D2E/DX2 analytically  !
 ! D88   D(19,16,17,22)        -13.7771         calculate D2E/DX2 analytically  !
 ! D89   D(2,16,19,20)        -154.5976         calculate D2E/DX2 analytically  !
 ! D90   D(2,16,19,23)          29.1128         calculate D2E/DX2 analytically  !
 ! D91   D(17,16,19,20)         21.6478         calculate D2E/DX2 analytically  !
 ! D92   D(17,16,19,23)       -154.6418         calculate D2E/DX2 analytically  !
 ! D93   D(16,17,18,10)          4.5676         calculate D2E/DX2 analytically  !
 ! D94   D(16,17,18,38)       -179.453          calculate D2E/DX2 analytically  !
 ! D95   D(22,17,18,10)       -169.9561         calculate D2E/DX2 analytically  !
 ! D96   D(22,17,18,38)          6.0233         calculate D2E/DX2 analytically  !
 ! D97   D(16,17,22,21)         -1.8723         calculate D2E/DX2 analytically  !
 ! D98   D(16,17,22,39)       -177.8582         calculate D2E/DX2 analytically  !
 ! D99   D(18,17,22,21)        172.9213         calculate D2E/DX2 analytically  !
 ! D100  D(18,17,22,39)         -3.0646         calculate D2E/DX2 analytically  !
 ! D101  D(16,19,20,21)        -14.3749         calculate D2E/DX2 analytically  !
 ! D102  D(16,19,20,26)        168.4118         calculate D2E/DX2 analytically  !
 ! D103  D(23,19,20,21)        162.1591         calculate D2E/DX2 analytically  !
 ! D104  D(23,19,20,26)        -15.0542         calculate D2E/DX2 analytically  !
 ! D105  D(16,19,23,24)       -168.4971         calculate D2E/DX2 analytically  !
 ! D106  D(16,19,23,30)         18.2233         calculate D2E/DX2 analytically  !
 ! D107  D(20,19,23,24)         15.1908         calculate D2E/DX2 analytically  !
 ! D108  D(20,19,23,30)       -158.0888         calculate D2E/DX2 analytically  !
 ! D109  D(19,20,21,22)         -1.4801         calculate D2E/DX2 analytically  !
 ! D110  D(19,20,21,40)       -177.3388         calculate D2E/DX2 analytically  !
 ! D111  D(26,20,21,22)        175.7464         calculate D2E/DX2 analytically  !
 ! D112  D(26,20,21,40)         -0.1124         calculate D2E/DX2 analytically  !
 ! D113  D(19,20,26,25)          4.53           calculate D2E/DX2 analytically  !
 ! D114  D(19,20,26,41)       -175.414          calculate D2E/DX2 analytically  !
 ! D115  D(21,20,26,25)       -172.6955         calculate D2E/DX2 analytically  !
 ! D116  D(21,20,26,41)          7.3605         calculate D2E/DX2 analytically  !
 ! D117  D(20,21,22,17)          9.7845         calculate D2E/DX2 analytically  !
 ! D118  D(20,21,22,39)       -174.326          calculate D2E/DX2 analytically  !
 ! D119  D(40,21,22,17)       -174.451          calculate D2E/DX2 analytically  !
 ! D120  D(40,21,22,39)          1.4385         calculate D2E/DX2 analytically  !
 ! D121  D(19,23,24,25)         -4.9987         calculate D2E/DX2 analytically  !
 ! D122  D(19,23,24,27)        179.2532         calculate D2E/DX2 analytically  !
 ! D123  D(30,23,24,25)        168.6728         calculate D2E/DX2 analytically  !
 ! D124  D(30,23,24,27)         -7.0753         calculate D2E/DX2 analytically  !
 ! D125  D(19,23,30,29)        178.1458         calculate D2E/DX2 analytically  !
 ! D126  D(19,23,30,46)         -0.2645         calculate D2E/DX2 analytically  !
 ! D127  D(24,23,30,29)          4.741          calculate D2E/DX2 analytically  !
 ! D128  D(24,23,30,46)       -173.6693         calculate D2E/DX2 analytically  !
 ! D129  D(23,24,25,26)         -5.8456         calculate D2E/DX2 analytically  !
 ! D130  D(23,24,25,42)        178.6423         calculate D2E/DX2 analytically  !
 ! D131  D(27,24,25,26)        169.8611         calculate D2E/DX2 analytically  !
 ! D132  D(27,24,25,42)         -5.651          calculate D2E/DX2 analytically  !
 ! D133  D(23,24,27,28)          4.3047         calculate D2E/DX2 analytically  !
 ! D134  D(23,24,27,43)       -178.1037         calculate D2E/DX2 analytically  !
 ! D135  D(25,24,27,28)       -171.3926         calculate D2E/DX2 analytically  !
 ! D136  D(25,24,27,43)          6.199          calculate D2E/DX2 analytically  !
 ! D137  D(24,25,26,20)          6.2288         calculate D2E/DX2 analytically  !
 ! D138  D(24,25,26,41)       -173.8284         calculate D2E/DX2 analytically  !
 ! D139  D(42,25,26,20)       -178.3415         calculate D2E/DX2 analytically  !
 ! D140  D(42,25,26,41)          1.6013         calculate D2E/DX2 analytically  !
 ! D141  D(24,27,28,29)          1.0985         calculate D2E/DX2 analytically  !
 ! D142  D(24,27,28,44)        178.8377         calculate D2E/DX2 analytically  !
 ! D143  D(43,27,28,29)       -176.4474         calculate D2E/DX2 analytically  !
 ! D144  D(43,27,28,44)          1.2918         calculate D2E/DX2 analytically  !
 ! D145  D(27,28,29,30)         -3.5671         calculate D2E/DX2 analytically  !
 ! D146  D(27,28,29,45)        175.9527         calculate D2E/DX2 analytically  !
 ! D147  D(44,28,29,30)        178.6882         calculate D2E/DX2 analytically  !
 ! D148  D(44,28,29,45)         -1.792          calculate D2E/DX2 analytically  !
 ! D149  D(28,29,30,23)          0.5386         calculate D2E/DX2 analytically  !
 ! D150  D(28,29,30,46)        178.9531         calculate D2E/DX2 analytically  !
 ! D151  D(45,29,30,23)       -178.9827         calculate D2E/DX2 analytically  !
 ! D152  D(45,29,30,46)         -0.5682         calculate D2E/DX2 analytically  !
 --------------------------------------------------------------------------------
 Trust Radius=3.00D-01 FncErr=1.00D-07 GrdErr=1.00D-06 EigMax=2.50D+02 EigMin=1.00D-04
 Number of steps in this run=    282 maximum allowed number of steps=    282.
 Search for a saddle point of order  1.
 GradGradGradGradGradGradGradGradGradGradGradGradGradGradGradGradGradGrad

                          Input orientation:                          
 ---------------------------------------------------------------------
 Center     Atomic      Atomic             Coordinates (Angstroms)
 Number     Number       Type             X           Y           Z
 ---------------------------------------------------------------------
      1          6           0        0.806300   -1.001494   -0.334841
      2          6           0        0.450802    0.426922    0.011647
      3          6           0        1.689548    1.055231    0.275805
      4          6           0        2.223831   -1.098370   -0.176862
      5          6           0        2.746366    0.134354    0.197409
      6          6           0        3.054122   -2.181078   -0.456599
      7          6           0        4.465521   -1.932815   -0.270023
      8          6           0        4.962032   -0.692993    0.094889
      9          6           0        4.088617    0.429943    0.319341
     10          6           0        1.957939    2.415311    0.455133
     11          6           0        3.354340    2.759401    0.640985
     12          6           0        4.366449    1.824050    0.584264
     13          6           0        0.195943   -2.124053   -0.847418
     14          6           0        1.004717   -3.271445   -1.175280
     15          6           0        2.384730   -3.335905   -0.928489
     16          6           0       -0.690163    1.261701    0.006853
     17          6           0       -0.427062    2.699765    0.029079
     18          6           0        0.843603    3.247675    0.291487
     19          6           0       -2.076790    0.829198   -0.093216
     20          6           0       -3.023290    1.736225   -0.618875
     21          6           0       -2.693183    3.124497   -0.749556
     22          6           0       -1.486167    3.592851   -0.345927
     23          6           0       -2.565720   -0.449197    0.384230
     24          6           0       -3.882194   -0.876043    0.017786
     25          6           0       -4.726166    0.005606   -0.717379
     26          6           0       -4.331064    1.285667   -0.966253
     27          6           0       -4.363396   -2.130064    0.465718
     28          6           0       -3.620427   -2.910804    1.321741
     29          6           0       -2.372000   -2.443796    1.776866
     30          6           0       -1.859165   -1.250301    1.315855
     31          1           0       -0.865120   -2.173765   -1.050139
     32          1           0        0.486043   -4.187229   -1.432799
     33          1           0        2.926330   -4.246825   -1.158652
     34          1           0        5.165876   -2.742367   -0.448543
     35          1           0        6.035722   -0.566769    0.189397
     36          1           0        5.392673    2.152810    0.712324
     37          1           0        3.613249    3.800202    0.806473
     38          1           0        0.946895    4.328282    0.297045
     39          1           0       -1.275218    4.656676   -0.361859
     40          1           0       -3.455680    3.803574   -1.115441
     41          1           0       -5.009160    1.989345   -1.437318
     42          1           0       -5.713563   -0.335994   -1.009208
     43          1           0       -5.351936   -2.447926    0.150714
     44          1           0       -4.007363   -3.860692    1.672842
     45          1           0       -1.810889   -3.022339    2.501998
     46          1           0       -0.907407   -0.907136    1.694207
     47          1           0        0.961113   -3.020071   -3.061268
 ---------------------------------------------------------------------
                    Distance matrix (angstroms):
                    1          2          3          4          5
     1  C    0.000000
     2  C    1.512219   0.000000
     3  C    2.320158   1.413875   0.000000
     4  C    1.429593   2.346419   2.264589   0.000000
     5  C    2.310259   2.321577   1.403932   1.390227   0.000000
     6  C    2.541446   3.714592   3.587781   1.392800   2.425627
     7  C    3.776435   4.665369   4.114896   2.393773   2.728951
     8  C    4.189266   4.648907   3.714589   2.781353   2.367317
     9  C    3.640133   3.650806   2.479599   2.461582   1.379811
    10  C    3.691191   2.534133   1.397859   3.579954   2.427098
    11  C    4.646405   3.777176   2.410204   4.102356   2.730799
    12  C    4.637145   4.196683   2.802147   3.702791   2.372635
    13  C    1.376739   2.703779   3.687863   2.369388   3.563246
    14  C    2.428659   3.923460   4.614625   2.684275   4.064121
    15  C    2.879815   4.333913   4.606048   2.365881   3.666214
    16  C    2.734631   1.413747   2.403745   3.754337   3.621734
    17  C    3.918283   2.436548   2.691729   4.636321   4.084154
    18  C    4.295243   2.861687   2.350038   4.583938   3.649949
    19  C    3.423744   2.561551   3.791117   4.713582   4.881609
    20  C    4.716094   3.765786   4.845105   5.980183   6.043281
    21  C    5.426064   4.212005   4.953944   6.506736   6.279044
    22  C    5.134543   3.728648   4.112327   5.983329   5.492791
    23  C    3.491792   3.163196   4.514683   4.865804   5.347307
    24  C    4.703409   4.524667   5.902601   6.113171   6.707531
    25  C    5.636379   5.244996   6.576436   7.057859   7.529419
    26  C    5.658825   4.955802   6.151713   7.019503   7.264272
    27  C    5.351665   5.469996   6.842536   6.698422   7.466478
    28  C    5.097611   5.425096   6.709639   6.299689   7.146549
    29  C    4.079354   4.396047   5.567095   5.171933   5.944679
    30  C    3.145061   3.138468   4.357814   4.349959   4.937520
    31  H    2.163219   3.102034   4.325606   3.385366   4.463924
    32  H    3.384817   4.835086   5.643681   3.760098   5.142248
    33  H    3.963000   5.416803   5.630195   3.371971   4.589773
    34  H    4.695686   5.699832   5.199162   3.381149   3.814028
    35  H    5.273582   5.675416   4.639782   3.866168   3.363257
    36  H    5.664010   5.281262   3.886948   4.626271   3.367825
    37  H    5.677838   4.691677   3.393685   5.185888   3.815873
    38  H    5.368944   3.943117   3.356315   5.594971   4.564762
    39  H    6.028958   4.583609   4.708169   6.737813   6.077608
    40  H    6.470123   5.285140   5.996860   7.560875   7.324761
    41  H    6.631753   5.861045   6.977109   7.964854   8.140117
    42  H    6.588344   6.294726   7.641519   8.017246   8.558478
    43  H    6.344431   6.477334   7.865765   7.702003   8.500167
    44  H    5.947870   6.404564   7.653287   7.062550   7.984369
    45  H    4.356736   4.818142   5.816835   5.211230   6.003700
    46  H    2.657580   2.540758   3.550623   3.652687   4.083523
    47  H    3.395883   4.645964   5.317402   3.688792   4.874064
                    6          7          8          9         10
     6  C    0.000000
     7  C    1.445162   0.000000
     8  C    2.481664   1.384501   0.000000
     9  C    2.913708   2.464149   1.440214   0.000000
    10  C    4.812449   5.071491   4.337730   2.915461   0.000000
    11  C    5.069828   4.907296   3.847326   2.463532   1.450129
    12  C    4.341273   3.854044   2.632435   1.445998   2.483382
    13  C    2.885339   4.312685   5.064729   4.799701   5.040545
    14  C    2.430116   3.819501   4.891021   5.044264   5.992168
    15  C    1.415765   2.594596   3.830766   4.317629   5.930687
    16  C    5.107562   6.071464   5.981295   4.860680   2.923049
    17  C    6.014745   6.744452   6.368475   5.062381   2.439399
    18  C    5.909094   6.345948   5.703418   4.297733   1.400484
    19  C    5.959871   7.103648   7.203989   6.192080   4.369837
    20  C    7.232326   8.346607   8.377107   7.291491   5.140748
    21  C    7.827290   8.778007   8.595850   7.375363   4.856661
    22  C    7.346069   8.121658   7.755130   6.443973   3.726951
    23  C    5.940457   7.215783   7.537254   6.712473   5.354804
    24  C    7.073941   8.419260   8.846456   8.082720   6.717994
    25  C    8.085943   9.404505   9.747256   8.885677   7.201300
    26  C    8.174291   9.392724   9.560479   8.560143   6.545838
    27  C    7.474814   8.861715   9.442791   8.832417   7.785873
    28  C    6.945833   8.298960   8.948880   8.461368   7.761229
    29  C    5.873686   7.155596   7.725437   7.219579   6.641255
    30  C    5.305500   6.556103   6.951984   6.260381   5.361701
    31  H    3.963938   5.392807   6.120415   5.761448   5.594205
    32  H    3.401858   4.719182   5.880306   6.112840   7.023126
    33  H    2.185525   2.917775   4.283126   5.040589   6.922871
    34  H    2.185089   1.085238   2.129978   3.437104   6.140776
    35  H    3.451557   2.131356   1.085207   2.191241   5.058827
    36  H    5.061402   4.303132   2.943683   2.196194   3.454338
    37  H    6.138704   5.895142   4.744931   3.438302   2.186644
    38  H    6.883324   7.204417   6.432371   5.006792   2.169484
    39  H    8.093642   8.739903   8.229876   6.862946   4.018022
    40  H    8.867224   9.816635   9.619869   8.387872   5.805278
    41  H    9.130759  10.320635  10.438739   9.396123   7.232101
    42  H    8.976748  10.330052  10.738473   9.921413   8.280454
    43  H    8.432191   9.839960  10.462354   9.870897   8.785102
    44  H    7.564403   8.903999   9.642318   9.262095   8.743904
    45  H    5.755810   6.947265   7.555957   7.175403   6.925443
    46  H    4.684294   5.811934   6.087199   5.351476   4.558965
    47  H    3.445126   4.610211   5.602140   5.754337   6.549971
                   11         12         13         14         15
    11  C    0.000000
    12  C    1.379298   0.000000
    13  C    6.003244   5.918644   0.000000
    14  C    6.722399   6.353055   1.441568   0.000000
    15  C    6.368371   5.730686   2.503187   1.403388   0.000000
    16  C    4.359270   5.120446   3.602540   4.981914   5.609618
    17  C    3.831056   4.904371   4.942226   6.257461   6.726992
    18  C    2.581542   3.810888   5.529198   6.684032   6.870731
    19  C    5.810500   6.554696   3.802082   5.242311   6.160432
    20  C    6.580904   7.487556   5.031644   6.450673   7.420852
    21  C    6.216063   7.301277   5.991987   7.400255   8.219125
    22  C    5.009904   6.184418   5.980299   7.349210   7.958070
    23  C    6.738556   7.298125   3.456715   4.810943   5.879053
    24  C    8.122331   8.697788   4.351702   5.571648   6.798580
    25  C    8.644253   9.363582   5.364654   6.617534   7.859714
    26  C    7.988776   8.851028   5.668695   7.020080   8.152438
    27  C    9.137890   9.584324   4.744674   5.728199   6.995361
    28  C    9.014545   9.314124   4.459698   5.268504   6.426987
    29  C    7.820131   8.064955   3.685571   4.560963   5.544482
    30  C    6.611641   6.981771   3.109126   4.300302   5.234259
    31  H    6.708194   6.784034   1.081398   2.171831   3.453533
    32  H    7.796369   7.433813   2.164145   1.083512   2.141050
    33  H    7.246316   6.478211   3.472469   2.155050   1.084473
    34  H    5.893911   4.749520   5.024107   4.257149   2.883992
    35  H    4.296178   2.942517   6.132140   5.872702   4.716728
    36  H    2.127873   1.085181   6.908716   7.227707   6.470393
    37  H    1.085213   2.126467   7.036344   7.793586   7.446031
    38  H    2.894041   4.248179   6.595934   7.741249   7.893609
    39  H    5.102760   6.383363   6.955456   8.289443   8.808952
    40  H    7.109972   8.245800   6.967277   8.363888   9.225915
    41  H    8.652194   9.592505   6.660415   7.994454   9.126160
    42  H    9.722730  10.431279   6.176212   7.333467   8.636454
    43  H   10.156567  10.624724   5.646249   6.545493   7.861882
    44  H    9.954146  10.179490   5.199558   5.794822   6.921068
    45  H    7.973172   8.082369   4.006605   4.638110   5.428608
    46  H    5.719725   6.041929   3.026240   4.180925   4.859590
    47  H    7.268873   6.953540   2.507881   1.903166   2.583638
                   16         17         18         19         20
    16  C    0.000000
    17  C    1.462103   0.000000
    18  C    2.525381   1.408422   0.000000
    19  C    1.455956   2.497114   3.811263   0.000000
    20  C    2.461745   2.844056   4.250424   1.412401   0.000000
    21  C    2.838002   2.433511   3.688875   2.465587   1.432951
    22  C    2.488441   1.435248   2.439933   2.837336   2.425759
    23  C    2.566573   3.823081   5.029806   1.449586   2.447787
    24  C    3.841761   4.972370   6.277987   2.485891   2.822587
    25  C    4.288544   5.128156   6.523124   2.843779   2.429924
    26  C    3.768776   4.269847   5.675259   2.460144   1.426165
    27  C    5.020684   6.246009   7.487541   3.781297   4.233251
    28  C    5.265470   6.583847   7.675666   4.286319   5.071237
    29  C    4.437593   5.770075   6.703678   3.781117   4.861721
    30  C    3.064344   4.394284   5.346595   2.521340   3.744023
    31  H    3.598648   5.010778   5.840523   3.376630   4.486837
    32  H    5.757334   7.099404   7.640603   5.790262   6.932907
    33  H    6.691882   7.804554   7.912533   7.206412   8.454953
    34  H    7.108666   7.818304   7.423631   8.083226   9.335376
    35  H    6.972385   7.243171   6.443485   8.236592   9.382046
    36  H    6.188106   5.885176   4.697858   7.628481   8.530772
    37  H    5.059914   4.259039   2.870790   6.481732   7.094735
    38  H    3.488279   2.147471   1.085547   4.640966   4.829083
    39  H    3.464692   2.168341   2.627080   3.919729   3.413334
    40  H    3.920299   3.420650   4.557664   3.434122   2.169671
    41  H    4.611814   4.863192   6.231131   3.428023   2.162776
    42  H    5.368385   6.183928   7.584914   3.927191   3.418190
    43  H    5.959375   7.125160   8.416911   4.639572   4.849946
    44  H    6.325998   7.652458   8.716014   5.370395   6.127467
    45  H    5.082792   6.385357   7.158615   4.651900   5.818393
    46  H    2.756486   4.001639   4.721876   2.752670   4.100569
    47  H    5.520294   6.647842   7.109108   5.731933   6.668066
                   21         22         23         24         25
    21  C    0.000000
    22  C    1.356156   0.000000
    23  C    3.751401   4.246966   0.000000
    24  C    4.243452   5.083724   1.431636   0.000000
    25  C    3.723108   4.848082   2.467370   1.424802   0.000000
    26  C    2.472025   3.715016   2.819574   2.417190   1.362571
    27  C    5.645964   6.456700   2.462436   1.415898   2.468280
    28  C    6.447861   7.045120   2.837401   2.430858   3.726408
    29  C    6.123059   6.460035   2.440366   2.798731   4.214609
    30  C    4.909212   5.133884   1.417361   2.432632   3.732431
    31  H    5.612820   5.842557   2.814887   3.453590   4.446129
    32  H    8.002227   8.099417   5.156330   5.670066   6.727467
    33  H    9.278075   9.032783   6.853107   7.687794   8.765762
    34  H    9.812008   9.186686   8.107387   9.250308  10.270157
    35  H    9.523700   8.612074   8.604452   9.924221  10.815179
    36  H    8.274197   7.107183   8.379386   9.781589  10.442482
    37  H    6.530612   5.232118   7.511015   8.869665   9.287999
    38  H    3.974247   2.621843   5.930461   7.105145   7.204041
    39  H    2.123324   1.084655   5.319021   6.127922   5.802404
    40  H    1.084629   2.124979   4.596423   4.833729   4.024568
    41  H    2.669333   4.021672   3.903194   3.405558   2.129229
    42  H    4.600556   5.809186   3.444329   2.168013   1.084808
    43  H    6.239499   7.189006   3.436924   2.156068   2.676750
    44  H    7.509191   8.123248   3.921371   3.415115   4.601966
    45  H    7.009610   7.209498   3.416983   3.881778   5.294495
    46  H    5.041333   4.974635   2.162348   3.414778   4.607794
    47  H    7.513562   7.555991   5.560522   6.126586   6.855194
                   26         27         28         29         30
    26  C    0.000000
    27  C    3.703890   0.000000
    28  C    4.832214   1.376348   0.000000
    29  C    5.027079   2.404827   1.408476   0.000000
    30  C    4.213008   2.787093   2.420609   1.378391   0.000000
    31  H    4.897701   3.812829   3.709550   3.214897   2.727423
    32  H    7.305804   5.599407   5.106843   4.637879   4.656248
    33  H    9.127719   7.762690   7.127224   6.319848   6.164682
    34  H   10.328841   9.592592   8.964452   7.865187   7.395307
    35  H   10.594211  10.519596  10.000896   8.759742   8.004084
    36  H    9.905585  10.657613  10.356039   9.085823   8.033341
    37  H    8.519246   9.945403   9.880747   8.703584   7.464206
    38  H    6.221759   8.362887   8.620603   7.685439   6.327127
    39  H    4.589901   7.502104   8.099461   7.496251   6.168314
    40  H    2.669908   6.207421   7.144919   6.969177   5.831099
    41  H    1.084841   4.583458   5.792447   6.077691   5.291289
    42  H    2.131416   2.686456   4.055143   4.834365   4.593284
    43  H    4.028587   1.085115   2.140954   3.394762   3.871861
    44  H    5.792635   2.139855   1.084103   2.166293   3.399461
    45  H    6.077743   3.384949   2.163302   1.084147   2.132929
    46  H    4.858792   3.866342   3.393213   2.124427   1.080165
    47  H    7.136918   6.448421   6.341389   5.903328   5.499569
                   31         32         33         34         35
    31  H    0.000000
    32  H    2.454813   0.000000
    33  H    4.322551   2.456361   0.000000
    34  H    6.087540   4.995720   2.789841   0.000000
    35  H    7.193087   6.821890   5.002836   2.428338   0.000000
    36  H    7.809321   8.298956   7.109060   5.036051   2.843075
    37  H    7.693574   8.865259   8.311932   6.840389   5.031858
    38  H    6.882944   8.701648   8.920184   8.267393   7.061818
    39  H    6.877269   9.080948   9.877257   9.810252   9.002117
    40  H    6.514894   8.915763  10.273307  10.845521  10.530395
    41  H    5.886804   8.267245  10.096508  11.264907  11.452918
    42  H    5.185217   7.310715   9.484971  11.156486  11.812519
    43  H    4.652820   6.294020   8.572057  10.538984  11.542054
    44  H    4.487097   5.471959   7.499504   9.481521  10.673055
    45  H    3.772563   4.702711   6.110726   7.580193   8.540916
    46  H    3.022842   4.741190   5.830083   6.696582   7.112478
    47  H    2.845347   2.059092   2.997824   4.958173   6.506702
                   36         37         38         39         40
    36  H    0.000000
    37  H    2.426750   0.000000
    38  H    4.966898   2.765471   0.000000
    39  H    7.203054   5.098594   2.340894   0.000000
    40  H    9.184721   7.325539   4.653289   2.459692   0.000000
    41  H   10.622891   9.091740   6.629723   4.713129   2.410048
    42  H   11.511138  10.363119   8.235500   6.711536   4.716497
    43  H   11.701658  10.947313   9.252766   8.207176   6.654336
    44  H   11.200245  10.840370   9.669374   9.173341   8.174341
    45  H    9.048558   8.879366   8.154681   8.213154   7.898373
    46  H    7.072367   6.586610   5.727137   5.942953   6.048025
    47  H    7.787003   8.277039   8.079403   8.439220   8.358016
                   41         42         43         44         45
    41  H    0.000000
    42  H    2.467116   0.000000
    43  H    4.725327   2.436483   0.000000
    44  H    6.700718   4.746368   2.473996   0.000000
    45  H    7.131909   5.897108   4.289231   2.492957   0.000000
    46  H    5.917806   5.543807   4.950782   4.281784   2.437804
    47  H    7.960881   7.481077   7.106248   6.914058   6.215620
                   46         47
    46  H    0.000000
    47  H    5.529051   0.000000
 Stoichiometry    C30H17(2)
 Framework group  C1[X(C30H17)]
 Deg. of freedom   135
 Full point group                 C1      NOp   1
 Largest Abelian subgroup         C1      NOp   1
 Largest concise Abelian subgroup C1      NOp   1
                         Standard orientation:                         
 ---------------------------------------------------------------------
 Center     Atomic      Atomic             Coordinates (Angstroms)
 Number     Number       Type             X           Y           Z
 ---------------------------------------------------------------------
      1          6           0        0.806300   -1.001494   -0.334841
      2          6           0        0.450802    0.426922    0.011647
      3          6           0        1.689548    1.055231    0.275805
      4          6           0        2.223831   -1.098370   -0.176862
      5          6           0        2.746366    0.134354    0.197409
      6          6           0        3.054122   -2.181078   -0.456599
      7          6           0        4.465521   -1.932815   -0.270023
      8          6           0        4.962032   -0.692993    0.094889
      9          6           0        4.088617    0.429943    0.319341
     10          6           0        1.957939    2.415311    0.455133
     11          6           0        3.354340    2.759401    0.640985
     12          6           0        4.366449    1.824050    0.584264
     13          6           0        0.195943   -2.124053   -0.847418
     14          6           0        1.004717   -3.271445   -1.175280
     15          6           0        2.384730   -3.335905   -0.928489
     16          6           0       -0.690163    1.261701    0.006853
     17          6           0       -0.427062    2.699765    0.029079
     18          6           0        0.843603    3.247675    0.291487
     19          6           0       -2.076790    0.829198   -0.093216
     20          6           0       -3.023290    1.736225   -0.618875
     21          6           0       -2.693183    3.124497   -0.749556
     22          6           0       -1.486167    3.592851   -0.345927
     23          6           0       -2.565720   -0.449197    0.384230
     24          6           0       -3.882194   -0.876043    0.017786
     25          6           0       -4.726166    0.005606   -0.717379
     26          6           0       -4.331064    1.285667   -0.966253
     27          6           0       -4.363396   -2.130064    0.465718
     28          6           0       -3.620427   -2.910804    1.321741
     29          6           0       -2.372000   -2.443796    1.776866
     30          6           0       -1.859165   -1.250301    1.315855
     31          1           0       -0.865120   -2.173765   -1.050139
     32          1           0        0.486043   -4.187229   -1.432799
     33          1           0        2.926330   -4.246825   -1.158652
     34          1           0        5.165876   -2.742367   -0.448543
     35          1           0        6.035722   -0.566769    0.189397
     36          1           0        5.392673    2.152810    0.712324
     37          1           0        3.613249    3.800202    0.806473
     38          1           0        0.946895    4.328282    0.297045
     39          1           0       -1.275218    4.656676   -0.361859
     40          1           0       -3.455680    3.803574   -1.115441
     41          1           0       -5.009160    1.989345   -1.437318
     42          1           0       -5.713563   -0.335994   -1.009208
     43          1           0       -5.351936   -2.447926    0.150714
     44          1           0       -4.007363   -3.860692    1.672842
     45          1           0       -1.810889   -3.022339    2.501998
     46          1           0       -0.907407   -0.907136    1.694207
     47          1           0        0.961113   -3.020071   -3.061268
 ---------------------------------------------------------------------
 Rotational constants (GHZ):           0.2707396           0.1438951           0.1015929
 Standard basis: 6-311+G(d,p) (5D, 7F)
 There are   792 symmetry adapted cartesian basis functions of A   symmetry.
 There are   762 symmetry adapted basis functions of A   symmetry.
   762 basis functions,  1216 primitive gaussians,   792 cartesian basis functions
    99 alpha electrons       98 beta electrons
       nuclear repulsion energy      2613.6454188628 Hartrees.
 NAtoms=   47 NActive=   47 NUniq=   47 SFac= 1.00D+00 NAtFMM=   60 NAOKFM=F Big=F
 Integral buffers will be    131072 words long.
 Raffenetti 2 integral format.
 Two-electron integral symmetry is turned on.
 One-electron integrals computed using PRISM.
 NBasis=   762 RedAO= T EigKep=  1.48D-06  NBF=   762
 NBsUse=   741 1.00D-06 EigRej=  9.13D-07 NBFU=   741
 ExpMin= 4.38D-02 ExpMax= 4.56D+03 ExpMxC= 6.82D+02 IAcc=2 IRadAn=         4 AccDes= 0.00D+00
 Harris functional with IExCor=  402 and IRadAn=       4 diagonalized for initial guess.
 HarFok:  IExCor=  402 AccDes= 0.00D+00 IRadAn=         4 IDoV= 1 UseB2=F ITyADJ=14
 ICtDFT=  3500011 ScaDFX=  1.000000  1.000000  1.000000  1.000000
 FoFCou: FMM=F IPFlag=           0 FMFlag=      100000 FMFlg1=           0
         NFxFlg=           0 DoJE=T BraDBF=F KetDBF=T FulRan=T
         wScrn=  0.000000 ICntrl=       500 IOpCl=  0 I1Cent=   200000004 NGrid=           0
         NMat0=    1 NMatS0=      1 NMatT0=    0 NMatD0=    1 NMtDS0=    0 NMtDT0=    0
 Petite list used in FoFCou.
 Initial guess <Sx>= 0.0000 <Sy>= 0.0000 <Sz>= 0.5000 <S**2>= 0.7500 S= 0.5000
 Requested convergence on RMS density matrix=1.00D-08 within 128 cycles.
 Requested convergence on MAX density matrix=1.00D-06.
 Requested convergence on             energy=1.00D-06.
 No special actions if energy rises.
 Restarting incremental Fock formation.
 SCF Done:  E(UB3LYP) =  -1153.63146309     A.U. after   28 cycles
            NFock= 28  Conv=0.32D-08     -V/T= 2.0045
 <Sx>= 0.0000 <Sy>= 0.0000 <Sz>= 0.5000 <S**2>= 0.7742 S= 0.5120
 <L.S>=  0.00000000000    
 Annihilation of the first spin contaminant:
 S**2 before annihilation     0.7742,   after     0.7503
 DoSCS=F DFT=T ScalE2(SS,OS)=  1.000000  1.000000
 Range of M.O.s used for correlation:     1   741
 NBasis=   762 NAE=    99 NBE=    98 NFC=     0 NFV=     0
 NROrb=    741 NOA=    99 NOB=    98 NVA=   642 NVB=   643

 **** Warning!!: The largest alpha MO coefficient is  0.13047826D+03


 **** Warning!!: The largest beta MO coefficient is  0.12620095D+03

 Symmetrizing basis deriv contribution to polar:
 IMax=3 JMax=2 DiffMx= 0.00D+00
 G2DrvN: will do    48 centers at a time, making    1 passes.
 Calling FoFCou, ICntrl=  3107 FMM=F I1Cent=   0 AccDes= 0.00D+00.
 End of G2Drv F.D. properties file   721 does not exist.
 End of G2Drv F.D. properties file   722 does not exist.
 End of G2Drv F.D. properties file   788 does not exist.
          IDoAtm=11111111111111111111111111111111111111111111111
          Differentiating once with respect to nuclear coordinates.
 CalDSu exits because no D1Ps are significant.
          There are   144 degrees of freedom in the 1st order CPHF.  IDoFFX=6 NUNeed=     0.
    139 vectors produced by pass  0 Test12= 1.27D-13 1.00D-09 XBig12= 5.46D-01 1.41D-01.
 AX will form   139 AO Fock derivatives at one time.
    138 vectors produced by pass  1 Test12= 1.27D-13 1.00D-09 XBig12= 1.28D-01 4.83D-02.
    138 vectors produced by pass  2 Test12= 1.27D-13 1.00D-09 XBig12= 2.28D-03 1.13D-02.
    138 vectors produced by pass  3 Test12= 1.27D-13 1.00D-09 XBig12= 3.21D-05 1.08D-03.
    138 vectors produced by pass  4 Test12= 1.27D-13 1.00D-09 XBig12= 2.21D-07 5.11D-05.
    138 vectors produced by pass  5 Test12= 1.27D-13 1.00D-09 XBig12= 1.43D-09 2.41D-06.
    125 vectors produced by pass  6 Test12= 1.27D-13 1.00D-09 XBig12= 6.55D-11 6.82D-07.
    104 vectors produced by pass  7 Test12= 1.27D-13 1.00D-09 XBig12= 8.35D-12 1.68D-07.
     69 vectors produced by pass  8 Test12= 1.27D-13 1.00D-09 XBig12= 5.65D-13 3.84D-08.
     15 vectors produced by pass  9 Test12= 1.27D-13 1.00D-09 XBig12= 4.44D-15 3.21D-09.
      2 vectors produced by pass 10 Test12= 1.27D-13 1.00D-09 XBig12= 5.28D-16 1.24D-09.
      2 vectors produced by pass 11 Test12= 1.27D-13 1.00D-09 XBig12= 7.24D-16 1.40D-09.
      1 vectors produced by pass 12 Test12= 1.27D-13 1.00D-09 XBig12= 4.93D-16 1.18D-09.
 InvSVY:  IOpt=1 It=  1 EMax= 8.88D-16
 Solved reduced A of dimension  1147 with   144 vectors.
 End of Minotr F.D. properties file   721 does not exist.
 End of Minotr F.D. properties file   722 does not exist.
 End of Minotr F.D. properties file   788 does not exist.

 **********************************************************************

            Population analysis using the SCF Density.

 **********************************************************************

 Orbital symmetries:
 Alpha Orbitals:
       Occupied  (A) (A) (A) (A) (A) (A) (A) (A) (A) (A) (A) (A)
                 (A) (A) (A) (A) (A) (A) (A) (A) (A) (A) (A) (A)
                 (A) (A) (A) (A) (A) (A) (A) (A) (A) (A) (A) (A)
                 (A) (A) (A) (A) (A) (A) (A) (A) (A) (A) (A) (A)
                 (A) (A) (A) (A) (A) (A) (A) (A) (A) (A) (A) (A)
                 (A) (A) (A) (A) (A) (A) (A) (A) (A) (A) (A) (A)
                 (A) (A) (A) (A) (A) (A) (A) (A) (A) (A) (A) (A)
                 (A) (A) (A) (A) (A) (A) (A) (A) (A) (A) (A) (A)
                 (A) (A) (A)
       Virtual   (A) (A) (A) (A) (A) (A) (A) (A) (A) (A) (A) (A)
                 (A) (A) (A) (A) (A) (A) (A) (A) (A) (A) (A) (A)
                 (A) (A) (A) (A) (A) (A) (A) (A) (A) (A) (A) (A)
                 (A) (A) (A) (A) (A) (A) (A) (A) (A) (A) (A) (A)
                 (A) (A) (A) (A) (A) (A) (A) (A) (A) (A) (A) (A)
                 (A) (A) (A) (A) (A) (A) (A) (A) (A) (A) (A) (A)
                 (A) (A) (A) (A) (A) (A) (A) (A) (A) (A) (A) (A)
                 (A) (A) (A) (A) (A) (A) (A) (A) (A) (A) (A) (A)
                 (A) (A) (A) (A) (A) (A) (A) (A) (A) (A) (A) (A)
                 (A) (A) (A) (A) (A) (A) (A) (A) (A) (A) (A) (A)
                 (A) (A) (A) (A) (A) (A) (A) (A) (A) (A) (A) (A)
                 (A) (A) (A) (A) (A) (A) (A) (A) (A) (A) (A) (A)
                 (A) (A) (A) (A) (A) (A) (A) (A) (A) (A) (A) (A)
                 (A) (A) (A) (A) (A) (A) (A) (A) (A) (A) (A) (A)
                 (A) (A) (A) (A) (A) (A) (A) (A) (A) (A) (A) (A)
                 (A) (A) (A) (A) (A) (A) (A) (A) (A) (A) (A) (A)
                 (A) (A) (A) (A) (A) (A) (A) (A) (A) (A) (A) (A)
                 (A) (A) (A) (A) (A) (A) (A) (A) (A) (A) (A) (A)
                 (A) (A) (A) (A) (A) (A) (A) (A) (A) (A) (A) (A)
                 (A) (A) (A) (A) (A) (A) (A) (A) (A) (A) (A) (A)
                 (A) (A) (A) (A) (A) (A) (A) (A) (A) (A) (A) (A)
                 (A) (A) (A) (A) (A) (A) (A) (A) (A) (A) (A) (A)
                 (A) (A) (A) (A) (A) (A) (A) (A) (A) (A) (A) (A)
                 (A) (A) (A) (A) (A) (A) (A) (A) (A) (A) (A) (A)
                 (A) (A) (A) (A) (A) (A) (A) (A) (A) (A) (A) (A)
                 (A) (A) (A) (A) (A) (A) (A) (A) (A) (A) (A) (A)
                 (A) (A) (A) (A) (A) (A) (A) (A) (A) (A) (A) (A)
                 (A) (A) (A) (A) (A) (A) (A) (A) (A) (A) (A) (A)
                 (A) (A) (A) (A) (A) (A) (A) (A) (A) (A) (A) (A)
                 (A) (A) (A) (A) (A) (A) (A) (A) (A) (A) (A) (A)
                 (A) (A) (A) (A) (A) (A) (A) (A) (A) (A) (A) (A)
                 (A) (A) (A) (A) (A) (A) (A) (A) (A) (A) (A) (A)
                 (A) (A) (A) (A) (A) (A) (A) (A) (A) (A) (A) (A)
                 (A) (A) (A) (A) (A) (A) (A) (A) (A) (A) (A) (A)
                 (A) (A) (A) (A) (A) (A) (A) (A) (A) (A) (A) (A)
                 (A) (A) (A) (A) (A) (A) (A) (A) (A) (A) (A) (A)
                 (A) (A) (A) (A) (A) (A) (A) (A) (A) (A) (A) (A)
                 (A) (A) (A) (A) (A) (A) (A) (A) (A) (A) (A) (A)
                 (A) (A) (A) (A) (A) (A) (A) (A) (A) (A) (A) (A)
                 (A) (A) (A) (A) (A) (A) (A) (A) (A) (A) (A) (A)
                 (A) (A) (A) (A) (A) (A) (A) (A) (A) (A) (A) (A)
                 (A) (A) (A) (A) (A) (A) (A) (A) (A) (A) (A) (A)
                 (A) (A) (A) (A) (A) (A) (A) (A) (A) (A) (A) (A)
                 (A) (A) (A) (A) (A) (A) (A) (A) (A) (A) (A) (A)
                 (A) (A) (A) (A) (A) (A) (A) (A) (A) (A) (A) (A)
                 (A) (A) (A) (A) (A) (A) (A) (A) (A) (A) (A) (A)
                 (A) (A) (A) (A) (A) (A) (A) (A) (A) (A) (A) (A)
                 (A) (A) (A) (A) (A) (A) (A) (A) (A) (A) (A) (A)
                 (A) (A) (A) (A) (A) (A) (A) (A) (A) (A) (A) (A)
                 (A) (A) (A) (A) (A) (A) (A) (A) (A) (A) (A) (A)
                 (A) (A) (A) (A) (A) (A) (A) (A) (A) (A) (A) (A)
                 (A) (A) (A) (A) (A) (A) (A) (A) (A) (A) (A) (A)
                 (A) (A) (A) (A) (A) (A) (A) (A) (A) (A) (A) (A)
                 (A) (A) (A) (A) (A) (A)
 Beta  Orbitals:
       Occupied  (A) (A) (A) (A) (A) (A) (A) (A) (A) (A) (A) (A)
                 (A) (A) (A) (A) (A) (A) (A) (A) (A) (A) (A) (A)
                 (A) (A) (A) (A) (A) (A) (A) (A) (A) (A) (A) (A)
                 (A) (A) (A) (A) (A) (A) (A) (A) (A) (A) (A) (A)
                 (A) (A) (A) (A) (A) (A) (A) (A) (A) (A) (A) (A)
                 (A) (A) (A) (A) (A) (A) (A) (A) (A) (A) (A) (A)
                 (A) (A) (A) (A) (A) (A) (A) (A) (A) (A) (A) (A)
                 (A) (A) (A) (A) (A) (A) (A) (A) (A) (A) (A) (A)
                 (A) (A)
       Virtual   (A) (A) (A) (A) (A) (A) (A) (A) (A) (A) (A) (A)
                 (A) (A) (A) (A) (A) (A) (A) (A) (A) (A) (A) (A)
                 (A) (A) (A) (A) (A) (A) (A) (A) (A) (A) (A) (A)
                 (A) (A) (A) (A) (A) (A) (A) (A) (A) (A) (A) (A)
                 (A) (A) (A) (A) (A) (A) (A) (A) (A) (A) (A) (A)
                 (A) (A) (A) (A) (A) (A) (A) (A) (A) (A) (A) (A)
                 (A) (A) (A) (A) (A) (A) (A) (A) (A) (A) (A) (A)
                 (A) (A) (A) (A) (A) (A) (A) (A) (A) (A) (A) (A)
                 (A) (A) (A) (A) (A) (A) (A) (A) (A) (A) (A) (A)
                 (A) (A) (A) (A) (A) (A) (A) (A) (A) (A) (A) (A)
                 (A) (A) (A) (A) (A) (A) (A) (A) (A) (A) (A) (A)
                 (A) (A) (A) (A) (A) (A) (A) (A) (A) (A) (A) (A)
                 (A) (A) (A) (A) (A) (A) (A) (A) (A) (A) (A) (A)
                 (A) (A) (A) (A) (A) (A) (A) (A) (A) (A) (A) (A)
                 (A) (A) (A) (A) (A) (A) (A) (A) (A) (A) (A) (A)
                 (A) (A) (A) (A) (A) (A) (A) (A) (A) (A) (A) (A)
                 (A) (A) (A) (A) (A) (A) (A) (A) (A) (A) (A) (A)
                 (A) (A) (A) (A) (A) (A) (A) (A) (A) (A) (A) (A)
                 (A) (A) (A) (A) (A) (A) (A) (A) (A) (A) (A) (A)
                 (A) (A) (A) (A) (A) (A) (A) (A) (A) (A) (A) (A)
                 (A) (A) (A) (A) (A) (A) (A) (A) (A) (A) (A) (A)
                 (A) (A) (A) (A) (A) (A) (A) (A) (A) (A) (A) (A)
                 (A) (A) (A) (A) (A) (A) (A) (A) (A) (A) (A) (A)
                 (A) (A) (A) (A) (A) (A) (A) (A) (A) (A) (A) (A)
                 (A) (A) (A) (A) (A) (A) (A) (A) (A) (A) (A) (A)
                 (A) (A) (A) (A) (A) (A) (A) (A) (A) (A) (A) (A)
                 (A) (A) (A) (A) (A) (A) (A) (A) (A) (A) (A) (A)
                 (A) (A) (A) (A) (A) (A) (A) (A) (A) (A) (A) (A)
                 (A) (A) (A) (A) (A) (A) (A) (A) (A) (A) (A) (A)
                 (A) (A) (A) (A) (A) (A) (A) (A) (A) (A) (A) (A)
                 (A) (A) (A) (A) (A) (A) (A) (A) (A) (A) (A) (A)
                 (A) (A) (A) (A) (A) (A) (A) (A) (A) (A) (A) (A)
                 (A) (A) (A) (A) (A) (A) (A) (A) (A) (A) (A) (A)
                 (A) (A) (A) (A) (A) (A) (A) (A) (A) (A) (A) (A)
                 (A) (A) (A) (A) (A) (A) (A) (A) (A) (A) (A) (A)
                 (A) (A) (A) (A) (A) (A) (A) (A) (A) (A) (A) (A)
                 (A) (A) (A) (A) (A) (A) (A) (A) (A) (A) (A) (A)
                 (A) (A) (A) (A) (A) (A) (A) (A) (A) (A) (A) (A)
                 (A) (A) (A) (A) (A) (A) (A) (A) (A) (A) (A) (A)
                 (A) (A) (A) (A) (A) (A) (A) (A) (A) (A) (A) (A)
                 (A) (A) (A) (A) (A) (A) (A) (A) (A) (A) (A) (A)
                 (A) (A) (A) (A) (A) (A) (A) (A) (A) (A) (A) (A)
                 (A) (A) (A) (A) (A) (A) (A) (A) (A) (A) (A) (A)
                 (A) (A) (A) (A) (A) (A) (A) (A) (A) (A) (A) (A)
                 (A) (A) (A) (A) (A) (A) (A) (A) (A) (A) (A) (A)
                 (A) (A) (A) (A) (A) (A) (A) (A) (A) (A) (A) (A)
                 (A) (A) (A) (A) (A) (A) (A) (A) (A) (A) (A) (A)
                 (A) (A) (A) (A) (A) (A) (A) (A) (A) (A) (A) (A)
                 (A) (A) (A) (A) (A) (A) (A) (A) (A) (A) (A) (A)
                 (A) (A) (A) (A) (A) (A) (A) (A) (A) (A) (A) (A)
                 (A) (A) (A) (A) (A) (A) (A) (A) (A) (A) (A) (A)
                 (A) (A) (A) (A) (A) (A) (A) (A) (A) (A) (A) (A)
                 (A) (A) (A) (A) (A) (A) (A) (A) (A) (A) (A) (A)
                 (A) (A) (A) (A) (A) (A) (A)
 The electronic state is 2-A.
 Alpha  occ. eigenvalues --  -10.20839 -10.19958 -10.19945 -10.19836 -10.19829
 Alpha  occ. eigenvalues --  -10.19622 -10.19614 -10.19547 -10.19513 -10.19356
 Alpha  occ. eigenvalues --  -10.19297 -10.19277 -10.19236 -10.19202 -10.19161
 Alpha  occ. eigenvalues --  -10.19156 -10.19125 -10.19110 -10.19012 -10.18500
 Alpha  occ. eigenvalues --  -10.18497 -10.18386 -10.18263 -10.18238 -10.18116
 Alpha  occ. eigenvalues --  -10.17998 -10.17856 -10.17532 -10.17255 -10.16889
 Alpha  occ. eigenvalues --   -0.92088  -0.89514  -0.87321  -0.85720  -0.84409
 Alpha  occ. eigenvalues --   -0.82362  -0.81331  -0.79391  -0.78976  -0.76488
 Alpha  occ. eigenvalues --   -0.74840  -0.74675  -0.73046  -0.72427  -0.71575
 Alpha  occ. eigenvalues --   -0.66650  -0.65128  -0.63686  -0.63296  -0.62432
 Alpha  occ. eigenvalues --   -0.61127  -0.60093  -0.58908  -0.56868  -0.54512
 Alpha  occ. eigenvalues --   -0.53510  -0.53294  -0.51833  -0.50852  -0.50408
 Alpha  occ. eigenvalues --   -0.49465  -0.48183  -0.47374  -0.46985  -0.45120
 Alpha  occ. eigenvalues --   -0.44409  -0.44242  -0.44096  -0.43648  -0.43572
 Alpha  occ. eigenvalues --   -0.42957  -0.42467  -0.41740  -0.41337  -0.41267
 Alpha  occ. eigenvalues --   -0.40266  -0.40177  -0.39393  -0.38728  -0.37769
 Alpha  occ. eigenvalues --   -0.37399  -0.36462  -0.36122  -0.35530  -0.34454
 Alpha  occ. eigenvalues --   -0.34234  -0.33768  -0.33527  -0.32826  -0.32617
 Alpha  occ. eigenvalues --   -0.30082  -0.29350  -0.27913  -0.25989  -0.25275
 Alpha  occ. eigenvalues --   -0.23965  -0.22428  -0.20920  -0.19997
 Alpha virt. eigenvalues --   -0.09407  -0.05906  -0.05009  -0.04298  -0.01932
 Alpha virt. eigenvalues --   -0.00452  -0.00010   0.00540   0.00545   0.00841
 Alpha virt. eigenvalues --    0.01378   0.01493   0.01720   0.02258   0.02814
 Alpha virt. eigenvalues --    0.03000   0.03209   0.03332   0.04175   0.04333
 Alpha virt. eigenvalues --    0.04395   0.04876   0.05197   0.05414   0.05947
 Alpha virt. eigenvalues --    0.06308   0.06793   0.07088   0.07231   0.07609
 Alpha virt. eigenvalues --    0.08098   0.08166   0.08670   0.08966   0.09129
 Alpha virt. eigenvalues --    0.09225   0.10048   0.10274   0.10575   0.10819
 Alpha virt. eigenvalues --    0.11252   0.11635   0.11812   0.12081   0.12558
 Alpha virt. eigenvalues --    0.12785   0.13090   0.13633   0.13954   0.14086
 Alpha virt. eigenvalues --    0.14270   0.14566   0.14928   0.15104   0.15302
 Alpha virt. eigenvalues --    0.15727   0.16213   0.16384   0.16423   0.16815
 Alpha virt. eigenvalues --    0.16915   0.17074   0.17244   0.17367   0.17628
 Alpha virt. eigenvalues --    0.17721   0.18118   0.18279   0.18455   0.18689
 Alpha virt. eigenvalues --    0.19069   0.19185   0.19273   0.19446   0.19756
 Alpha virt. eigenvalues --    0.19901   0.20130   0.20388   0.20543   0.20696
 Alpha virt. eigenvalues --    0.20983   0.21170   0.21465   0.21552   0.21966
 Alpha virt. eigenvalues --    0.22189   0.22520   0.22576   0.22792   0.23081
 Alpha virt. eigenvalues --    0.23210   0.23564   0.23678   0.23951   0.24217
 Alpha virt. eigenvalues --    0.24336   0.24557   0.24773   0.24895   0.25089
 Alpha virt. eigenvalues --    0.25323   0.25578   0.26134   0.26278   0.26353
 Alpha virt. eigenvalues --    0.26799   0.26854   0.27046   0.27559   0.27630
 Alpha virt. eigenvalues --    0.28257   0.28376   0.28473   0.28819   0.29028
 Alpha virt. eigenvalues --    0.29142   0.29356   0.29615   0.30155   0.30419
 Alpha virt. eigenvalues --    0.30495   0.30789   0.31010   0.31294   0.31610
 Alpha virt. eigenvalues --    0.31962   0.32070   0.32374   0.33124   0.33324
 Alpha virt. eigenvalues --    0.33601   0.33810   0.34026   0.34084   0.34581
 Alpha virt. eigenvalues --    0.35205   0.35522   0.35700   0.36802   0.37378
 Alpha virt. eigenvalues --    0.37534   0.38160   0.38238   0.39113   0.39667
 Alpha virt. eigenvalues --    0.39865   0.40493   0.40993   0.42192   0.42260
 Alpha virt. eigenvalues --    0.42816   0.43397   0.43876   0.44429   0.45245
 Alpha virt. eigenvalues --    0.46016   0.46760   0.47893   0.48009   0.48445
 Alpha virt. eigenvalues --    0.48836   0.49481   0.51155   0.51611   0.52152
 Alpha virt. eigenvalues --    0.52606   0.53067   0.53138   0.53658   0.54207
 Alpha virt. eigenvalues --    0.54407   0.54517   0.54811   0.55422   0.55633
 Alpha virt. eigenvalues --    0.55879   0.56270   0.56887   0.57293   0.57497
 Alpha virt. eigenvalues --    0.57840   0.58186   0.58577   0.58846   0.58983
 Alpha virt. eigenvalues --    0.60011   0.60021   0.60549   0.60717   0.61093
 Alpha virt. eigenvalues --    0.61590   0.62263   0.62719   0.63187   0.63596
 Alpha virt. eigenvalues --    0.63977   0.64350   0.64640   0.65252   0.65940
 Alpha virt. eigenvalues --    0.66125   0.66855   0.67092   0.67482   0.67654
 Alpha virt. eigenvalues --    0.68644   0.68800   0.69147   0.69604   0.69732
 Alpha virt. eigenvalues --    0.70122   0.70753   0.70922   0.71037   0.71605
 Alpha virt. eigenvalues --    0.71734   0.72055   0.72497   0.72959   0.73136
 Alpha virt. eigenvalues --    0.73578   0.73687   0.73849   0.74384   0.74593
 Alpha virt. eigenvalues --    0.75126   0.75443   0.75596   0.76196   0.76443
 Alpha virt. eigenvalues --    0.76949   0.77387   0.78033   0.78339   0.78891
 Alpha virt. eigenvalues --    0.79501   0.79913   0.80785   0.81533   0.82031
 Alpha virt. eigenvalues --    0.82384   0.82522   0.82988   0.83545   0.84248
 Alpha virt. eigenvalues --    0.84522   0.85241   0.86083   0.86508   0.87221
 Alpha virt. eigenvalues --    0.87522   0.87942   0.88287   0.88613   0.89265
 Alpha virt. eigenvalues --    0.89540   0.89995   0.91116   0.91662   0.92284
 Alpha virt. eigenvalues --    0.92438   0.92735   0.92977   0.93483   0.94006
 Alpha virt. eigenvalues --    0.95083   0.95273   0.95624   0.95760   0.96068
 Alpha virt. eigenvalues --    0.96357   0.96841   0.97350   0.97943   0.98131
 Alpha virt. eigenvalues --    0.98921   0.99108   0.99465   1.00596   1.00745
 Alpha virt. eigenvalues --    1.01694   1.02055   1.02666   1.02905   1.03928
 Alpha virt. eigenvalues --    1.04754   1.05237   1.05462   1.05580   1.06265
 Alpha virt. eigenvalues --    1.07220   1.07377   1.07737   1.08622   1.08988
 Alpha virt. eigenvalues --    1.09213   1.10246   1.11473   1.12274   1.12659
 Alpha virt. eigenvalues --    1.13434   1.14003   1.14713   1.14888   1.15304
 Alpha virt. eigenvalues --    1.16628   1.16780   1.17961   1.19531   1.20078
 Alpha virt. eigenvalues --    1.20964   1.22122   1.23102   1.23969   1.25097
 Alpha virt. eigenvalues --    1.25373   1.26834   1.29526   1.30182   1.31645
 Alpha virt. eigenvalues --    1.33033   1.33772   1.34517   1.37128   1.37884
 Alpha virt. eigenvalues --    1.38628   1.39221   1.41327   1.43415   1.44115
 Alpha virt. eigenvalues --    1.44320   1.45786   1.46320   1.47024   1.48189
 Alpha virt. eigenvalues --    1.48635   1.48824   1.49133   1.49574   1.50656
 Alpha virt. eigenvalues --    1.50757   1.51480   1.51621   1.52630   1.52855
 Alpha virt. eigenvalues --    1.53689   1.54307   1.54892   1.55578   1.56213
 Alpha virt. eigenvalues --    1.56493   1.57093   1.57316   1.58062   1.58380
 Alpha virt. eigenvalues --    1.59338   1.59733   1.60624   1.61031   1.61589
 Alpha virt. eigenvalues --    1.62570   1.63242   1.64174   1.64684   1.65500
 Alpha virt. eigenvalues --    1.66255   1.67409   1.68691   1.69180   1.69927
 Alpha virt. eigenvalues --    1.70326   1.70613   1.71648   1.72406   1.72818
 Alpha virt. eigenvalues --    1.73764   1.74457   1.74984   1.75444   1.75812
 Alpha virt. eigenvalues --    1.76887   1.77056   1.77253   1.78501   1.80065
 Alpha virt. eigenvalues --    1.80790   1.81206   1.82083   1.82721   1.83179
 Alpha virt. eigenvalues --    1.83550   1.83859   1.85005   1.85127   1.86678
 Alpha virt. eigenvalues --    1.86834   1.87190   1.88116   1.88423   1.88916
 Alpha virt. eigenvalues --    1.89159   1.89893   1.90168   1.90813   1.91169
 Alpha virt. eigenvalues --    1.91750   1.92550   1.93047   1.93802   1.94428
 Alpha virt. eigenvalues --    1.94606   1.95346   1.96168   1.96626   1.97522
 Alpha virt. eigenvalues --    1.98201   1.98629   1.99812   2.00143   2.00935
 Alpha virt. eigenvalues --    2.01271   2.01686   2.02883   2.03498   2.03907
 Alpha virt. eigenvalues --    2.04334   2.05293   2.05946   2.07250   2.07461
 Alpha virt. eigenvalues --    2.08416   2.09428   2.10009   2.11140   2.11645
 Alpha virt. eigenvalues --    2.12926   2.13712   2.14077   2.14918   2.16054
 Alpha virt. eigenvalues --    2.17382   2.17488   2.18685   2.19241   2.20981
 Alpha virt. eigenvalues --    2.22014   2.22484   2.24232   2.24754   2.25964
 Alpha virt. eigenvalues --    2.26559   2.26921   2.27741   2.28636   2.32080
 Alpha virt. eigenvalues --    2.32881   2.34469   2.35705   2.36973   2.38294
 Alpha virt. eigenvalues --    2.39569   2.40440   2.41798   2.42409   2.43308
 Alpha virt. eigenvalues --    2.43844   2.44701   2.45334   2.46316   2.47275
 Alpha virt. eigenvalues --    2.47823   2.49859   2.51944   2.54395   2.55198
 Alpha virt. eigenvalues --    2.56159   2.56951   2.58083   2.59182   2.59475
 Alpha virt. eigenvalues --    2.60993   2.63688   2.65251   2.66014   2.67083
 Alpha virt. eigenvalues --    2.68625   2.69346   2.69738   2.71023   2.71358
 Alpha virt. eigenvalues --    2.71494   2.72222   2.72348   2.72713   2.73412
 Alpha virt. eigenvalues --    2.73657   2.74273   2.74575   2.75160   2.75320
 Alpha virt. eigenvalues --    2.75555   2.76022   2.76106   2.76541   2.76742
 Alpha virt. eigenvalues --    2.77456   2.77925   2.78634   2.78916   2.80016
 Alpha virt. eigenvalues --    2.80314   2.80563   2.81444   2.82821   2.83721
 Alpha virt. eigenvalues --    2.84836   2.84841   2.85426   2.86279   2.86939
 Alpha virt. eigenvalues --    2.87679   2.88802   2.89162   2.89328   2.90495
 Alpha virt. eigenvalues --    2.91322   2.91602   2.92662   2.93647   2.94553
 Alpha virt. eigenvalues --    2.94816   2.96196   2.97338   2.99761   3.00992
 Alpha virt. eigenvalues --    3.02226   3.02814   3.04185   3.06254   3.08601
 Alpha virt. eigenvalues --    3.10499   3.12090   3.13356   3.14662   3.16068
 Alpha virt. eigenvalues --    3.17323   3.19513   3.20202   3.21424   3.21599
 Alpha virt. eigenvalues --    3.22730   3.23585   3.25716   3.25976   3.29263
 Alpha virt. eigenvalues --    3.31648   3.33665   3.34041   3.36096   3.37310
 Alpha virt. eigenvalues --    3.37993   3.38891   3.40630   3.42194   3.44302
 Alpha virt. eigenvalues --    3.44685   3.45540   3.46234   3.47773   3.48949
 Alpha virt. eigenvalues --    3.49278   3.51349   3.52625   3.54593   3.56330
 Alpha virt. eigenvalues --    3.56891   3.59027   3.62478   3.63438   3.64211
[...]
 060,-0.00000184,-0.00000282,-0.00000238,0.00000372,-0.00000314,-0.0000
 0591,-0.00000118,-0.00000933,0.00000076,0.00000863,0.00009983,0.000022
 66,0.00000627,-0.00002569,-0.00005830,-0.00007397,0.00070682,0.0020744
 5,0.08943792,0.00000147,-0.00001667,-0.00001328,-0.00006053,-0.0000426
 0,0.00005468,0.00002619,0.00000472,0.00001925,0.00001221,0.00001296,0.
 00001323,-0.00001573,-0.00001232,-0.00001056,-0.00000399,0.00001152,-0
 .00000023,-0.00000713,0.00000024,0.00000111,0.00000370,0.00000775,0.00
 000392,-0.00000289,-0.00001053,-0.00000854,-0.00001171,-0.00000361,0.0
 0000091,0.00002175,0.00001138,0.00000142,-0.00001129,0.00001360,0.0000
 0283,0.00001066,-0.00000726,0.00001018,-0.00000519,-0.00001837,-0.0000
 0579,-0.00000537,-0.00000049,-0.00000008,-0.00000187,0.00005861,-0.000
 05755,-0.00005463,-0.00001973,-0.00000631,0.00001439,0.00000027,-0.000
 00598,0.00016562,-0.00002200,-0.00035589,0.00014562,0.00007140,0.00012
 684,-0.00002878,0.00001366,0.00001236,0.00001812,-0.00000499,0.0000036
 2,0.00021694,0.00016869,-0.00044835,0.00150769,0.00189944,0.00456392,-
 0.00074764,-0.00029553,0.00003477,0.00030725,-0.00036469,-0.00006609,-
 0.00816173,-0.01157606,0.00463605,-0.09099053,-0.26588951,0.08616510,-
 0.00110398,-0.00489915,0.00413713,-0.00266863,0.00228182,0.00045129,-0
 .00000173,-0.00001091,-0.00002119,0.00000085,0.00000397,0.00000113,-0.
 00000524,0.00000322,0.00000198,-0.00000340,0.00000397,0.00000056,-0.00
 000546,-0.00000038,0.00000014,-0.00000538,-0.00000058,0.00000023,-0.00
 000183,-0.00000498,-0.00000026,-0.00000142,-0.00000460,0.00000176,-0.0
 0000844,-0.00000588,0.00000590,0.00000846,-0.00000258,-0.00000086,-0.0
 0001765,-0.00010533,-0.00001720,0.00000833,0.00002277,0.00007482,0.001
 21325,-0.00031841,-0.00192698,0.09968104,0.27955175,-0.00001769,0.0000
 4331,-0.00001647,-0.00009646,-0.00002529,0.00005379,0.00005856,0.00001
 355,0.00003399,0.00000105,-0.00000517,-0.00000908,-0.00002565,0.000015
 55,-0.00000257,-0.00001600,-0.00001424,0.00000034,0.00001265,0.0000039
 0,0.00000072,0.00000004,-0.00001425,-0.00000287,0.00000825,0.00003795,
 0.00000410,0.00005950,-0.00004685,0.00000583,-0.00003781,-0.00000506,-
 0.00000723,0.00002566,-0.00002841,-0.00000191,0.00001352,-0.00003299,-
 0.00001196,-0.00000669,0.00004239,0.00003390,0.00002035,-0.00000856,-0
 .00000056,-0.00005778,0.00008243,-0.00008420,0.00006525,-0.00001730,0.
 00001011,-0.00007538,-0.00000159,-0.00002378,0.00039464,-0.00030108,-0
 .00044422,-0.00010220,-0.00004678,0.00005663,0.00004155,0.00004128,0.0
 0005794,-0.00003793,0.00003514,-0.00002238,-0.00052717,-0.00024855,-0.
 00090773,-0.00498960,0.00422840,0.00335185,0.00067920,0.00083037,0.000
 10339,-0.00006320,0.00008534,-0.00053083,0.00876718,0.01746426,-0.0021
 2562,0.02412734,0.08647240,-0.07497372,-0.00382243,-0.00962883,0.00653
 188,-0.00392144,0.00094099,0.00285512,-0.00002004,0.00003683,0.0000070
 1,0.00001678,-0.00001320,-0.00001182,0.00000454,0.00000022,-0.00000110
 ,0.00000101,0.00000009,-0.00000063,-0.00000024,-0.00000089,0.00000020,
 -0.00000023,-0.00000174,0.00000056,0.00000049,0.00000056,-0.00000049,0
 .00000091,0.00000305,0.00000615,-0.00000078,0.00000327,0.00000928,0.00
 000227,-0.00000275,0.00000069,0.00002933,0.00008919,-0.00001657,-0.000
 06852,0.00000969,0.00006904,0.00161810,-0.00224315,-0.00256619,-0.0234
 4634,-0.09623561,0.06972462,-0.00001202,-0.00006504,-0.00001416,-0.000
 05155,-0.00006983,0.00004327,0.00004747,0.00001611,0.00002996,-0.00002
 412,-0.00001265,0.00001625,-0.00002888,0.00000048,-0.00001540,0.000008
 01,0.00001202,-0.00000425,-0.00002573,-0.00000360,-0.00000296,-0.00000
 061,0.00001983,0.00000398,0.00002814,-0.00000245,0.00000136,0.00000373
 ,-0.00001963,-0.00000938,-0.00001050,0.00000316,0.00000239,-0.00000628
 ,-0.00001889,-0.00000361,0.00001419,0.00005743,-0.00000804,0.00001839,
 0.00001087,-0.00000542,-0.00002648,0.00000230,0.00000101,-0.00002265,-
 0.00001209,-0.00010963,0.00001584,0.00003602,0.00000767,-0.00003044,0.
 00000473,0.00000439,0.00050992,-0.00036118,0.00029406,-0.00020507,-0.0
 0003308,0.00020186,0.00004134,-0.00002624,0.00001680,0.00000144,0.0000
 1490,-0.00000626,0.00112059,-0.00387438,-0.00169975,-0.00047350,-0.000
 44154,0.00041932,-0.00004461,0.00018168,0.00036798,0.00010632,0.000057
 40,-0.00004776,-0.00302728,-0.00405962,-0.00279477,-0.00992886,0.01646
 933,-0.01866211,-0.12760660,0.07215030,-0.10411358,0.00922222,-0.00834
 741,0.00901527,0.00003075,0.00001364,-0.00003281,-0.00000035,0.0000015
 7,0.00001505,0.00000176,-0.00000066,0.00000164,0.00000194,-0.00000251,
 0.00000055,0.00000351,0.00000134,0.00000123,0.00000411,0.00000147,0.00
 000077,0.00000016,0.00000395,-0.00000033,-0.00000110,0.00000297,-0.000
 00097,0.00000295,0.00000248,-0.00000222,-0.00000323,-0.00000998,0.0000
 0427,0.00001239,0.00001087,-0.00003013,0.00005240,-0.00004171,0.000025
 68,-0.00063614,0.00082520,-0.00076846,0.00014973,0.00057306,0.00163188
 ,0.13098680,0.00001178,-0.00002884,-0.00000216,0.00012148,0.00002040,-
 0.00005754,-0.00010185,-0.00001811,-0.00004156,-0.00002260,0.00001269,
 0.00000213,0.00003090,-0.00003293,-0.00001225,-0.00000381,0.00002219,-
 0.00001124,-0.00001476,0.00000031,-0.00000450,0.00000270,0.00001137,-0
 .00000119,-0.00004145,-0.00004588,-0.00000651,-0.00005616,0.00005569,0
 .00000103,0.00005516,0.00000456,0.00000716,-0.00002536,0.00005259,0.00
 000006,0.00005718,0.00005675,0.00003813,-0.00000707,0.00001573,-0.0000
 0523,-0.00000819,0.00000307,0.00000685,0.00005477,0.00002132,0.0000677
 0,-0.00013518,0.00001248,-0.00002275,0.00011162,-0.00001642,0.00000825
 ,0.00107678,0.00039134,0.00055847,0.00022769,-0.00043752,0.00000335,0.
 00006876,-0.00011897,-0.00002458,0.00012001,-0.00005849,0.00003994,-0.
 00459346,-0.00209554,0.00422901,-0.00033060,-0.00096619,-0.00024447,0.
 00008255,0.00037168,-0.00059679,-0.00046808,-0.00031870,0.00004781,-0.
 00351868,0.00140477,0.00080125,-0.00603078,0.00916988,-0.00787984,0.07
 060839,-0.13263630,0.10602561,0.01546021,-0.00990825,0.01865214,-0.000
 01926,-0.00002652,-0.00000032,0.00000617,-0.00000582,-0.00001596,0.000
 00149,0.00000041,-0.00000030,-0.00000028,0.00000089,0.00000354,-0.0000
 0345,-0.00000027,0.00000242,-0.00000408,0.00000076,0.00000236,-0.00000
 126,-0.00000466,0.00000326,-0.00000394,-0.00000667,-0.00000390,-0.0000
 1048,-0.00000544,0.00001011,-0.00000555,-0.00005753,-0.00000520,0.0000
 0206,-0.00000430,0.00002797,0.00003800,-0.00001597,0.00004268,-0.00051
 128,0.00042288,-0.00027620,0.00131980,-0.00016756,-0.00112665,-0.07464
 196,0.13540844,0.00003057,0.00020923,0.00002499,0.00018693,0.00012315,
 -0.00008733,-0.00016856,-0.00007499,-0.00006527,0.00003863,-0.00001479
 ,-0.00002692,0.00009768,0.00000390,0.00001884,-0.00004118,-0.00002410,
 -0.00002395,0.00009060,0.00001398,0.00001753,-0.00001341,-0.00008596,-
 0.00002035,-0.00009547,0.00003648,0.00000309,0.00000963,0.00005571,0.0
 0002109,-0.00001927,-0.00002929,-0.00000912,0.00003953,0.00001751,0.00
 000615,-0.00004148,-0.00013382,0.00003643,-0.00003374,0.00001981,0.000
 09147,0.00008217,-0.00002144,0.00003208,-0.00014390,0.00001453,0.00011
 815,-0.00003642,0.00000643,-0.00006582,0.00005239,-0.00001909,0.000006
 34,-0.00047422,0.00064521,-0.00021243,0.00061286,-0.00000460,-0.000266
 79,-0.00000350,-0.00007247,-0.00001482,0.00004232,0.00005032,0.0000184
 3,-0.00079791,0.00310140,0.00550685,0.00065267,-0.00091814,0.00007042,
 0.00010251,0.00013060,-0.00073824,-0.00035848,-0.00026956,0.00008070,-
 0.00336573,0.00034647,0.00327501,-0.00259307,0.00649716,-0.00292677,-0
 .10461716,0.10563287,-0.17031120,-0.00627441,0.00586126,-0.00381983,-0
 .00010094,0.00004655,0.00001997,0.00000824,-0.00002706,-0.00008648,0.0
 0000920,-0.00000043,-0.00001105,0.00000077,0.00000172,-0.00000097,-0.0
 0000095,-0.00000423,-0.00000226,-0.00000179,-0.00000352,0.00000002,0.0
 0000231,-0.00000104,0.00000067,0.00000239,-0.00000064,0.00000114,0.000
 00379,0.00000105,0.00000646,-0.00000222,0.00001131,-0.00000356,-0.0000
 2243,0.00001714,0.00003462,-0.00001498,-0.00000244,0.00002666,-0.00027
 896,0.00048577,-0.00017889,0.00117139,-0.00142816,-0.00138913,0.114395
 17,-0.11805165,0.17312582,-0.00162224,-0.00018122,0.00211738,-0.000964
 73,-0.00098933,0.00129293,-0.00007455,-0.00004344,0.00010715,0.0002547
 4,0.00000345,0.00018305,-0.00018511,-0.00007253,-0.00013363,0.00001825
 ,0.00018460,0.00003754,-0.00006851,-0.00005293,-0.00002106,-0.00002101
 ,0.00008154,0.00002915,0.00010219,-0.00002082,-0.00001120,-0.00000697,
 -0.00006931,-0.00005036,-0.00003799,-0.00000315,0.00000395,0.00000249,
 -0.00004358,0.00000481,-0.00052177,0.00009612,0.00051873,0.00021291,-0
 .00026367,-0.00009613,-0.00013142,-0.00006478,-0.00003806,0.00052402,-
 0.00043928,0.00080046,0.00020246,0.00041891,0.00000570,-0.00008405,0.0
 0001917,0.00001490,-0.00106785,-0.00088904,0.00179257,-0.00035559,0.00
 023942,-0.00018271,-0.00004461,-0.00008133,-0.00004471,0.00003626,-0.0
 0002609,0.00001109,-0.01054399,-0.00464240,-0.00507841,0.00153615,0.00
 118171,-0.00348991,-0.00041921,-0.00067084,0.00000101,0.00014838,0.000
 13951,0.00002735,0.00029199,0.00022402,0.00061299,0.00231826,-0.003108
 24,-0.00121780,-0.00586182,-0.00196852,-0.00493810,-0.27462240,-0.0840
 1491,-0.09694833,0.00004871,0.00001257,-0.00012851,-0.00000134,-0.0000
 0065,0.00001451,-0.00000222,-0.00000328,-0.00000495,0.00000134,-0.0000
 0091,-0.00000640,0.00000234,0.00000021,0.00000086,0.00000343,0.0000012
 7,0.00000014,0.00000159,0.00000445,-0.00000659,-0.00000704,0.00000071,
 0.00000455,0.00001616,-0.00000104,-0.00000981,-0.00000095,0.00001144,-
 0.00000289,0.00000806,0.00003217,-0.00000457,-0.00013753,0.00014393,-0
 .00004558,-0.00022846,0.00014252,0.00032227,-0.00035258,-0.00000188,-0
 .00024473,-0.00021699,0.00110326,0.00186151,0.29186177,-0.00039663,0.0
 0050086,0.00066525,-0.00131014,0.00000156,0.00090631,-0.00028552,-0.00
 013227,0.00004991,0.00035898,-0.00005978,0.00006757,-0.00011634,0.0000
 2016,-0.00003666,0.00000527,0.00001319,-0.00000795,0.00004901,-0.00004
 558,-0.00000309,-0.00004867,-0.00002113,0.00000468,0.00006278,0.000085
 36,0.00000663,0.00004100,-0.00001464,-0.00007303,-0.00012647,-0.000050
 07,-0.00001686,0.00008734,-0.00006624,-0.00000182,0.00007260,-0.000371
 23,-0.00027822,-0.00004481,-0.00009272,-0.00001598,0.00003138,-0.00001
 784,0.00000336,0.00028270,-0.00060299,0.00060952,0.00011680,-0.0002849
 9,-0.00008436,-0.00010161,0.00008488,0.00004326,0.00055002,0.00027863,
 -0.00131909,0.00025053,-0.00023151,-0.00005016,0.00002676,0.00020731,0
 .00010028,-0.00010236,0.00003232,-0.00007413,0.01616963,0.00853168,0.0
 0649875,0.00078509,-0.00094770,0.00422951,0.00071586,0.00045284,0.0000
 6059,0.00000698,-0.00000193,-0.00008009,0.00057231,-0.00043033,0.00001
 060,-0.00249847,-0.00226995,0.00532240,-0.02606375,-0.00503076,-0.0095
 4009,-0.08332842,-0.08016061,-0.02434627,-0.00010738,-0.00000631,-0.00
 007447,0.00000039,-0.00000317,-0.00000362,-0.00000395,-0.00000023,-0.0
 0000965,-0.00000077,-0.00000114,-0.00000659,0.00000440,-0.00000523,-0.
 00000289,0.00000354,-0.00000802,-0.00000084,0.00000700,0.00000386,-0.0
 0000359,0.00000707,0.00001038,0.00002103,-0.00001239,0.00001251,-0.000
 00397,-0.00000362,0.00001240,0.00000393,-0.00002972,-0.00001651,0.0000
 1646,0.00015785,-0.00012334,0.00022038,0.00017582,-0.00015903,-0.00048
 452,-0.00114113,-0.00034030,-0.00042719,0.00157387,-0.00048291,-0.0021
 3728,0.09360400,0.08172443,0.00094006,-0.00002408,-0.00079117,0.000518
 67,0.00077090,-0.00029324,0.00058304,0.00001854,0.00029414,0.00030453,
 0.00016743,0.00011995,-0.00030301,0.00002109,-0.00009024,-0.00008753,0
 .00002163,-0.00000161,0.00000652,0.00002326,0.00000696,-0.00001554,0.0
 0000080,0.00000761,0.00012029,0.00014660,0.00000822,0.00020511,-0.0002
 7571,0.00003025,-0.00011520,-0.00001625,-0.00003414,0.00007715,-0.0001
 1113,-0.00001033,0.00007437,-0.00042961,-0.00040056,-0.00002051,-0.000
 03040,0.00001820,-0.00000910,0.00005410,0.00001080,-0.00062166,0.00083
 689,-0.00093172,0.00018564,0.00010537,0.00014222,-0.00030548,-0.000127
 06,-0.00012051,0.00136763,-0.00077933,-0.00136513,0.00029874,-0.000326
 96,0.00020376,0.00014122,0.00005867,0.00014207,-0.00011501,0.00011355,
 -0.00006199,-0.01780287,-0.00915332,-0.00203393,-0.00275808,0.00479114
 ,0.00115936,-0.00104979,-0.00072996,0.00003830,-0.00010095,-0.00006680
 ,-0.00015504,0.00045436,0.00072556,-0.00114589,-0.00113312,0.00460009,
 0.00426754,0.01000143,0.00435987,0.00752506,-0.09584328,-0.02305164,-0
 .08247468,-0.00010738,0.00003356,-0.00008499,-0.00001406,0.00003413,0.
 00001564,-0.00001421,0.00001016,0.00000087,-0.00001472,0.00000970,-0.0
 0000391,-0.00001581,-0.00000133,0.00000013,-0.00001544,-0.00001132,0.0
 0000197,-0.00000786,-0.00001132,-0.00000385,-0.00000267,-0.00000659,0.
 00000648,0.00001316,-0.00001281,0.00001641,0.00000973,-0.00000095,0.00
 000452,0.00001738,0.00003145,0.00000427,-0.00026038,0.00027168,-0.0001
 4464,0.00024491,-0.00040505,-0.00055592,0.00049024,0.00028246,0.000244
 27,0.00181825,-0.00218571,-0.00223022,0.10286370,0.02025702,0.07868510
 ,-0.00053903,0.00000212,0.00046699,0.00006485,-0.00024022,-0.00016336,
 0.00004550,-0.00021580,-0.00003537,0.00007601,-0.00002248,0.00021235,-
 0.00028903,-0.00000746,-0.00002256,0.00057158,0.00113289,-0.00006434,-
 0.00031951,-0.00020779,0.00006984,0.00000613,0.00033117,0.00010189,0.0
 0034703,-0.00008458,-0.00003428,-0.00008995,0.00018035,-0.00000117,-0.
 00008549,-0.00005167,-0.00000565,0.00005535,-0.00008028,-0.00000143,0.
 00034312,0.00126911,0.00132385,-0.00234037,-0.00153486,0.00179522,-0.0
 0259466,-0.00007013,-0.00613867,-0.00001930,0.00014399,0.00003977,-0.0
 0003359,-0.00007420,0.00000599,0.00011463,0.00006284,0.00002429,0.0000
 2590,0.00001501,-0.00001974,-0.00000817,0.00000190,-0.00000206,-0.0000
 1499,-0.00002040,0.00000445,0.00002030,-0.00001459,0.00000598,-0.00003
 267,0.00001309,-0.00004032,0.00001006,0.00000964,0.00000119,-0.0000200
 6,0.00000734,-0.00001300,-0.00000141,-0.00001775,0.00001206,0.00000571
 ,-0.00000104,0.00000904,-0.00001714,-0.00000569,0.00000191,0.00001446,
 -0.00001990,-0.00001389,0.00004686,0.00000986,0.00002213,-0.00000953,0
 .00001380,-0.00011634,0.00010004,-0.00062226,0.00208126,0.00001931,-0.
 00014457,0.00034076,-0.00000709,-0.00001053,-0.00000915,0.00000259,0.0
 0000652,0.00000213,0.00000459,-0.00000193,0.00000058,0.00000302,0.0000
 0555,-0.00000048,0.00000159,-0.00000021,0.00000068,0.00000093,0.000003
 84,-0.00000110,-0.00000421,0.00000129,-0.00000166,-0.00000262,0.000001
 03,-0.00000171,-0.00000051,-0.00000162,0.00000023,0.00000047,-0.000002
 22,-0.00000262,0.00000028,-0.00000257,-0.00000176,-0.00000109,-0.00000
 122,0.00000688,-0.00001056,0.00000314,-0.00000248,0.00456068,-0.000445
 06,-0.00065937,-0.00091485,-0.00011055,0.00019947,0.00033443,-0.000175
 03,0.00013428,-0.00003494,0.00075272,0.00076235,0.00059662,-0.00009510
 ,-0.00059233,-0.00018032,-0.00042262,-0.00114841,-0.00027494,0.0002070
 2,0.00006841,0.00012635,-0.00002386,-0.00009005,-0.00004533,0.00016159
 ,0.00015469,0.00004530,-0.00002684,-0.00003052,-0.00002291,0.00005574,
 0.00008309,0.00002421,-0.00002407,-0.00009079,-0.00001764,-0.00002564,
 0.00077896,-0.00246925,-0.00326341,-0.00398131,-0.00549922,0.00369527,
 0.00116197,0.00132222,-0.00002050,-0.00005426,-0.00003258,-0.00001029,
 0.00000630,-0.00001047,-0.00001081,-0.00007270,-0.00001882,-0.00000645
 ,-0.00001156,0.00002197,0.00000686,0.00000652,-0.00001467,0.00000119,-
 0.00000301,0.00000178,-0.00000317,0.00000936,-0.00000147,0.00001153,-0
 .00000584,0.00002974,0.00000306,-0.00000920,-0.00000063,0.00001050,0.0
 0000008,0.00000759,-0.00000778,0.00000756,-0.00000665,0.00000017,0.000
 00223,-0.00000134,0.00000246,0.00001235,0.00000622,-0.00000426,0.00001
 061,0.00000284,-0.00003406,-0.00000943,-0.00002018,-0.00002561,0.00004
 363,0.00003836,-0.00047742,-0.00110120,0.00583766,0.00005683,0.0000882
 1,-0.00016071,-0.00000269,0.00000449,0.00000313,-0.00000255,-0.0000014
 1,-0.00000262,-0.00000136,0.00000051,-0.00000194,-0.00000679,-0.000005
 09,0.00000400,0.00000013,-0.00000168,0.00000496,-0.00000007,-0.0000021
 6,0.00000169,0.00000173,-0.00000040,0.00000194,0.00000089,-0.00000023,
 0.00000214,0.00000247,0.00000096,-0.00000042,0.00000464,-0.00000041,0.
 00000008,0.00000398,0.00000326,-0.00000405,-0.00000251,-0.00000043,-0.
 00000487,0.00000821,0.00000606,0.00001168,0.00024150,0.00432646,0.0084
 6016,0.00621839,0.00217803,0.00006840,-0.00059379,-0.00028759,0.001328
 00,0.00039378,0.00036995,-0.00621529,-0.00379790,-0.00110673,0.0018608
 4,0.00407708,0.00134356,0.00142189,0.00427745,0.00181517,-0.00027939,0
 .00020182,0.00002050,0.00051995,-0.00107207,-0.00021006,-0.00297379,-0
 .00068847,-0.00045525,0.00039762,-0.00062601,0.00008435,-0.00008672,-0
 .00039418,-0.00016203,0.00007688,0.00105088,0.00020058,0.00660599,-0.0
 1730101,-0.01467283,0.00796170,0.00291764,0.04422772,-0.02098339,0.001
 32005,-0.01465977,0.00046636,-0.00031104,0.00010814,0.00029903,0.00033
 107,0.00001771,-0.00034794,0.00034207,-0.00001696,-0.00026623,-0.00008
 257,0.00001474,0.00004076,-0.00015462,-0.00001114,0.00012982,0.0001011
 5,0.00001601,-0.00010496,0.00009732,-0.00005896,0.00007335,0.00000258,
 0.00002277,-0.00002840,-0.00000712,0.00000061,0.00006200,-0.00000183,0
 .00004155,-0.00000610,0.00005147,-0.00002514,0.00000694,-0.00000645,0.
 00001557,0.00000939,0.00005618,-0.00000156,-0.00000621,0.00009258,0.00
 002135,-0.00006410,-0.00008665,0.00006082,-0.00025803,-0.00009567,0.00
 067784,0.00130939,0.00286578,-0.01067564,0.00018060,-0.00049735,0.0005
 8980,0.00007655,0.00000335,-0.00000111,-0.00000876,-0.00000976,0.00000
 339,-0.00001729,0.00000079,0.00001241,0.00004373,0.00001341,-0.0000105
 9,-0.00002263,0.00001151,0.00000487,-0.00000370,-0.00000182,0.00000130
 ,0.00000382,0.00000227,0.00000819,0.00000287,0.00000029,0.00000150,0.0
 0000267,0.00000101,-0.00000460,0.00000278,0.00000094,-0.00000590,0.000
 00975,0.00000133,-0.00001032,0.00001191,-0.00000478,-0.00005151,0.0000
 7612,-0.00001503,-0.00002037,0.00016368,0.00131595,-0.00941039\\0.0000
 0199,0.00000111,0.00000051,-0.00000001,0.,-0.00000019,0.00000033,0.000
 00014,-0.00000034,-0.00000151,-0.00000092,-0.00000036,0.00000052,0.000
 00109,0.,0.00000007,0.00000072,0.00000041,0.00000001,0.00000002,-0.000
 00002,0.00000013,-0.00000033,-0.00000040,-0.00000083,-0.00000008,-0.00
 000061,0.00000018,-0.00000008,-0.00000069,0.00000002,0.00000004,-0.000
 00098,0.00000010,0.00000040,-0.00000076,0.00000103,-0.00000360,-0.0000
 0187,0.00000226,-0.00000048,0.00001198,-0.00000462,0.00000015,-0.00000
 143,0.00000012,-0.00000015,-0.00000025,0.00000012,0.00000013,-0.000000
 56,-0.00000010,0.00000015,-0.00000083,-0.00000009,-0.00000005,0.,-0.00
 000002,-0.00000019,-0.00000013,-0.00000002,-0.00000013,-0.00000046,-0.
 00000007,-0.00000002,-0.00000069,0.00000009,0.00000011,0.00000029,-0.0
 0000002,0.,0.00000051,-0.00000004,-0.00000014,0.00000041,-0.00000009,-
 0.00000018,0.00000007,0.00000004,0.00000011,0.00000083,0.00000012,0.00
 000031,0.00000093,0.00000017,0.00000043,0.00000071,0.00000011,0.000000
 28,0.00000040,-0.00000008,-0.00000027,0.00000060,0.00000038,0.00000073
 ,-0.00000100,-0.00000013,-0.00000030,0.00000070,-0.00000003,-0.0000000
 7,0.00000010,0.,0.00000005,-0.00000045,0.00000006,0.00000016,-0.000000
 98,0.00000009,0.00000019,-0.00000118,0.00000003,0.00000008,-0.00000106
 ,-0.00000003,-0.00000007,-0.00000093,-0.00000009,-0.00000023,-0.000000
 55,-0.00000012,-0.00000031,-0.00000001,-0.00000008,-0.00000021,0.00000
 055,0.00000003,0.00000005,0.00000097,0.00000016,0.00000037,0.00000116,
 0.00000023,0.00000055,0.00000078,0.00000018,0.00000037,0.00000026,-0.0
 0000060,0.00000005,-0.00000548\\\@


 A SCIENTIST IS SOMEONE WHOSE CURIOSITY SURVIVES
 EDUCATION'S ASSAULTS ON IT.
                          - SIR HERMANN BONDI
 Job cpu time:       2 days  4 hours 37 minutes  4.8 seconds.
 Elapsed time:       0 days  2 hours 38 minutes 17.4 seconds.
 File lengths (MBytes):  RWF=   4602 Int=      0 D2E=      0 Chk=     65 Scr=      1
 Normal termination of Gaussian 16 at Thu Jul  4 02:28:35 2019.
