 Entering Gaussian System, Link 0=/share/apps/gaussian16/g16/g16
 Initial command:
 /share/apps/gaussian16/g16/l1.exe "/home/amen01//scratch/739/Gau-17050.inp" -scrdir="/home/amen01//scratch/739/"
 Entering Link 1 = /share/apps/gaussian16/g16/l1.exe PID=     17051.
  
 Copyright (c) 1988-2017, Gaussian, Inc.  All Rights Reserved.
  
 This is part of the Gaussian(R) 16 program.  It is based on
 the Gaussian(R) 09 system (copyright 2009, Gaussian, Inc.),
 the Gaussian(R) 03 system (copyright 2003, Gaussian, Inc.),
 the Gaussian(R) 98 system (copyright 1998, Gaussian, Inc.),
 the Gaussian(R) 94 system (copyright 1995, Gaussian, Inc.),
 the Gaussian 92(TM) system (copyright 1992, Gaussian, Inc.),
 the Gaussian 90(TM) system (copyright 1990, Gaussian, Inc.),
 the Gaussian 88(TM) system (copyright 1988, Gaussian, Inc.),
 the Gaussian 86(TM) system (copyright 1986, Carnegie Mellon
 University), and the Gaussian 82(TM) system (copyright 1983,
 Carnegie Mellon University). Gaussian is a federally registered
 trademark of Gaussian, Inc.
  
 This software contains proprietary and confidential information,
 including trade secrets, belonging to Gaussian, Inc.
  
 This software is provided under written license and may be
 used, copied, transmitted, or stored only in accord with that
 written license.
  
 The following legend is applicable only to US Government
 contracts under FAR:
  
                    RESTRICTED RIGHTS LEGEND
  
 Use, reproduction and disclosure by the US Government is
 subject to restrictions as set forth in subparagraphs (a)
 and (c) of the Commercial Computer Software - Restricted
 Rights clause in FAR 52.227-19.
  
 Gaussian, Inc.
 340 Quinnipiac St., Bldg. 40, Wallingford CT 06492
  
  
 ---------------------------------------------------------------
 Warning -- This program may not be used in any manner that
 competes with the business of Gaussian, Inc. or will provide
 assistance to any competitor of Gaussian, Inc.  The licensee
 of this program is prohibited from giving any competitor of
 Gaussian, Inc. access to this program.  By using this program,
 the user acknowledges that Gaussian, Inc. is engaged in the
 business of creating and licensing software in the field of
 computational chemistry and represents and warrants to the
 licensee that it is not a competitor of Gaussian, Inc. and that
 it will not use this program in any manner prohibited above.
 ---------------------------------------------------------------
  

 Cite this work as:
 Gaussian 16, Revision B.01,
 M. J. Frisch, G. W. Trucks, H. B. Schlegel, G. E. Scuseria, 
 M. A. Robb, J. R. Cheeseman, G. Scalmani, V. Barone, 
 G. A. Petersson, H. Nakatsuji, X. Li, M. Caricato, A. V. Marenich, 
 J. Bloino, B. G. Janesko, R. Gomperts, B. Mennucci, H. P. Hratchian, 
 J. V. Ortiz, A. F. Izmaylov, J. L. Sonnenberg, D. Williams-Young, 
 F. Ding, F. Lipparini, F. Egidi, J. Goings, B. Peng, A. Petrone, 
 T. Henderson, D. Ranasinghe, V. G. Zakrzewski, J. Gao, N. Rega, 
 G. Zheng, W. Liang, M. Hada, M. Ehara, K. Toyota, R. Fukuda, 
 J. Hasegawa, M. Ishida, T. Nakajima, Y. Honda, O. Kitao, H. Nakai, 
 T. Vreven, K. Throssell, J. A. Montgomery, Jr., J. E. Peralta, 
 F. Ogliaro, M. J. Bearpark, J. J. Heyd, E. N. Brothers, K. N. Kudin, 
 V. N. Staroverov, T. A. Keith, R. Kobayashi, J. Normand, 
 K. Raghavachari, A. P. Rendell, J. C. Burant, S. S. Iyengar, 
 J. Tomasi, M. Cossi, J. M. Millam, M. Klene, C. Adamo, R. Cammi, 
 J. W. Ochterski, R. L. Martin, K. Morokuma, O. Farkas, 
 J. B. Foresman, and D. J. Fox, Gaussian, Inc., Wallingford CT, 2016.
 
 ******************************************
 Gaussian 16:  ES64L-G16RevB.01 20-Dec-2017
                31-Jul-2019 
 ******************************************
 %nprocshared=20
 Will use up to   20 processors via shared memory.
 %mem=160GB
 %chk=7-memb2-haddTSguess-2b.chk
 ---------------------------------------------------------------
 # opt=(ts,calcfc,noeigen) freq b3lyp/6-311+g(d,p) int=grid=fine
 ---------------------------------------------------------------
 1/5=1,10=4,11=1,18=20,26=3,38=1/1,3;
 2/9=110,12=2,17=6,18=5,40=1/2;
 3/5=4,6=6,7=111,11=2,25=1,30=1,71=2,74=-5,75=-4,140=1/1,2,3;
 4//1;
 5/5=2,38=5/2;
 8/6=4,10=90,11=11/1;
 11/6=1,8=1,9=11,15=111,16=1/1,2,10;
 10/6=1,13=1/2;
 6/7=2,8=2,9=2,10=2,28=1/1;
 7/10=1,18=20,25=1/1,2,3,16;
 1/5=1,10=4,11=1,18=20,26=3/3(2);
 2/9=110/2;
 99//99;
 2/9=110/2;
 3/5=4,6=6,7=111,11=2,25=1,30=1,71=1,74=-5,75=-4/1,2,3;
 4/5=5,16=3,69=1/1;
 5/5=2,38=5/2;
 7//1,2,3,16;
 1/5=1,11=1,18=20,26=3/3(-5);
 2/9=110/2;
 6/7=2,8=2,9=2,10=2,19=2,28=1/1;
 99/9=1/99;
 ----------------------
 7-memb2-haddTSguess-2b
 ----------------------
 Symbolic Z-matrix:
 Charge =  0 Multiplicity = 2
 C                     0.70026  -0.8369   -0.63148 
 C                     0.48966   0.58972  -0.36839 
 C                     1.77609   1.15232  -0.18178 
 C                     2.08394  -1.07329  -0.44615 
 C                     2.73962   0.13878  -0.21045 
 C                     2.74415  -2.28859  -0.33523 
 C                     4.14599  -2.18661  -0.02773 
 C                     4.78404  -0.96712   0.19245 
 C                     4.06644   0.28129   0.13377 
 C                     2.09949   2.45897   0.16599 
 C                     3.50701   2.67222   0.44791 
 C                     4.43784   1.64715   0.44164 
 C                    -0.14876  -1.96801  -0.78131 
 C                     0.53292  -3.25954  -0.71129 
 C                     1.87988  -3.43101  -0.47565 
 C                    -0.61193   1.41655  -0.11853 
 C                    -0.32273   2.83347   0.05437 
 C                     0.98776   3.33066   0.21732 
 C                    -1.97893   0.94007  -0.04631 
 C                    -3.01671   1.89673  -0.22895 
 C                    -2.70342   3.30057  -0.19134 
 C                    -1.43689   3.74303   0.01396 
 C                    -2.33903  -0.42859   0.21996 
 C                    -3.67502  -0.83567  -0.03398 
 C                    -4.65072   0.11515  -0.38089 
 C                    -4.34341   1.4599   -0.41282 
 C                    -4.05056  -2.24      0.10451 
 C                    -3.27144  -3.12442   0.74095 
 C                    -1.99854  -2.67472   1.38941 
 C                    -1.42307  -1.4136    0.78951 
 H                    -1.02675  -1.93591  -1.41539 
 H                     2.28609  -4.43644  -0.42443 
 H                     4.73174  -3.09595   0.06379 
 H                     5.83978  -0.97324   0.4435 
 H                     5.46698   1.88047   0.69542 
 H                     3.8432    3.67225   0.70308 
 H                     1.11647   4.39542   0.38573 
 H                    -1.23722   4.80542   0.10719 
 H                    -3.52156   4.00656  -0.28759 
 H                    -5.1207    2.19599  -0.58833 
 H                    -5.66702  -0.21725  -0.56449 
 H                    -5.00752  -2.54242  -0.30982 
 H                    -3.57917  -4.15865   0.85312 
 H                    -2.2061   -2.47727   2.45668 
 H                    -0.62246  -0.99388   1.38538 
 H                    -0.07207  -4.14561  -0.87568 
 H                    -1.24727  -3.47048   1.39512 
 

 GradGradGradGradGradGradGradGradGradGradGradGradGradGradGradGradGradGrad
 Berny optimization.
 Initialization pass.
                           ----------------------------
                           !    Initial Parameters    !
                           ! (Angstroms and Degrees)  !
 --------------------------                            --------------------------
 ! Name  Definition              Value          Derivative Info.                !
 --------------------------------------------------------------------------------
 ! R1    R(1,2)                  1.4659         calculate D2E/DX2 analytically  !
 ! R2    R(1,4)                  1.4159         calculate D2E/DX2 analytically  !
 ! R3    R(1,13)                 1.4222         calculate D2E/DX2 analytically  !
 ! R4    R(2,3)                  1.4164         calculate D2E/DX2 analytically  !
 ! R5    R(2,16)                 1.3999         calculate D2E/DX2 analytically  !
 ! R6    R(3,5)                  1.3987         calculate D2E/DX2 analytically  !
 ! R7    R(3,10)                 1.3903         calculate D2E/DX2 analytically  !
 ! R8    R(4,5)                  1.3981         calculate D2E/DX2 analytically  !
 ! R9    R(4,6)                  1.3875         calculate D2E/DX2 analytically  !
 ! R10   R(5,9)                  1.3781         calculate D2E/DX2 analytically  !
 ! R11   R(6,7)                  1.4388         calculate D2E/DX2 analytically  !
 ! R12   R(6,15)                 1.4394         calculate D2E/DX2 analytically  !
 ! R13   R(7,8)                  1.3938         calculate D2E/DX2 analytically  !
 ! R14   R(7,33)                 1.0855         calculate D2E/DX2 analytically  !
 ! R15   R(8,9)                  1.4411         calculate D2E/DX2 analytically  !
 ! R16   R(8,34)                 1.0852         calculate D2E/DX2 analytically  !
 ! R17   R(9,12)                 1.4485         calculate D2E/DX2 analytically  !
 ! R18   R(10,11)                1.4512         calculate D2E/DX2 analytically  !
 ! R19   R(10,18)                1.4136         calculate D2E/DX2 analytically  !
 ! R20   R(11,12)                1.3846         calculate D2E/DX2 analytically  !
 ! R21   R(11,36)                1.0854         calculate D2E/DX2 analytically  !
 ! R22   R(12,35)                1.0853         calculate D2E/DX2 analytically  !
 ! R23   R(13,14)                1.4621         calculate D2E/DX2 analytically  !
 ! R24   R(13,31)                1.0835         calculate D2E/DX2 analytically  !
 ! R25   R(14,15)                1.3781         calculate D2E/DX2 analytically  !
 ! R26   R(14,46)                1.0854         calculate D2E/DX2 analytically  !
 ! R27   R(15,32)                1.0856         calculate D2E/DX2 analytically  !
 ! R28   R(16,17)                1.4564         calculate D2E/DX2 analytically  !
 ! R29   R(16,19)                1.4495         calculate D2E/DX2 analytically  !
 ! R30   R(17,18)                1.4111         calculate D2E/DX2 analytically  !
 ! R31   R(17,22)                1.4389         calculate D2E/DX2 analytically  !
 ! R32   R(18,37)                1.0857         calculate D2E/DX2 analytically  !
 ! R33   R(19,20)                1.4232         calculate D2E/DX2 analytically  !
 ! R34   R(19,23)                1.4401         calculate D2E/DX2 analytically  !
 ! R35   R(20,21)                1.4389         calculate D2E/DX2 analytically  !
 ! R36   R(20,26)                1.4088         calculate D2E/DX2 analytically  !
 ! R37   R(21,22)                1.3572         calculate D2E/DX2 analytically  !
 ! R38   R(21,39)                1.0849         calculate D2E/DX2 analytically  !
 ! R39   R(22,38)                1.085          calculate D2E/DX2 analytically  !
 ! R40   R(23,24)                1.4195         calculate D2E/DX2 analytically  !
 ! R41   R(23,30)                1.4607         calculate D2E/DX2 analytically  !
 ! R42   R(24,25)                1.4058         calculate D2E/DX2 analytically  !
 ! R43   R(24,27)                1.4603         calculate D2E/DX2 analytically  !
 ! R44   R(25,26)                1.3798         calculate D2E/DX2 analytically  !
 ! R45   R(25,41)                1.0849         calculate D2E/DX2 analytically  !
 ! R46   R(26,40)                1.0848         calculate D2E/DX2 analytically  !
 ! R47   R(27,28)                1.3395         calculate D2E/DX2 analytically  !
 ! R48   R(27,42)                1.0858         calculate D2E/DX2 analytically  !
 ! R49   R(28,29)                1.4977         calculate D2E/DX2 analytically  !
 ! R50   R(28,43)                1.0849         calculate D2E/DX2 analytically  !
 ! R51   R(29,30)                1.5105         calculate D2E/DX2 analytically  !
 ! R52   R(29,44)                1.1051         calculate D2E/DX2 analytically  !
 ! R53   R(29,47)                1.0944         calculate D2E/DX2 analytically  !
 ! R54   R(30,45)                1.0827         calculate D2E/DX2 analytically  !
 ! A1    A(2,1,4)              106.2234         calculate D2E/DX2 analytically  !
 ! A2    A(2,1,13)             135.0042         calculate D2E/DX2 analytically  !
 ! A3    A(4,1,13)             117.6709         calculate D2E/DX2 analytically  !
 ! A4    A(1,2,3)              106.2438         calculate D2E/DX2 analytically  !
 ! A5    A(1,2,16)             136.0482         calculate D2E/DX2 analytically  !
 ! A6    A(3,2,16)             117.1675         calculate D2E/DX2 analytically  !
 ! A7    A(2,3,5)              109.5797         calculate D2E/DX2 analytically  !
 ! A8    A(2,3,10)             128.1358         calculate D2E/DX2 analytically  !
 ! A9    A(5,3,10)             121.7302         calculate D2E/DX2 analytically  !
 ! A10   A(1,4,5)              109.6114         calculate D2E/DX2 analytically  !
 ! A11   A(1,4,6)              128.44           calculate D2E/DX2 analytically  !
 ! A12   A(5,4,6)              121.516          calculate D2E/DX2 analytically  !
 ! A13   A(3,5,4)              107.9753         calculate D2E/DX2 analytically  !
 ! A14   A(3,5,9)              125.6725         calculate D2E/DX2 analytically  !
 ! A15   A(4,5,9)              125.6821         calculate D2E/DX2 analytically  !
 ! A16   A(4,6,7)              114.747          calculate D2E/DX2 analytically  !
 ! A17   A(4,6,15)             113.6834         calculate D2E/DX2 analytically  !
 ! A18   A(7,6,15)             131.4629         calculate D2E/DX2 analytically  !
 ! A19   A(6,7,8)              122.8058         calculate D2E/DX2 analytically  !
 ! A20   A(6,7,33)             118.9724         calculate D2E/DX2 analytically  !
 ! A21   A(8,7,33)             118.2019         calculate D2E/DX2 analytically  !
 ! A22   A(7,8,9)              121.5697         calculate D2E/DX2 analytically  !
 ! A23   A(7,8,34)             118.4866         calculate D2E/DX2 analytically  !
 ! A24   A(9,8,34)             119.9159         calculate D2E/DX2 analytically  !
 ! A25   A(5,9,8)              113.5773         calculate D2E/DX2 analytically  !
 ! A26   A(5,9,12)             113.4179         calculate D2E/DX2 analytically  !
 ! A27   A(8,9,12)             132.8821         calculate D2E/DX2 analytically  !
 ! A28   A(3,10,11)            114.3499         calculate D2E/DX2 analytically  !
 ! A29   A(3,10,18)            113.9341         calculate D2E/DX2 analytically  !
 ! A30   A(11,10,18)           131.6877         calculate D2E/DX2 analytically  !
 ! A31   A(10,11,12)           122.8426         calculate D2E/DX2 analytically  !
 ! A32   A(10,11,36)           118.7801         calculate D2E/DX2 analytically  !
 ! A33   A(12,11,36)           118.3532         calculate D2E/DX2 analytically  !
 ! A34   A(9,12,11)            121.7801         calculate D2E/DX2 analytically  !
 ! A35   A(9,12,35)            119.7034         calculate D2E/DX2 analytically  !
 ! A36   A(11,12,35)           118.5044         calculate D2E/DX2 analytically  !
 ! A37   A(1,13,14)            114.7821         calculate D2E/DX2 analytically  !
 ! A38   A(1,13,31)            121.4552         calculate D2E/DX2 analytically  !
 ! A39   A(14,13,31)           115.5954         calculate D2E/DX2 analytically  !
 ! A40   A(13,14,15)           125.0158         calculate D2E/DX2 analytically  !
 ! A41   A(13,14,46)           116.9998         calculate D2E/DX2 analytically  !
 ! A42   A(15,14,46)           117.9753         calculate D2E/DX2 analytically  !
 ! A43   A(6,15,14)            120.3177         calculate D2E/DX2 analytically  !
 ! A44   A(6,15,32)            120.3846         calculate D2E/DX2 analytically  !
 ! A45   A(14,15,32)           119.2763         calculate D2E/DX2 analytically  !
 ! A46   A(2,16,17)            116.0756         calculate D2E/DX2 analytically  !
 ! A47   A(2,16,19)            123.8413         calculate D2E/DX2 analytically  !
 ! A48   A(17,16,19)           120.0774         calculate D2E/DX2 analytically  !
 ! A49   A(16,17,18)           122.7459         calculate D2E/DX2 analytically  !
 ! A50   A(16,17,22)           117.2516         calculate D2E/DX2 analytically  !
 ! A51   A(18,17,22)           119.977          calculate D2E/DX2 analytically  !
 ! A52   A(10,18,17)           120.5908         calculate D2E/DX2 analytically  !
 ! A53   A(10,18,37)           121.1416         calculate D2E/DX2 analytically  !
 ! A54   A(17,18,37)           118.2672         calculate D2E/DX2 analytically  !
 ! A55   A(16,19,20)           117.409          calculate D2E/DX2 analytically  !
 ! A56   A(16,19,23)           123.8814         calculate D2E/DX2 analytically  !
 ! A57   A(20,19,23)           118.7007         calculate D2E/DX2 analytically  !
 ! A58   A(19,20,21)           119.5838         calculate D2E/DX2 analytically  !
 ! A59   A(19,20,26)           119.6702         calculate D2E/DX2 analytically  !
 ! A60   A(21,20,26)           120.7288         calculate D2E/DX2 analytically  !
 ! A61   A(20,21,22)           121.6825         calculate D2E/DX2 analytically  !
 ! A62   A(20,21,39)           117.9293         calculate D2E/DX2 analytically  !
 ! A63   A(22,21,39)           120.3311         calculate D2E/DX2 analytically  !
 ! A64   A(17,22,21)           121.384          calculate D2E/DX2 analytically  !
 ! A65   A(17,22,38)           118.2977         calculate D2E/DX2 analytically  !
 ! A66   A(21,22,38)           120.2613         calculate D2E/DX2 analytically  !
 ! A67   A(19,23,24)           118.3477         calculate D2E/DX2 analytically  !
 ! A68   A(19,23,30)           123.7929         calculate D2E/DX2 analytically  !
 ! A69   A(24,23,30)           117.8099         calculate D2E/DX2 analytically  !
 ! A70   A(23,24,25)           120.2236         calculate D2E/DX2 analytically  !
 ! A71   A(23,24,27)           120.0572         calculate D2E/DX2 analytically  !
 ! A72   A(25,24,27)           119.6925         calculate D2E/DX2 analytically  !
 ! A73   A(24,25,26)           120.6834         calculate D2E/DX2 analytically  !
 ! A74   A(24,25,41)           118.9914         calculate D2E/DX2 analytically  !
 ! A75   A(26,25,41)           120.2196         calculate D2E/DX2 analytically  !
 ! A76   A(20,26,25)           120.5916         calculate D2E/DX2 analytically  !
 ! A77   A(20,26,40)           119.044          calculate D2E/DX2 analytically  !
 ! A78   A(25,26,40)           120.3626         calculate D2E/DX2 analytically  !
 ! A79   A(24,27,28)           122.0355         calculate D2E/DX2 analytically  !
 ! A80   A(24,27,42)           117.2801         calculate D2E/DX2 analytically  !
 ! A81   A(28,27,42)           120.6669         calculate D2E/DX2 analytically  !
 ! A82   A(27,28,29)           120.1208         calculate D2E/DX2 analytically  !
 ! A83   A(27,28,43)           120.9031         calculate D2E/DX2 analytically  !
 ! A84   A(29,28,43)           118.8533         calculate D2E/DX2 analytically  !
 ! A85   A(28,29,30)           113.7379         calculate D2E/DX2 analytically  !
 ! A86   A(28,29,44)           108.1913         calculate D2E/DX2 analytically  !
 ! A87   A(28,29,47)           111.5547         calculate D2E/DX2 analytically  !
 ! A88   A(30,29,44)           107.8159         calculate D2E/DX2 analytically  !
 ! A89   A(30,29,47)           110.3423         calculate D2E/DX2 analytically  !
 ! A90   A(44,29,47)           104.7036         calculate D2E/DX2 analytically  !
 ! A91   A(23,30,29)           118.6186         calculate D2E/DX2 analytically  !
 ! A92   A(23,30,45)           114.6377         calculate D2E/DX2 analytically  !
 ! A93   A(29,30,45)           112.7567         calculate D2E/DX2 analytically  !
 ! D1    D(4,1,2,3)              6.0963         calculate D2E/DX2 analytically  !
 ! D2    D(4,1,2,16)          -164.8111         calculate D2E/DX2 analytically  !
 ! D3    D(13,1,2,3)           173.2702         calculate D2E/DX2 analytically  !
 ! D4    D(13,1,2,16)            2.3628         calculate D2E/DX2 analytically  !
 ! D5    D(2,1,4,5)             -5.4469         calculate D2E/DX2 analytically  !
 ! D6    D(2,1,4,6)            166.9878         calculate D2E/DX2 analytically  !
 ! D7    D(13,1,4,5)          -175.2384         calculate D2E/DX2 analytically  !
 ! D8    D(13,1,4,6)            -2.8037         calculate D2E/DX2 analytically  !
 ! D9    D(2,1,13,14)         -165.5623         calculate D2E/DX2 analytically  !
 ! D10   D(2,1,13,31)           47.2734         calculate D2E/DX2 analytically  !
 ! D11   D(4,1,13,14)            0.5111         calculate D2E/DX2 analytically  !
 ! D12   D(4,1,13,31)         -146.6532         calculate D2E/DX2 analytically  !
 ! D13   D(1,2,3,5)             -4.6495         calculate D2E/DX2 analytically  !
 ! D14   D(1,2,3,10)          -176.1162         calculate D2E/DX2 analytically  !
 ! D15   D(16,2,3,5)           168.2689         calculate D2E/DX2 analytically  !
 ! D16   D(16,2,3,10)           -3.1978         calculate D2E/DX2 analytically  !
 ! D17   D(1,2,16,17)         -178.3302         calculate D2E/DX2 analytically  !
 ! D18   D(1,2,16,19)            0.8021         calculate D2E/DX2 analytically  !
 ! D19   D(3,2,16,17)           11.4888         calculate D2E/DX2 analytically  !
 ! D20   D(3,2,16,19)         -169.3789         calculate D2E/DX2 analytically  !
 ! D21   D(2,3,5,4)              1.3622         calculate D2E/DX2 analytically  !
 ! D22   D(2,3,5,9)           -169.6632         calculate D2E/DX2 analytically  !
 ! D23   D(10,3,5,4)           173.4751         calculate D2E/DX2 analytically  !
 ! D24   D(10,3,5,9)             2.4497         calculate D2E/DX2 analytically  !
 ! D25   D(2,3,10,11)          172.3603         calculate D2E/DX2 analytically  !
 ! D26   D(2,3,10,18)           -5.9331         calculate D2E/DX2 analytically  !
 ! D27   D(5,3,10,11)            1.8211         calculate D2E/DX2 analytically  !
 ! D28   D(5,3,10,18)         -176.4723         calculate D2E/DX2 analytically  !
 ! D29   D(1,4,5,3)              2.6628         calculate D2E/DX2 analytically  !
 ! D30   D(1,4,5,9)            173.6871         calculate D2E/DX2 analytically  !
 ! D31   D(6,4,5,3)           -170.3895         calculate D2E/DX2 analytically  !
 ! D32   D(6,4,5,9)              0.6349         calculate D2E/DX2 analytically  !
 ! D33   D(1,4,6,7)           -174.4834         calculate D2E/DX2 analytically  !
 ! D34   D(1,4,6,15)             2.1974         calculate D2E/DX2 analytically  !
 ! D35   D(5,4,6,7)             -2.8483         calculate D2E/DX2 analytically  !
 ! D36   D(5,4,6,15)           173.8324         calculate D2E/DX2 analytically  !
 ! D37   D(3,5,9,8)            171.6302         calculate D2E/DX2 analytically  !
 ! D38   D(3,5,9,12)            -4.8704         calculate D2E/DX2 analytically  !
 ! D39   D(4,5,9,8)              2.1558         calculate D2E/DX2 analytically  !
 ! D40   D(4,5,9,12)          -174.3448         calculate D2E/DX2 analytically  !
 ! D41   D(4,6,7,8)              2.3292         calculate D2E/DX2 analytically  !
 ! D42   D(4,6,7,33)          -179.3269         calculate D2E/DX2 analytically  !
 ! D43   D(15,6,7,8)          -173.6134         calculate D2E/DX2 analytically  !
 ! D44   D(15,6,7,33)            4.7304         calculate D2E/DX2 analytically  !
 ! D45   D(4,6,15,14)            0.6359         calculate D2E/DX2 analytically  !
 ! D46   D(4,6,15,32)          178.9452         calculate D2E/DX2 analytically  !
 ! D47   D(7,6,15,14)          176.6124         calculate D2E/DX2 analytically  !
 ! D48   D(7,6,15,32)           -5.0784         calculate D2E/DX2 analytically  !
 ! D49   D(6,7,8,9)              0.4457         calculate D2E/DX2 analytically  !
 ! D50   D(6,7,8,34)           178.5262         calculate D2E/DX2 analytically  !
 ! D51   D(33,7,8,9)          -177.9102         calculate D2E/DX2 analytically  !
 ! D52   D(33,7,8,34)            0.1703         calculate D2E/DX2 analytically  !
 ! D53   D(7,8,9,5)             -2.614          calculate D2E/DX2 analytically  !
 ! D54   D(7,8,9,12)           173.0021         calculate D2E/DX2 analytically  !
 ! D55   D(34,8,9,5)           179.3325         calculate D2E/DX2 analytically  !
 ! D56   D(34,8,9,12)           -5.0514         calculate D2E/DX2 analytically  !
 ! D57   D(5,9,12,11)            3.1943         calculate D2E/DX2 analytically  !
 ! D58   D(5,9,12,35)         -178.0849         calculate D2E/DX2 analytically  !
 ! D59   D(8,9,12,11)         -172.4271         calculate D2E/DX2 analytically  !
 ! D60   D(8,9,12,35)            6.2936         calculate D2E/DX2 analytically  !
 ! D61   D(3,10,11,12)          -3.3069         calculate D2E/DX2 analytically  !
 ! D62   D(3,10,11,36)         178.5075         calculate D2E/DX2 analytically  !
 ! D63   D(18,10,11,12)        174.6041         calculate D2E/DX2 analytically  !
 ! D64   D(18,10,11,36)         -3.5814         calculate D2E/DX2 analytically  !
 ! D65   D(3,10,18,17)           5.9771         calculate D2E/DX2 analytically  !
 ! D66   D(3,10,18,37)        -174.2371         calculate D2E/DX2 analytically  !
 ! D67   D(11,10,18,17)       -171.9408         calculate D2E/DX2 analytically  !
 ! D68   D(11,10,18,37)          7.8451         calculate D2E/DX2 analytically  !
 ! D69   D(10,11,12,9)           0.7714         calculate D2E/DX2 analytically  !
 ! D70   D(10,11,12,35)       -177.9642         calculate D2E/DX2 analytically  !
 ! D71   D(36,11,12,9)         178.9643         calculate D2E/DX2 analytically  !
 ! D72   D(36,11,12,35)          0.2287         calculate D2E/DX2 analytically  !
 ! D73   D(1,13,14,15)           2.1541         calculate D2E/DX2 analytically  !
 ! D74   D(1,13,14,46)        -176.7284         calculate D2E/DX2 analytically  !
 ! D75   D(31,13,14,15)        151.2982         calculate D2E/DX2 analytically  !
 ! D76   D(31,13,14,46)        -27.5843         calculate D2E/DX2 analytically  !
 ! D77   D(13,14,15,6)          -2.8112         calculate D2E/DX2 analytically  !
 ! D78   D(13,14,15,32)        178.8609         calculate D2E/DX2 analytically  !
 ! D79   D(46,14,15,6)         176.0613         calculate D2E/DX2 analytically  !
 ! D80   D(46,14,15,32)         -2.2666         calculate D2E/DX2 analytically  !
 ! D81   D(2,16,17,18)         -11.6616         calculate D2E/DX2 analytically  !
 ! D82   D(2,16,17,22)         166.4986         calculate D2E/DX2 analytically  !
 ! D83   D(19,16,17,18)        169.1712         calculate D2E/DX2 analytically  !
 ! D84   D(19,16,17,22)        -12.6686         calculate D2E/DX2 analytically  !
 ! D85   D(2,16,19,20)        -159.7072         calculate D2E/DX2 analytically  !
 ! D86   D(2,16,19,23)          21.3939         calculate D2E/DX2 analytically  !
 ! D87   D(17,16,19,20)         19.3921         calculate D2E/DX2 analytically  !
 ! D88   D(17,16,19,23)       -159.5068         calculate D2E/DX2 analytically  !
 ! D89   D(16,17,18,10)          2.5237         calculate D2E/DX2 analytically  !
 ! D90   D(16,17,18,37)       -177.2682         calculate D2E/DX2 analytically  !
 ! D91   D(22,17,18,10)       -175.588          calculate D2E/DX2 analytically  !
 ! D92   D(22,17,18,37)          4.6201         calculate D2E/DX2 analytically  !
 ! D93   D(16,17,22,21)         -0.6993         calculate D2E/DX2 analytically  !
 ! D94   D(16,17,22,38)       -177.9601         calculate D2E/DX2 analytically  !
 ! D95   D(18,17,22,21)        177.5143         calculate D2E/DX2 analytically  !
 ! D96   D(18,17,22,38)          0.2535         calculate D2E/DX2 analytically  !
 ! D97   D(16,19,20,21)        -13.0606         calculate D2E/DX2 analytically  !
 ! D98   D(16,19,20,26)        168.436          calculate D2E/DX2 analytically  !
 ! D99   D(23,19,20,21)        165.8973         calculate D2E/DX2 analytically  !
 ! D100  D(23,19,20,26)        -12.6062         calculate D2E/DX2 analytically  !
 ! D101  D(16,19,23,24)       -165.7834         calculate D2E/DX2 analytically  !
 ! D102  D(16,19,23,30)         16.8362         calculate D2E/DX2 analytically  !
 ! D103  D(20,19,23,24)         15.331          calculate D2E/DX2 analytically  !
 ! D104  D(20,19,23,30)       -162.0494         calculate D2E/DX2 analytically  !
 ! D105  D(19,20,21,22)          0.0447         calculate D2E/DX2 analytically  !
 ! D106  D(19,20,21,39)       -177.2139         calculate D2E/DX2 analytically  !
 ! D107  D(26,20,21,22)        178.5319         calculate D2E/DX2 analytically  !
 ! D108  D(26,20,21,39)          1.2734         calculate D2E/DX2 analytically  !
 ! D109  D(19,20,26,25)          1.782          calculate D2E/DX2 analytically  !
 ! D110  D(19,20,26,40)       -177.7215         calculate D2E/DX2 analytically  !
 ! D111  D(21,20,26,25)       -176.704          calculate D2E/DX2 analytically  !
 ! D112  D(21,20,26,40)          3.7925         calculate D2E/DX2 analytically  !
 ! D113  D(20,21,22,17)          7.0774         calculate D2E/DX2 analytically  !
 ! D114  D(20,21,22,38)       -175.7149         calculate D2E/DX2 analytically  !
 ! D115  D(39,21,22,17)       -175.729          calculate D2E/DX2 analytically  !
 ! D116  D(39,21,22,38)          1.4787         calculate D2E/DX2 analytically  !
 ! D117  D(19,23,24,25)         -7.5352         calculate D2E/DX2 analytically  !
 ! D118  D(19,23,24,27)        174.3508         calculate D2E/DX2 analytically  !
 ! D119  D(30,23,24,25)        170.0036         calculate D2E/DX2 analytically  !
 ! D120  D(30,23,24,27)         -8.1105         calculate D2E/DX2 analytically  !
 ! D121  D(19,23,30,29)        162.5189         calculate D2E/DX2 analytically  !
 ! D122  D(19,23,30,45)         25.2086         calculate D2E/DX2 analytically  !
 ! D123  D(24,23,30,29)        -14.8746         calculate D2E/DX2 analytically  !
 ! D124  D(24,23,30,45)       -152.1849         calculate D2E/DX2 analytically  !
 ! D125  D(23,24,25,26)         -3.3404         calculate D2E/DX2 analytically  !
 ! D126  D(23,24,25,41)       -179.6125         calculate D2E/DX2 analytically  !
 ! D127  D(27,24,25,26)        174.7806         calculate D2E/DX2 analytically  !
 ! D128  D(27,24,25,41)         -1.4916         calculate D2E/DX2 analytically  !
 ! D129  D(23,24,27,28)         14.9923         calculate D2E/DX2 analytically  !
 ! D130  D(23,24,27,42)       -166.5201         calculate D2E/DX2 analytically  !
 ! D131  D(25,24,27,28)       -163.1318         calculate D2E/DX2 analytically  !
 ! D132  D(25,24,27,42)         15.3558         calculate D2E/DX2 analytically  !
 ! D133  D(24,25,26,20)          6.3422         calculate D2E/DX2 analytically  !
 ! D134  D(24,25,26,40)       -174.161          calculate D2E/DX2 analytically  !
 ! D135  D(41,25,26,20)       -177.4314         calculate D2E/DX2 analytically  !
 ! D136  D(41,25,26,40)          2.0654         calculate D2E/DX2 analytically  !
 ! D137  D(24,27,28,29)          2.6445         calculate D2E/DX2 analytically  !
 ! D138  D(24,27,28,43)        178.5689         calculate D2E/DX2 analytically  !
 ! D139  D(42,27,28,29)       -175.7928         calculate D2E/DX2 analytically  !
 ! D140  D(42,27,28,43)          0.1316         calculate D2E/DX2 analytically  !
 ! D141  D(27,28,29,30)        -24.5211         calculate D2E/DX2 analytically  !
 ! D142  D(27,28,29,44)         95.2365         calculate D2E/DX2 analytically  !
 ! D143  D(27,28,29,47)       -150.1139         calculate D2E/DX2 analytically  !
 ! D144  D(43,28,29,30)        159.4714         calculate D2E/DX2 analytically  !
 ! D145  D(43,28,29,44)        -80.771          calculate D2E/DX2 analytically  !
 ! D146  D(43,28,29,47)         33.8786         calculate D2E/DX2 analytically  !
 ! D147  D(28,29,30,23)         30.5348         calculate D2E/DX2 analytically  !
 ! D148  D(28,29,30,45)        168.5967         calculate D2E/DX2 analytically  !
 ! D149  D(44,29,30,23)        -89.4353         calculate D2E/DX2 analytically  !
 ! D150  D(44,29,30,45)         48.6266         calculate D2E/DX2 analytically  !
 ! D151  D(47,29,30,23)        156.7684         calculate D2E/DX2 analytically  !
 ! D152  D(47,29,30,45)        -65.1697         calculate D2E/DX2 analytically  !
 --------------------------------------------------------------------------------
 Trust Radius=3.00D-01 FncErr=1.00D-07 GrdErr=1.00D-06 EigMax=2.50D+02 EigMin=1.00D-04
 Number of steps in this run=    282 maximum allowed number of steps=    282.
 Search for a saddle point of order  1.
 GradGradGradGradGradGradGradGradGradGradGradGradGradGradGradGradGradGrad

                          Input orientation:                          
 ---------------------------------------------------------------------
 Center     Atomic      Atomic             Coordinates (Angstroms)
 Number     Number       Type             X           Y           Z
 ---------------------------------------------------------------------
      1          6           0        0.700257   -0.836903   -0.631480
      2          6           0        0.489662    0.589720   -0.368394
      3          6           0        1.776094    1.152320   -0.181784
      4          6           0        2.083944   -1.073292   -0.446150
      5          6           0        2.739616    0.138775   -0.210452
      6          6           0        2.744150   -2.288588   -0.335230
      7          6           0        4.145986   -2.186608   -0.027731
      8          6           0        4.784043   -0.967118    0.192449
      9          6           0        4.066445    0.281287    0.133772
     10          6           0        2.099488    2.458969    0.165987
     11          6           0        3.507012    2.672222    0.447910
     12          6           0        4.437836    1.647149    0.441639
     13          6           0       -0.148761   -1.968009   -0.781306
     14          6           0        0.532922   -3.259535   -0.711292
     15          6           0        1.879879   -3.431008   -0.475650
     16          6           0       -0.611930    1.416547   -0.118527
     17          6           0       -0.322725    2.833467    0.054369
     18          6           0        0.987764    3.330657    0.217318
     19          6           0       -1.978927    0.940069   -0.046312
     20          6           0       -3.016714    1.896731   -0.228945
     21          6           0       -2.703422    3.300571   -0.191344
     22          6           0       -1.436889    3.743030    0.013955
     23          6           0       -2.339035   -0.428591    0.219960
     24          6           0       -3.675020   -0.835674   -0.033979
     25          6           0       -4.650722    0.115147   -0.380890
     26          6           0       -4.343412    1.459903   -0.412818
     27          6           0       -4.050560   -2.239998    0.104510
     28          6           0       -3.271441   -3.124417    0.740950
     29          6           0       -1.998542   -2.674722    1.389405
     30          6           0       -1.423067   -1.413603    0.789508
     31          1           0       -1.026751   -1.935905   -1.415386
     32          1           0        2.286088   -4.436442   -0.424425
     33          1           0        4.731739   -3.095946    0.063792
     34          1           0        5.839776   -0.973244    0.443503
     35          1           0        5.466979    1.880472    0.695416
     36          1           0        3.843204    3.672247    0.703081
     37          1           0        1.116473    4.395421    0.385731
     38          1           0       -1.237216    4.805421    0.107193
     39          1           0       -3.521555    4.006557   -0.287586
     40          1           0       -5.120703    2.195991   -0.588328
     41          1           0       -5.667015   -0.217246   -0.564487
     42          1           0       -5.007522   -2.542424   -0.309819
     43          1           0       -3.579168   -4.158654    0.853123
     44          1           0       -2.206100   -2.477268    2.456683
     45          1           0       -0.622458   -0.993883    1.385384
     46          1           0       -0.072072   -4.145614   -0.875679
     47          1           0       -1.247271   -3.470475    1.395122
 ---------------------------------------------------------------------
                    Distance matrix (angstroms):
                    1          2          3          4          5
     1  C    0.000000
     2  C    1.465885   0.000000
     3  C    2.305788   1.416421   0.000000
     4  C    1.415915   2.305079   2.262302   0.000000
     5  C    2.299608   2.300128   1.398739   1.398058   0.000000
     6  C    2.524411   3.656292   3.577782   1.387487   2.430572
     7  C    3.749569   4.603559   4.097385   2.380455   2.723723
     8  C    4.168108   4.602173   3.698625   2.776620   2.359027
     9  C    3.628661   3.625007   2.470624   2.470122   1.378142
    10  C    3.668320   2.524123   1.390273   3.584944   2.436138
    11  C    4.621354   3.756004   2.388031   4.105282   2.727763
    12  C    4.614282   4.166820   2.778198   3.705371   2.363126
    13  C    1.422210   2.668344   3.714963   2.428543   3.620378
    14  C    2.429715   3.864740   4.614143   2.693627   4.082750
    15  C    2.853975   4.255639   4.593912   2.366714   3.681417
    16  C    2.657629   1.399850   2.403430   3.684341   3.588037
    17  C    3.871498   2.423448   2.699456   4.615771   4.087717
    18  C    4.262825   2.846735   2.350723   4.586564   3.666072
    19  C    3.267733   2.514043   3.763454   4.551968   4.788910
    20  C    4.631486   3.744649   4.850503   5.906346   6.018811
    21  C    5.375634   4.192356   4.968011   6.489567   6.294758
    22  C    5.095073   3.714990   4.131991   5.983721   5.521250
    23  C    3.182603   3.063437   4.426620   4.519080   5.128338
    24  C    4.415887   4.414539   5.804189   5.778582   6.490628
    25  C    5.440788   5.162260   6.513013   6.839033   7.392341
    26  C    5.546326   4.910987   6.131585   6.908625   7.208024
    27  C    5.008055   5.370713   6.748310   6.268698   7.201684
    28  C    4.784419   5.401051   6.679785   5.856319   6.905534
    29  C    3.839931   4.465154   5.600247   4.754002   5.738070
    30  C    2.619216   3.002095   4.214499   3.733870   4.553869
    31  H    2.192002   3.126417   4.349120   3.370451   4.465611
    32  H    3.938834   5.337845   5.617226   3.369290   4.602617
    33  H    4.673278   5.636145   5.181111   3.370755   3.808830
    34  H    5.252507   5.632562   4.628447   3.861058   3.357862
    35  H    5.645035   5.250849   3.862942   4.633877   3.360449
    36  H    5.656112   4.679346   3.377271   5.189978   3.812856
    37  H    5.346510   3.930007   3.357808   5.615590   4.594460
    38  H    6.011261   4.580439   4.744333   6.774626   6.139518
    39  H    6.434366   5.269836   6.018550   7.566481   7.359888
    40  H    6.563831   5.839921   6.987155   7.912987   8.133852
    41  H    6.397704   6.212433   7.577733   7.798986   8.421611
    42  H    5.965820   6.327147   7.725605   7.243330   8.198588
    43  H    5.617077   6.371384   7.612904   6.578633   7.715317
    44  H    4.546918   4.965341   5.999440   5.366756   6.198177
    45  H    2.417014   2.611579   3.579840   3.268858   3.890135
    46  H    3.406419   4.795443   5.653787   3.777838   5.167602
    47  H    3.851712   4.755219   5.744354   4.498195   5.612470
                    6          7          8          9         10
     6  C    0.000000
     7  C    1.438784   0.000000
     8  C    2.487145   1.393826   0.000000
     9  C    2.927915   2.474453   1.441147   0.000000
    10  C    4.817272   5.080066   4.352655   2.934665   0.000000
    11  C    5.079853   4.923693   3.865341   2.475524   1.451234
    12  C    4.354552   3.873394   2.648839   1.448548   2.490564
    13  C    2.944603   4.365835   5.126650   4.864634   5.054713
    14  C    2.444113   3.830491   4.913650   5.073198   5.993750
    15  C    1.439377   2.623815   3.866688   4.351276   5.928892
    16  C    5.003824   5.968981   5.907207   4.820753   2.918798
    17  C    5.982722   6.721404   6.367306   5.077868   2.453533
    18  C    5.913215   6.361967   5.734389   4.334041   1.413650
    19  C    5.728451   6.876846   7.030799   6.083827   4.357246
    20  C    7.121499   8.247328   8.320518   7.274089   5.162132
    21  C    7.806116   8.777830   8.626853   7.419762   4.889164
    22  C    7.347342   8.144375   7.804957   6.502669   3.765354
    23  C    5.441194   6.723650   7.143459   6.445272   5.295413
    24  C    6.588433   7.936825   8.463114   7.823428   6.651286
    25  C    7.775870   9.099718   9.513927   8.733927   7.166443
    26  C    8.018151   9.247444   9.463996   8.509618   6.545541
    27  C    6.809098   8.197787   8.926263   8.499618   7.739972
    28  C    6.167991   7.515888   8.357369   8.112463   7.768633
    29  C    5.061284   6.324694   7.095920   6.862847   6.681720
    30  C    4.404127   5.681529   6.251723   5.782507   5.272000
    31  H    3.938377   5.361497   6.106473   5.766843   5.620412
    32  H    2.197966   2.945902   4.319320   5.073285   6.923157
    33  H    2.182099   1.085531   2.133353   3.442850   6.147867
    34  H    3.452456   2.136174   1.085190   2.194193   5.083980
    35  H    5.084987   4.336946   2.971220   2.198711   3.457593
    36  H    6.149599   5.912017   4.761264   3.445658   2.191132
    37  H    6.917015   7.257548   6.499635   5.068719   2.182763
    38  H    8.146900   8.825278   8.341765   6.971177   4.079570
    39  H    8.882014   9.859716   9.692824   8.463624   5.847810
    40  H    9.057120  10.266108  10.426834   9.412290   7.264249
    41  H    8.665490  10.023048  10.505231   9.771200   8.247078
    42  H    7.755869   9.164763   9.930187   9.513516   8.703443
    43  H    6.700275   8.021401   8.975839   8.870510   8.747127
    44  H    5.686418   6.826844   7.501294   7.235355   6.939151
    45  H    3.996351   5.114445   5.536611   5.017809   4.562686
    46  H    3.416392   4.727445   5.901321   6.143596   7.030025
    47  H    4.508039   5.723639   6.640028   6.625881   6.918806
                   11         12         13         14         15
    11  C    0.000000
    12  C    1.384647   0.000000
    13  C    6.033854   5.966727   0.000000
    14  C    6.736075   6.375982   1.462065   0.000000
    15  C    6.383568   5.759535   2.519756   1.378123   0.000000
    16  C    4.343185   5.085971   3.479802   4.850546   5.462183
    17  C    3.853279   4.921409   4.876760   6.200245   6.661534
    18  C    2.614062   3.845454   5.510427   6.670819   6.855377
    19  C    5.774092   6.474018   3.513779   4.938447   5.846454
    20  C    6.604432   7.488811   4.844221   6.278507   7.240324
    21  C    6.274788   7.357448   5.884920   7.333434   8.148720
    22  C    5.077116   6.252042   5.908272   7.310407   7.918806
    23  C    6.621425   7.091108   2.858258   4.138793   5.224712
    24  C    8.007442   8.497591   3.778251   4.903125   6.147173
    25  C    8.589189   9.253403   4.976698   6.194175   7.431887
    26  C    7.989977   8.824708   5.429683   6.792703   7.915448
    27  C    9.020240   9.342186   4.010322   4.765847   6.076611
    28  C    8.923806   9.071405   3.661376   4.074364   5.301906
    29  C    7.732228   7.810492   2.938217   3.341144   4.369502
    30  C    6.412202   6.621133   2.097303   3.079896   4.071855
    31  H    6.727683   6.793271   1.083492   2.163406   3.401020
    32  H    7.265310   6.510773   3.485544   2.130961   1.085600
    33  H    5.909252   4.767190   5.079932   4.272889   2.921707
    34  H    4.327959   2.971851   6.192923   5.892655   4.750393
    35  H    2.128285   1.085347   6.966208   7.262466   6.515405
    36  H    1.085443   2.126725   7.067650   7.810763   7.463262
    37  H    2.947534   4.311331   6.592119   7.755149   7.910610
    38  H    5.212900   6.503288   6.917624   8.297398   8.825800
    39  H    7.191812   8.333695   6.878585   8.331531   9.193924
    40  H    8.702761   9.629524   6.488170   7.857567   8.982425
    41  H    9.671440  10.324547   5.793385   6.907698   8.203156
    42  H   10.013190  10.360116   4.915263   5.601067   6.946465
    43  H    9.850838   9.907019   4.386112   4.490556   5.665360
    44  H    7.949344   8.075463   3.869956   4.260311   5.118928
    45  H    5.601045   5.785523   2.422366   3.296078   3.957868
    46  H    7.813106   7.458599   2.180998   1.085439   2.116789
    47  H    7.825161   7.708414   2.863733   2.765965   3.644230
                   16         17         18         19         20
    16  C    0.000000
    17  C    1.456432   0.000000
    18  C    2.517068   1.411075   0.000000
    19  C    1.449458   2.517558   3.819119   0.000000
    20  C    2.454741   2.866238   4.276814   1.423221   0.000000
    21  C    2.815881   2.438499   3.713861   2.473438   1.438865
    22  C    2.471969   1.438854   2.467863   2.855526   2.442062
    23  C    2.549902   3.838483   5.019915   1.440072   2.463308
    24  C    3.802916   4.970743   6.258036   2.455636   2.817342
    25  C    4.251390   5.129354   6.518426   2.816190   2.422212
    26  C    3.743320   4.274443   5.684912   2.448539   1.408814
    27  C    5.024365   6.295976   7.511966   3.798320   4.276980
    28  C    5.332172   6.683016   7.751322   4.337098   5.120304
    29  C    4.575482   5.910231   6.808553   3.889522   4.955191
    30  C    3.080945   4.448459   5.352337   2.558778   3.812515
    31  H    3.618405   5.040113   5.870321   3.324489   4.478470
    32  H    6.538315   7.738651   7.900969   6.873150   8.262385
    33  H    6.996473   7.791382   7.439230   7.831640   9.222312
    34  H    6.903006   7.253888   6.489741   8.064292   9.334150
    35  H    6.150680   5.902526   4.732334   7.541620   8.533918
    36  H    5.060775   4.298761   2.916537   6.474843   7.147000
    37  H    3.480710   2.149603   1.085657   4.659144   4.868728
    38  H    3.453462   2.174324   2.671627   3.938863   3.426380
    39  H    3.899058   3.424264   4.587562   3.441114   2.170177
    40  H    4.599704   4.882625   6.264974   3.426642   2.155338
    41  H    5.331233   6.184761   7.581881   3.899984   3.406697
    42  H    5.918722   7.140039   8.409186   4.622724   4.865794
    43  H    6.389951   7.754495   8.794936   5.419108   6.176966
    44  H    4.933040   6.125530   6.996250   4.242026   5.196303
    45  H    2.841132   4.063256   4.760130   2.762233   4.085850
    46  H    5.639358   7.045239   7.629713   5.494371   6.752712
    47  H    5.155364   6.510921   7.255205   4.697441   5.880087
                   21         22         23         24         25
    21  C    0.000000
    22  C    1.357212   0.000000
    23  C    3.769429   4.273023   0.000000
    24  C    4.251740   5.096671   1.419527   0.000000
    25  C    3.738293   4.862732   2.449606   1.405846   0.000000
    26  C    2.475212   3.720575   2.825658   2.420731   1.379793
    27  C    5.709660   6.529632   2.494763   1.460252   2.478410
    28  C    6.517077   7.145343   2.899705   2.449844   3.695364
    29  C    6.220912   6.587477   2.555121   2.866827   4.236906
    30  C    4.982451   5.214646   1.460695   2.466460   3.758280
    31  H    5.632955   5.870395   2.582333   3.183099   4.290706
    32  H    9.209284   8.997583   6.153850   6.975155   8.296878
    33  H    9.811327   9.210106   7.558771   8.705859   9.926703
    34  H    9.573649   8.682028   8.199974   9.527762  10.578978
    35  H    8.340172   7.183099   8.154243   9.564811  10.326794
    36  H    6.617889   5.325344   7.434404   8.797062   9.272256
    37  H    4.015384   2.661482   5.936254   7.106259   7.222810
    38  H    2.122135   1.085006   5.349916   6.146932   5.821419
    39  H    1.084906   2.122783   4.618062   4.851296   4.052998
    40  H    2.687181   4.040614   3.908892   3.404158   2.143321
    41  H    4.614884   5.823431   3.425708   2.152193   1.084917
    42  H    6.281998   7.236103   3.445255   2.182807   2.682357
    43  H    7.582736   8.229834   3.981482   3.440688   4.575630
    44  H    6.375171   6.726865   3.036063   3.325049   4.555065
    45  H    5.025815   4.998246   2.150443   3.370127   4.536142
    46  H    7.927042   8.055115   4.489522   4.964413   6.273989
    47  H    7.105231   7.346988   3.438897   3.857262   5.253036
                   26         27         28         29         30
    26  C    0.000000
    27  C    3.747353   0.000000
    28  C    4.847297   1.339507   0.000000
    29  C    5.083458   2.459821   1.497662   0.000000
    30  C    4.269782   2.838287   2.519073   1.510453   0.000000
    31  H    4.851484   3.397937   3.331813   3.058935   2.300309
    32  H    8.872276   6.727351   5.828005   4.975107   4.936499
    33  H   10.165691   8.824006   8.031827   6.872508   6.421727
    34  H   10.504799   9.976890   9.366445   8.076446   7.284403
    35  H    9.881742  10.388022  10.070301   8.772994   7.637573
    36  H    8.553384   9.880508   9.839423   8.653384   7.321677
    37  H    6.250223   8.414636   8.713664   7.790867   6.352721
    38  H    4.594710   7.586359   8.211093   7.627334   6.259102
    39  H    2.678914   6.281165   7.209108   7.054882   5.911169
    40  H    1.084809   4.615542   5.787356   6.114177   5.347907
    41  H    2.141905   2.674324   3.986801   4.828517   4.612555
    42  H    4.058358   1.085775   2.111115   3.458153   3.915492
    43  H    5.809893   2.112788   1.084862   2.233390   3.491149
    44  H    5.320099   2.998508   2.120729   1.105057   2.126969
    45  H    4.806256   3.865918   3.459997   2.172290   1.082685
    46  H    7.062606   4.518906   3.727237   3.317441   3.473027
    47  H    6.096176   3.322376   2.155217   1.094378   2.151370
                   31         32         33         34         35
    31  H    0.000000
    32  H    4.267270   0.000000
    33  H    6.057547   2.831341   0.000000
    34  H    7.178536   5.037434   2.424415   0.000000
    35  H    7.822324   7.160692   5.069937   2.888967   0.000000
    36  H    7.723712   8.333470   6.856137   5.063029   2.418090
    37  H    6.922653   8.945734   8.324324   7.150909   5.034657
    38  H    6.914334   9.904964   9.902621   9.142751   7.338090
    39  H    6.542846  10.248496  10.894305  10.628614   9.288718
    40  H    5.875120   9.943671  11.202699  11.456039  10.669890
    41  H    5.020943   9.004059  10.808133  11.575570  11.399719
    42  H    4.175725   7.536391   9.762130  10.986068  11.414363
    43  H    4.074503   6.009203   8.415674   9.951439  10.877899
    44  H    4.083731   5.684971   7.364937   8.429182   8.998228
    45  H    2.982477   4.856569   5.901923   6.530546   6.768989
    46  H    2.466883   2.418497   5.006097   6.837698   8.334455
    47  H    3.209749   4.090045   6.136878   7.574165   8.614138
                   36         37         38         39         40
    36  H    0.000000
    37  H    2.838794   0.000000
    38  H    5.239259   2.405314   0.000000
    39  H    7.438606   4.702752   2.451987   0.000000
    40  H    9.175985   6.684957   4.730153   2.434311   0.000000
    41  H   10.352736   8.258046   6.730636   4.745544   2.474417
    42  H   10.862019   9.280129   8.269216   6.715485   4.747942
    43  H   10.790604   9.769324   9.294934   8.244708   6.695941
    44  H    8.802598   7.909626   7.713391   7.162501   6.293358
    45  H    6.494647   5.750460   5.970228   6.017308   5.857051
    46  H    8.884865   8.715106   9.079902   8.871453   8.110931
    47  H    8.798314   8.275172   8.375519   7.994366   7.144675
                   41         42         43         44         45
    41  H    0.000000
    42  H    2.430276   0.000000
    43  H    4.680109   2.450475   0.000000
    44  H    5.119873   3.937733   2.698848   0.000000
    45  H    5.463764   4.949796   4.363624   2.419925   0.000000
    46  H    6.843413   5.220065   3.910070   4.294426   3.917747
    47  H    5.827324   4.231736   2.491003   1.741472   2.554211
                   46         47
    46  H    0.000000
    47  H    2.644512   0.000000
 Stoichiometry    C30H17(2)
 Framework group  C1[X(C30H17)]
 Deg. of freedom   135
 Full point group                 C1      NOp   1
 Largest Abelian subgroup         C1      NOp   1
 Largest concise Abelian subgroup C1      NOp   1
                         Standard orientation:                         
 ---------------------------------------------------------------------
 Center     Atomic      Atomic             Coordinates (Angstroms)
 Number     Number       Type             X           Y           Z
 ---------------------------------------------------------------------
      1          6           0        0.700257   -0.836903   -0.631480
      2          6           0        0.489662    0.589720   -0.368394
      3          6           0        1.776094    1.152320   -0.181784
      4          6           0        2.083944   -1.073292   -0.446150
      5          6           0        2.739616    0.138775   -0.210452
      6          6           0        2.744150   -2.288588   -0.335230
      7          6           0        4.145986   -2.186608   -0.027731
      8          6           0        4.784043   -0.967118    0.192449
      9          6           0        4.066445    0.281287    0.133772
     10          6           0        2.099488    2.458969    0.165987
     11          6           0        3.507012    2.672222    0.447910
     12          6           0        4.437836    1.647149    0.441639
     13          6           0       -0.148761   -1.968009   -0.781306
     14          6           0        0.532922   -3.259535   -0.711292
     15          6           0        1.879879   -3.431008   -0.475650
     16          6           0       -0.611930    1.416547   -0.118527
     17          6           0       -0.322725    2.833467    0.054369
     18          6           0        0.987764    3.330657    0.217318
     19          6           0       -1.978927    0.940069   -0.046312
     20          6           0       -3.016714    1.896731   -0.228945
     21          6           0       -2.703422    3.300571   -0.191344
     22          6           0       -1.436889    3.743030    0.013955
     23          6           0       -2.339035   -0.428591    0.219960
     24          6           0       -3.675020   -0.835674   -0.033979
     25          6           0       -4.650722    0.115147   -0.380890
     26          6           0       -4.343412    1.459903   -0.412818
     27          6           0       -4.050560   -2.239998    0.104510
     28          6           0       -3.271441   -3.124417    0.740950
     29          6           0       -1.998542   -2.674722    1.389405
     30          6           0       -1.423067   -1.413603    0.789508
     31          1           0       -1.026751   -1.935905   -1.415386
     32          1           0        2.286088   -4.436442   -0.424425
     33          1           0        4.731739   -3.095946    0.063792
     34          1           0        5.839776   -0.973244    0.443503
     35          1           0        5.466979    1.880472    0.695416
     36          1           0        3.843204    3.672247    0.703081
     37          1           0        1.116473    4.395421    0.385731
     38          1           0       -1.237216    4.805421    0.107193
     39          1           0       -3.521555    4.006557   -0.287586
     40          1           0       -5.120703    2.195991   -0.588328
     41          1           0       -5.667015   -0.217246   -0.564487
     42          1           0       -5.007522   -2.542424   -0.309819
     43          1           0       -3.579168   -4.158654    0.853123
     44          1           0       -2.206100   -2.477268    2.456683
     45          1           0       -0.622458   -0.993883    1.385384
     46          1           0       -0.072072   -4.145614   -0.875679
     47          1           0       -1.247271   -3.470475    1.395122
 ---------------------------------------------------------------------
 Rotational constants (GHZ):           0.2690148           0.1600060           0.1041503
 Standard basis: 6-311+G(d,p) (5D, 7F)
 There are   792 symmetry adapted cartesian basis functions of A   symmetry.
 There are   762 symmetry adapted basis functions of A   symmetry.
   762 basis functions,  1216 primitive gaussians,   792 cartesian basis functions
    99 alpha electrons       98 beta electrons
       nuclear repulsion energy      2653.8010346944 Hartrees.
 NAtoms=   47 NActive=   47 NUniq=   47 SFac= 1.00D+00 NAtFMM=   60 NAOKFM=F Big=F
 Integral buffers will be    131072 words long.
 Raffenetti 2 integral format.
 Two-electron integral symmetry is turned on.
 One-electron integrals computed using PRISM.
 NBasis=   762 RedAO= T EigKep=  1.15D-06  NBF=   762
 NBsUse=   742 1.00D-06 EigRej=  9.53D-07 NBFU=   742
 ExpMin= 4.38D-02 ExpMax= 4.56D+03 ExpMxC= 6.82D+02 IAcc=2 IRadAn=         4 AccDes= 0.00D+00
 Harris functional with IExCor=  402 and IRadAn=       4 diagonalized for initial guess.
 HarFok:  IExCor=  402 AccDes= 0.00D+00 IRadAn=         4 IDoV= 1 UseB2=F ITyADJ=14
 ICtDFT=  3500011 ScaDFX=  1.000000  1.000000  1.000000  1.000000
 FoFCou: FMM=F IPFlag=           0 FMFlag=      100000 FMFlg1=           0
         NFxFlg=           0 DoJE=T BraDBF=F KetDBF=T FulRan=T
         wScrn=  0.000000 ICntrl=       500 IOpCl=  0 I1Cent=   200000004 NGrid=           0
         NMat0=    1 NMatS0=      1 NMatT0=    0 NMatD0=    1 NMtDS0=    0 NMtDT0=    0
 Petite list used in FoFCou.
 Initial guess <Sx>= 0.0000 <Sy>= 0.0000 <Sz>= 0.5000 <S**2>= 0.7500 S= 0.5000
 Requested convergence on RMS density matrix=1.00D-08 within 128 cycles.
 Requested convergence on MAX density matrix=1.00D-06.
 Requested convergence on             energy=1.00D-06.
 No special actions if energy rises.
 Restarting incremental Fock formation.
 SCF Done:  E(UB3LYP) =  -1153.65495511     A.U. after   24 cycles
            NFock= 24  Conv=0.79D-08     -V/T= 2.0045
 <Sx>= 0.0000 <Sy>= 0.0000 <Sz>= 0.5000 <S**2>= 0.7768 S= 0.5133
 <L.S>=  0.00000000000    
 Annihilation of the first spin contaminant:
 S**2 before annihilation     0.7768,   after     0.7506
 DoSCS=F DFT=T ScalE2(SS,OS)=  1.000000  1.000000
 Range of M.O.s used for correlation:     1   742
 NBasis=   762 NAE=    99 NBE=    98 NFC=     0 NFV=     0
 NROrb=    742 NOA=    99 NOB=    98 NVA=   643 NVB=   644

 **** Warning!!: The largest alpha MO coefficient is  0.11371189D+03


 **** Warning!!: The smallest alpha delta epsilon is  0.88395208D-01


 **** Warning!!: The largest beta MO coefficient is  0.11921558D+03


 **** Warning!!: The smallest beta delta epsilon is  0.87908189D-01

 Symmetrizing basis deriv contribution to polar:
 IMax=3 JMax=2 DiffMx= 0.00D+00
 G2DrvN: will do    48 centers at a time, making    1 passes.
 Calling FoFCou, ICntrl=  3107 FMM=F I1Cent=   0 AccDes= 0.00D+00.
 End of G2Drv F.D. properties file   721 does not exist.
 End of G2Drv F.D. properties file   722 does not exist.
 End of G2Drv F.D. properties file   788 does not exist.
          IDoAtm=11111111111111111111111111111111111111111111111
          Differentiating once with respect to nuclear coordinates.
 CalDSu exits because no D1Ps are significant.
          There are   144 degrees of freedom in the 1st order CPHF.  IDoFFX=6 NUNeed=     0.
    138 vectors produced by pass  0 Test12= 1.27D-13 1.00D-09 XBig12= 5.79D-01 2.04D-01.
 AX will form   138 AO Fock derivatives at one time.
    138 vectors produced by pass  1 Test12= 1.27D-13 1.00D-09 XBig12= 1.39D-01 6.22D-02.
    138 vectors produced by pass  2 Test12= 1.27D-13 1.00D-09 XBig12= 3.21D-03 7.50D-03.
    138 vectors produced by pass  3 Test12= 1.27D-13 1.00D-09 XBig12= 5.10D-05 8.41D-04.
    138 vectors produced by pass  4 Test12= 1.27D-13 1.00D-09 XBig12= 4.03D-07 5.31D-05.
    138 vectors produced by pass  5 Test12= 1.27D-13 1.00D-09 XBig12= 2.32D-09 2.99D-06.
    137 vectors produced by pass  6 Test12= 1.27D-13 1.00D-09 XBig12= 1.28D-10 6.66D-07.
    119 vectors produced by pass  7 Test12= 1.27D-13 1.00D-09 XBig12= 2.85D-11 2.64D-07.
     88 vectors produced by pass  8 Test12= 1.27D-13 1.00D-09 XBig12= 3.54D-12 6.80D-08.
     45 vectors produced by pass  9 Test12= 1.27D-13 1.00D-09 XBig12= 8.05D-14 1.20D-08.
      2 vectors produced by pass 10 Test12= 1.27D-13 1.00D-09 XBig12= 9.52D-16 1.49D-09.
      2 vectors produced by pass 11 Test12= 1.27D-13 1.00D-09 XBig12= 1.36D-15 1.86D-09.
      2 vectors produced by pass 12 Test12= 1.27D-13 1.00D-09 XBig12= 6.20D-16 1.31D-09.
      1 vectors produced by pass 13 Test12= 1.27D-13 1.00D-09 XBig12= 5.60D-16 1.10D-09.
 InvSVY:  IOpt=1 It=  1 EMax= 1.11D-15
 Solved reduced A of dimension  1224 with   144 vectors.
 End of Minotr F.D. properties file   721 does not exist.
 End of Minotr F.D. properties file   722 does not exist.
 End of Minotr F.D. properties file   788 does not exist.

 **********************************************************************

            Population analysis using the SCF Density.

 **********************************************************************

 Orbital symmetries:
 Alpha Orbitals:
       Occupied  (A) (A) (A) (A) (A) (A) (A) (A) (A) (A) (A) (A)
                 (A) (A) (A) (A) (A) (A) (A) (A) (A) (A) (A) (A)
                 (A) (A) (A) (A) (A) (A) (A) (A) (A) (A) (A) (A)
                 (A) (A) (A) (A) (A) (A) (A) (A) (A) (A) (A) (A)
                 (A) (A) (A) (A) (A) (A) (A) (A) (A) (A) (A) (A)
                 (A) (A) (A) (A) (A) (A) (A) (A) (A) (A) (A) (A)
                 (A) (A) (A) (A) (A) (A) (A) (A) (A) (A) (A) (A)
                 (A) (A) (A) (A) (A) (A) (A) (A) (A) (A) (A) (A)
                 (A) (A) (A)
       Virtual   (A) (A) (A) (A) (A) (A) (A) (A) (A) (A) (A) (A)
                 (A) (A) (A) (A) (A) (A) (A) (A) (A) (A) (A) (A)
                 (A) (A) (A) (A) (A) (A) (A) (A) (A) (A) (A) (A)
                 (A) (A) (A) (A) (A) (A) (A) (A) (A) (A) (A) (A)
                 (A) (A) (A) (A) (A) (A) (A) (A) (A) (A) (A) (A)
                 (A) (A) (A) (A) (A) (A) (A) (A) (A) (A) (A) (A)
                 (A) (A) (A) (A) (A) (A) (A) (A) (A) (A) (A) (A)
                 (A) (A) (A) (A) (A) (A) (A) (A) (A) (A) (A) (A)
                 (A) (A) (A) (A) (A) (A) (A) (A) (A) (A) (A) (A)
                 (A) (A) (A) (A) (A) (A) (A) (A) (A) (A) (A) (A)
                 (A) (A) (A) (A) (A) (A) (A) (A) (A) (A) (A) (A)
                 (A) (A) (A) (A) (A) (A) (A) (A) (A) (A) (A) (A)
                 (A) (A) (A) (A) (A) (A) (A) (A) (A) (A) (A) (A)
                 (A) (A) (A) (A) (A) (A) (A) (A) (A) (A) (A) (A)
                 (A) (A) (A) (A) (A) (A) (A) (A) (A) (A) (A) (A)
                 (A) (A) (A) (A) (A) (A) (A) (A) (A) (A) (A) (A)
                 (A) (A) (A) (A) (A) (A) (A) (A) (A) (A) (A) (A)
                 (A) (A) (A) (A) (A) (A) (A) (A) (A) (A) (A) (A)
                 (A) (A) (A) (A) (A) (A) (A) (A) (A) (A) (A) (A)
                 (A) (A) (A) (A) (A) (A) (A) (A) (A) (A) (A) (A)
                 (A) (A) (A) (A) (A) (A) (A) (A) (A) (A) (A) (A)
                 (A) (A) (A) (A) (A) (A) (A) (A) (A) (A) (A) (A)
                 (A) (A) (A) (A) (A) (A) (A) (A) (A) (A) (A) (A)
                 (A) (A) (A) (A) (A) (A) (A) (A) (A) (A) (A) (A)
                 (A) (A) (A) (A) (A) (A) (A) (A) (A) (A) (A) (A)
                 (A) (A) (A) (A) (A) (A) (A) (A) (A) (A) (A) (A)
                 (A) (A) (A) (A) (A) (A) (A) (A) (A) (A) (A) (A)
                 (A) (A) (A) (A) (A) (A) (A) (A) (A) (A) (A) (A)
                 (A) (A) (A) (A) (A) (A) (A) (A) (A) (A) (A) (A)
                 (A) (A) (A) (A) (A) (A) (A) (A) (A) (A) (A) (A)
                 (A) (A) (A) (A) (A) (A) (A) (A) (A) (A) (A) (A)
                 (A) (A) (A) (A) (A) (A) (A) (A) (A) (A) (A) (A)
                 (A) (A) (A) (A) (A) (A) (A) (A) (A) (A) (A) (A)
                 (A) (A) (A) (A) (A) (A) (A) (A) (A) (A) (A) (A)
                 (A) (A) (A) (A) (A) (A) (A) (A) (A) (A) (A) (A)
                 (A) (A) (A) (A) (A) (A) (A) (A) (A) (A) (A) (A)
                 (A) (A) (A) (A) (A) (A) (A) (A) (A) (A) (A) (A)
                 (A) (A) (A) (A) (A) (A) (A) (A) (A) (A) (A) (A)
                 (A) (A) (A) (A) (A) (A) (A) (A) (A) (A) (A) (A)
                 (A) (A) (A) (A) (A) (A) (A) (A) (A) (A) (A) (A)
                 (A) (A) (A) (A) (A) (A) (A) (A) (A) (A) (A) (A)
                 (A) (A) (A) (A) (A) (A) (A) (A) (A) (A) (A) (A)
                 (A) (A) (A) (A) (A) (A) (A) (A) (A) (A) (A) (A)
                 (A) (A) (A) (A) (A) (A) (A) (A) (A) (A) (A) (A)
                 (A) (A) (A) (A) (A) (A) (A) (A) (A) (A) (A) (A)
                 (A) (A) (A) (A) (A) (A) (A) (A) (A) (A) (A) (A)
                 (A) (A) (A) (A) (A) (A) (A) (A) (A) (A) (A) (A)
                 (A) (A) (A) (A) (A) (A) (A) (A) (A) (A) (A) (A)
                 (A) (A) (A) (A) (A) (A) (A) (A) (A) (A) (A) (A)
                 (A) (A) (A) (A) (A) (A) (A) (A) (A) (A) (A) (A)
                 (A) (A) (A) (A) (A) (A) (A) (A) (A) (A) (A) (A)
                 (A) (A) (A) (A) (A) (A) (A) (A) (A) (A) (A) (A)
                 (A) (A) (A) (A) (A) (A) (A) (A) (A) (A) (A) (A)
                 (A) (A) (A) (A) (A) (A) (A)
 Beta  Orbitals:
       Occupied  (A) (A) (A) (A) (A) (A) (A) (A) (A) (A) (A) (A)
                 (A) (A) (A) (A) (A) (A) (A) (A) (A) (A) (A) (A)
                 (A) (A) (A) (A) (A) (A) (A) (A) (A) (A) (A) (A)
                 (A) (A) (A) (A) (A) (A) (A) (A) (A) (A) (A) (A)
                 (A) (A) (A) (A) (A) (A) (A) (A) (A) (A) (A) (A)
                 (A) (A) (A) (A) (A) (A) (A) (A) (A) (A) (A) (A)
                 (A) (A) (A) (A) (A) (A) (A) (A) (A) (A) (A) (A)
                 (A) (A) (A) (A) (A) (A) (A) (A) (A) (A) (A) (A)
                 (A) (A)
       Virtual   (A) (A) (A) (A) (A) (A) (A) (A) (A) (A) (A) (A)
                 (A) (A) (A) (A) (A) (A) (A) (A) (A) (A) (A) (A)
                 (A) (A) (A) (A) (A) (A) (A) (A) (A) (A) (A) (A)
                 (A) (A) (A) (A) (A) (A) (A) (A) (A) (A) (A) (A)
                 (A) (A) (A) (A) (A) (A) (A) (A) (A) (A) (A) (A)
                 (A) (A) (A) (A) (A) (A) (A) (A) (A) (A) (A) (A)
                 (A) (A) (A) (A) (A) (A) (A) (A) (A) (A) (A) (A)
                 (A) (A) (A) (A) (A) (A) (A) (A) (A) (A) (A) (A)
                 (A) (A) (A) (A) (A) (A) (A) (A) (A) (A) (A) (A)
                 (A) (A) (A) (A) (A) (A) (A) (A) (A) (A) (A) (A)
                 (A) (A) (A) (A) (A) (A) (A) (A) (A) (A) (A) (A)
                 (A) (A) (A) (A) (A) (A) (A) (A) (A) (A) (A) (A)
                 (A) (A) (A) (A) (A) (A) (A) (A) (A) (A) (A) (A)
                 (A) (A) (A) (A) (A) (A) (A) (A) (A) (A) (A) (A)
                 (A) (A) (A) (A) (A) (A) (A) (A) (A) (A) (A) (A)
                 (A) (A) (A) (A) (A) (A) (A) (A) (A) (A) (A) (A)
                 (A) (A) (A) (A) (A) (A) (A) (A) (A) (A) (A) (A)
                 (A) (A) (A) (A) (A) (A) (A) (A) (A) (A) (A) (A)
                 (A) (A) (A) (A) (A) (A) (A) (A) (A) (A) (A) (A)
                 (A) (A) (A) (A) (A) (A) (A) (A) (A) (A) (A) (A)
                 (A) (A) (A) (A) (A) (A) (A) (A) (A) (A) (A) (A)
                 (A) (A) (A) (A) (A) (A) (A) (A) (A) (A) (A) (A)
                 (A) (A) (A) (A) (A) (A) (A) (A) (A) (A) (A) (A)
                 (A) (A) (A) (A) (A) (A) (A) (A) (A) (A) (A) (A)
                 (A) (A) (A) (A) (A) (A) (A) (A) (A) (A) (A) (A)
                 (A) (A) (A) (A) (A) (A) (A) (A) (A) (A) (A) (A)
                 (A) (A) (A) (A) (A) (A) (A) (A) (A) (A) (A) (A)
                 (A) (A) (A) (A) (A) (A) (A) (A) (A) (A) (A) (A)
                 (A) (A) (A) (A) (A) (A) (A) (A) (A) (A) (A) (A)
                 (A) (A) (A) (A) (A) (A) (A) (A) (A) (A) (A) (A)
                 (A) (A) (A) (A) (A) (A) (A) (A) (A) (A) (A) (A)
                 (A) (A) (A) (A) (A) (A) (A) (A) (A) (A) (A) (A)
                 (A) (A) (A) (A) (A) (A) (A) (A) (A) (A) (A) (A)
                 (A) (A) (A) (A) (A) (A) (A) (A) (A) (A) (A) (A)
                 (A) (A) (A) (A) (A) (A) (A) (A) (A) (A) (A) (A)
                 (A) (A) (A) (A) (A) (A) (A) (A) (A) (A) (A) (A)
                 (A) (A) (A) (A) (A) (A) (A) (A) (A) (A) (A) (A)
                 (A) (A) (A) (A) (A) (A) (A) (A) (A) (A) (A) (A)
                 (A) (A) (A) (A) (A) (A) (A) (A) (A) (A) (A) (A)
                 (A) (A) (A) (A) (A) (A) (A) (A) (A) (A) (A) (A)
                 (A) (A) (A) (A) (A) (A) (A) (A) (A) (A) (A) (A)
                 (A) (A) (A) (A) (A) (A) (A) (A) (A) (A) (A) (A)
                 (A) (A) (A) (A) (A) (A) (A) (A) (A) (A) (A) (A)
                 (A) (A) (A) (A) (A) (A) (A) (A) (A) (A) (A) (A)
                 (A) (A) (A) (A) (A) (A) (A) (A) (A) (A) (A) (A)
                 (A) (A) (A) (A) (A) (A) (A) (A) (A) (A) (A) (A)
                 (A) (A) (A) (A) (A) (A) (A) (A) (A) (A) (A) (A)
                 (A) (A) (A) (A) (A) (A) (A) (A) (A) (A) (A) (A)
                 (A) (A) (A) (A) (A) (A) (A) (A) (A) (A) (A) (A)
                 (A) (A) (A) (A) (A) (A) (A) (A) (A) (A) (A) (A)
                 (A) (A) (A) (A) (A) (A) (A) (A) (A) (A) (A) (A)
                 (A) (A) (A) (A) (A) (A) (A) (A) (A) (A) (A) (A)
                 (A) (A) (A) (A) (A) (A) (A) (A) (A) (A) (A) (A)
                 (A) (A) (A) (A) (A) (A) (A) (A)
 The electronic state is 2-A.
 Alpha  occ. eigenvalues --  -10.20684 -10.19571 -10.19518 -10.19499 -10.19488
 Alpha  occ. eigenvalues --  -10.19441 -10.19359 -10.19170 -10.18975 -10.18955
 Alpha  occ. eigenvalues --  -10.18855 -10.18769 -10.18741 -10.18725 -10.18721
 Alpha  occ. eigenvalues --  -10.18665 -10.18631 -10.18600 -10.18592 -10.18590
 Alpha  occ. eigenvalues --  -10.18484 -10.18360 -10.18279 -10.18166 -10.18104
 Alpha  occ. eigenvalues --  -10.18053 -10.17930 -10.16580 -10.16400 -10.16157
 Alpha  occ. eigenvalues --   -0.91774  -0.89142  -0.86854  -0.84963  -0.84219
 Alpha  occ. eigenvalues --   -0.82021  -0.80549  -0.79352  -0.78730  -0.75815
 Alpha  occ. eigenvalues --   -0.75018  -0.74552  -0.72543  -0.71915  -0.70932
 Alpha  occ. eigenvalues --   -0.66355  -0.65084  -0.64116  -0.62727  -0.62381
 Alpha  occ. eigenvalues --   -0.60663  -0.59799  -0.58291  -0.56231  -0.54771
 Alpha  occ. eigenvalues --   -0.53258  -0.53075  -0.51084  -0.50507  -0.49801
 Alpha  occ. eigenvalues --   -0.49538  -0.47760  -0.46962  -0.46751  -0.45599
 Alpha  occ. eigenvalues --   -0.44295  -0.44031  -0.43914  -0.43559  -0.43180
 Alpha  occ. eigenvalues --   -0.42881  -0.42436  -0.41809  -0.41248  -0.40577
 Alpha  occ. eigenvalues --   -0.40273  -0.39911  -0.39585  -0.39019  -0.37464
 Alpha  occ. eigenvalues --   -0.37147  -0.36369  -0.35854  -0.35144  -0.34488
 Alpha  occ. eigenvalues --   -0.34039  -0.33505  -0.32979  -0.32644  -0.31957
 Alpha  occ. eigenvalues --   -0.31375  -0.29312  -0.28019  -0.26618  -0.24118
 Alpha  occ. eigenvalues --   -0.23291  -0.21732  -0.20792  -0.17087
 Alpha virt. eigenvalues --   -0.08247  -0.05956  -0.04313  -0.01890  -0.00626
 Alpha virt. eigenvalues --   -0.00303   0.00293   0.00590   0.00791   0.01530
 Alpha virt. eigenvalues --    0.01704   0.01809   0.01880   0.02458   0.02825
 Alpha virt. eigenvalues --    0.02964   0.03215   0.03974   0.04413   0.04725
 Alpha virt. eigenvalues --    0.04829   0.04992   0.05153   0.05636   0.06430
 Alpha virt. eigenvalues --    0.06646   0.06977   0.07319   0.07745   0.07778
 Alpha virt. eigenvalues --    0.08154   0.08714   0.08980   0.09273   0.09666
 Alpha virt. eigenvalues --    0.09937   0.09999   0.10390   0.10964   0.11385
 Alpha virt. eigenvalues --    0.11577   0.11690   0.11911   0.12541   0.12687
 Alpha virt. eigenvalues --    0.12766   0.13043   0.13832   0.13876   0.14544
 Alpha virt. eigenvalues --    0.14904   0.15255   0.15370   0.15616   0.15950
 Alpha virt. eigenvalues --    0.16144   0.16344   0.16458   0.16673   0.16958
 Alpha virt. eigenvalues --    0.17181   0.17411   0.17634   0.17676   0.18124
 Alpha virt. eigenvalues --    0.18313   0.18373   0.18431   0.18807   0.19059
 Alpha virt. eigenvalues --    0.19087   0.19321   0.19661   0.19752   0.19993
 Alpha virt. eigenvalues --    0.20228   0.20425   0.20495   0.20713   0.20996
 Alpha virt. eigenvalues --    0.21208   0.21552   0.21655   0.22156   0.22261
 Alpha virt. eigenvalues --    0.22438   0.22529   0.22680   0.23044   0.23134
 Alpha virt. eigenvalues --    0.23477   0.23653   0.24061   0.24135   0.24359
 Alpha virt. eigenvalues --    0.24467   0.24692   0.24753   0.25041   0.25092
 Alpha virt. eigenvalues --    0.25259   0.25886   0.26096   0.26164   0.26703
 Alpha virt. eigenvalues --    0.26883   0.27196   0.27456   0.27924   0.27968
 Alpha virt. eigenvalues --    0.28184   0.28334   0.28557   0.28930   0.29082
 Alpha virt. eigenvalues --    0.29164   0.29594   0.29829   0.30132   0.30504
 Alpha virt. eigenvalues --    0.30783   0.31067   0.31154   0.31249   0.31889
 Alpha virt. eigenvalues --    0.32160   0.32493   0.32740   0.32992   0.33549
 Alpha virt. eigenvalues --    0.33688   0.33906   0.34156   0.34923   0.35051
 Alpha virt. eigenvalues --    0.35613   0.35952   0.36341   0.36453   0.37343
 Alpha virt. eigenvalues --    0.37450   0.37897   0.39180   0.39437   0.39465
 Alpha virt. eigenvalues --    0.39920   0.40259   0.40504   0.41062   0.41821
 Alpha virt. eigenvalues --    0.42721   0.42885   0.43682   0.44151   0.45347
 Alpha virt. eigenvalues --    0.45713   0.46010   0.47070   0.47376   0.47709
 Alpha virt. eigenvalues --    0.48634   0.49403   0.50220   0.50468   0.50917
 Alpha virt. eigenvalues --    0.51530   0.52171   0.52727   0.53683   0.53837
 Alpha virt. eigenvalues --    0.53979   0.54651   0.54807   0.55492   0.55819
 Alpha virt. eigenvalues --    0.56143   0.56365   0.56611   0.57399   0.57730
 Alpha virt. eigenvalues --    0.57969   0.58362   0.59384   0.59492   0.59698
 Alpha virt. eigenvalues --    0.59827   0.59938   0.60226   0.60818   0.60933
 Alpha virt. eigenvalues --    0.61124   0.61859   0.61940   0.62959   0.63263
 Alpha virt. eigenvalues --    0.63529   0.63867   0.64189   0.64802   0.65168
 Alpha virt. eigenvalues --    0.65867   0.66387   0.66696   0.67217   0.67425
 Alpha virt. eigenvalues --    0.67839   0.68150   0.68887   0.69102   0.69755
 Alpha virt. eigenvalues --    0.69900   0.70322   0.70659   0.70809   0.71084
 Alpha virt. eigenvalues --    0.71155   0.71825   0.72312   0.72450   0.72974
 Alpha virt. eigenvalues --    0.73273   0.73731   0.73889   0.74475   0.74638
 Alpha virt. eigenvalues --    0.75268   0.75440   0.75505   0.75927   0.76179
 Alpha virt. eigenvalues --    0.76793   0.77086   0.77788   0.77891   0.78487
 Alpha virt. eigenvalues --    0.79019   0.79128   0.80887   0.81222   0.82192
 Alpha virt. eigenvalues --    0.82612   0.83165   0.83536   0.83913   0.84200
 Alpha virt. eigenvalues --    0.85091   0.85267   0.85838   0.86459   0.87274
 Alpha virt. eigenvalues --    0.88056   0.88590   0.88900   0.89507   0.89774
 Alpha virt. eigenvalues --    0.90165   0.90610   0.90829   0.90983   0.91712
 Alpha virt. eigenvalues --    0.92161   0.92733   0.93456   0.93589   0.94206
 Alpha virt. eigenvalues --    0.94859   0.95201   0.95363   0.95957   0.96186
 Alpha virt. eigenvalues --    0.96525   0.97172   0.97378   0.97871   0.97928
 Alpha virt. eigenvalues --    0.98618   0.99175   1.00154   1.00873   1.01394
 Alpha virt. eigenvalues --    1.01879   1.02306   1.02758   1.03171   1.03605
 Alpha virt. eigenvalues --    1.04718   1.05167   1.05679   1.06026   1.06760
 Alpha virt. eigenvalues --    1.07110   1.07705   1.08457   1.09033   1.09653
 Alpha virt. eigenvalues --    1.10710   1.11238   1.11626   1.12304   1.13476
 Alpha virt. eigenvalues --    1.13966   1.14932   1.15651   1.16864   1.17304
 Alpha virt. eigenvalues --    1.17917   1.18283   1.19125   1.20662   1.21472
 Alpha virt. eigenvalues --    1.22872   1.23162   1.24338   1.24735   1.28076
 Alpha virt. eigenvalues --    1.29206   1.29729   1.31110   1.32605   1.34035
 Alpha virt. eigenvalues --    1.34653   1.36299   1.37711   1.38357   1.40114
 Alpha virt. eigenvalues --    1.40972   1.41916   1.42591   1.42895   1.43339
 Alpha virt. eigenvalues --    1.45483   1.46038   1.46245   1.47184   1.47661
 Alpha virt. eigenvalues --    1.48415   1.48543   1.49312   1.49425   1.50162
 Alpha virt. eigenvalues --    1.50520   1.51255   1.51826   1.52769   1.53563
 Alpha virt. eigenvalues --    1.53738   1.54890   1.55084   1.56145   1.56703
 Alpha virt. eigenvalues --    1.56969   1.57614   1.58065   1.58483   1.59065
 Alpha virt. eigenvalues --    1.59662   1.60581   1.61247   1.62317   1.63012
 Alpha virt. eigenvalues --    1.64005   1.65162   1.65503   1.65983   1.67005
 Alpha virt. eigenvalues --    1.67974   1.68534   1.68753   1.69985   1.70194
 Alpha virt. eigenvalues --    1.71100   1.71431   1.72467   1.73600   1.74508
 Alpha virt. eigenvalues --    1.75304   1.75449   1.76120   1.76360   1.77317
 Alpha virt. eigenvalues --    1.77444   1.78037   1.78615   1.79410   1.80326
 Alpha virt. eigenvalues --    1.81529   1.81830   1.82735   1.83180   1.83705
 Alpha virt. eigenvalues --    1.84088   1.84838   1.85687   1.86240   1.86431
 Alpha virt. eigenvalues --    1.86705   1.87687   1.87883   1.88344   1.88706
 Alpha virt. eigenvalues --    1.89182   1.89493   1.90425   1.90908   1.91270
 Alpha virt. eigenvalues --    1.92511   1.92808   1.93006   1.93469   1.94470
 Alpha virt. eigenvalues --    1.95318   1.95837   1.97071   1.98479   1.98702
 Alpha virt. eigenvalues --    1.99158   1.99442   2.00985   2.01552   2.02635
 Alpha virt. eigenvalues --    2.02783   2.03458   2.04019   2.04818   2.05552
 Alpha virt. eigenvalues --    2.06372   2.07132   2.07672   2.08617   2.09466
 Alpha virt. eigenvalues --    2.09565   2.10403   2.10998   2.12313   2.13502
 Alpha virt. eigenvalues --    2.13947   2.14713   2.15561   2.16258   2.17642
 Alpha virt. eigenvalues --    2.17852   2.18933   2.19855   2.21281   2.21609
 Alpha virt. eigenvalues --    2.22487   2.23067   2.24239   2.24810   2.26235
 Alpha virt. eigenvalues --    2.26511   2.26994   2.28005   2.29175   2.31623
 Alpha virt. eigenvalues --    2.32982   2.34764   2.35123   2.36247   2.37981
 Alpha virt. eigenvalues --    2.38181   2.39221   2.40964   2.42274   2.42682
 Alpha virt. eigenvalues --    2.43073   2.44790   2.45870   2.47216   2.47901
 Alpha virt. eigenvalues --    2.48196   2.49998   2.53073   2.53796   2.54891
 Alpha virt. eigenvalues --    2.56136   2.57209   2.57943   2.59084   2.59677
 Alpha virt. eigenvalues --    2.60359   2.62430   2.63627   2.65076   2.66184
 Alpha virt. eigenvalues --    2.66615   2.67490   2.68645   2.69723   2.70391
 Alpha virt. eigenvalues --    2.70970   2.72088   2.72479   2.73005   2.73427
 Alpha virt. eigenvalues --    2.74033   2.74318   2.75059   2.75493   2.75638
 Alpha virt. eigenvalues --    2.76057   2.76181   2.76763   2.77069   2.77407
 Alpha virt. eigenvalues --    2.77650   2.78087   2.78198   2.78637   2.79518
 Alpha virt. eigenvalues --    2.80105   2.80739   2.81346   2.81950   2.82113
 Alpha virt. eigenvalues --    2.83468   2.84785   2.84825   2.85611   2.86644
 Alpha virt. eigenvalues --    2.87421   2.87719   2.88447   2.89431   2.90621
 Alpha virt. eigenvalues --    2.91177   2.91847   2.94283   2.94707   2.95862
 Alpha virt. eigenvalues --    2.96484   2.98708   3.00806   3.01826   3.03551
 Alpha virt. eigenvalues --    3.04542   3.05663   3.06405   3.07305   3.10346
 Alpha virt. eigenvalues --    3.11915   3.13252   3.13714   3.15265   3.17996
 Alpha virt. eigenvalues --    3.18724   3.19898   3.21445   3.21809   3.23154
 Alpha virt. eigenvalues --    3.23607   3.23830   3.25278   3.26882   3.28580
 Alpha virt. eigenvalues --    3.32050   3.33113   3.33274   3.34839   3.35739
 Alpha virt. eigenvalues --    3.37492   3.38311   3.41397   3.41902   3.43181
 Alpha virt. eigenvalues --    3.43795   3.44548   3.46054   3.47380   3.48886
 Alpha virt. eigenvalues --    3.49055   3.49696   3.51904   3.53446   3.54557
[...]
 .00000258,-0.00000695,0.00000149,0.00000153,-0.00000663,0.00000621,0.0
 0000579,-0.00000646,0.00000066,-0.00000070,0.00000768,-0.00000075,-0.0
 0001334,0.00001626,-0.00000540,0.00004097,-0.00002219,0.00004237,-0.00
 112416,0.00074731,0.00181806,-0.00030717,-0.00031074,0.00085908,0.0582
 4723,0.00016565,0.00002446,0.00023940,-0.00007025,0.00075760,0.0001598
 7,-0.00049593,0.00008847,-0.00010994,0.00026176,-0.00004379,-0.0001063
 6,0.00028664,-0.00032585,0.00002285,-0.00006443,0.00015019,-0.00002408
 ,0.00015082,0.00007504,0.00007047,-0.00003710,-0.00031562,-0.00002489,
 -0.00037028,0.00015690,-0.00005829,-0.00001149,0.00005411,0.00001168,0
 .00006345,-0.00001618,0.00000752,-0.00001559,0.00011211,0.00000850,-0.
 00095748,-0.00108322,0.00111153,0.00022908,-0.00037344,-0.00027057,-0.
 00029182,0.00006772,-0.00009507,0.00046073,0.00002518,0.00007695,-0.00
 015082,-0.00007939,-0.00008421,0.00011800,-0.00015603,-0.00000805,-0.0
 0063130,-0.00071921,0.00023170,0.00039529,-0.00003296,-0.00010459,0.00
 017183,-0.00009335,-0.00006753,-0.00005470,0.00022305,0.00001111,-0.00
 158976,0.00068822,-0.00096935,0.00115118,0.00032928,-0.00046456,0.0001
 5482,0.00035172,0.00007669,-0.00018647,-0.00027537,0.00001959,-0.00023
 905,-0.00147579,0.00011800,0.00065708,-0.00040694,-0.00875660,0.007992
 21,-0.04901463,-0.04270783,-0.00513789,-0.00036858,0.02641133,0.000073
 06,0.00004885,-0.00005678,-0.00000702,0.00000321,-0.00001213,-0.000004
 93,0.00000856,0.00000131,-0.00000049,-0.00000443,-0.00001320,-0.000009
 12,-0.00000204,0.00000099,-0.00000041,-0.00000962,-0.00000031,0.000004
 00,-0.00000328,0.00000438,0.00000782,-0.00000807,0.00001415,0.00000165
 ,0.00001106,0.00002726,-0.00000633,0.00002447,-0.00001446,0.00000463,-
 0.00000483,0.00000408,-0.00026224,0.00017844,0.00049812,-0.00069673,-0
 .00015907,0.00054883,-0.00687417,0.05583257,0.00023838,0.00020881,-0.0
 0011917,0.00002848,-0.00028868,0.00000557,0.00026541,0.00003414,0.0000
 2357,0.00002476,0.00008317,-0.00003419,-0.00010261,0.00012159,0.000017
 72,0.00012357,0.00006479,0.00001261,-0.00013527,-0.00006737,-0.0000441
 2,0.00001410,0.00020021,0.00001910,0.00021337,-0.00006974,0.00004785,0
 .00003194,-0.00004802,-0.00002438,-0.00005191,-0.00000860,-0.00000785,
 0.00002290,-0.00006286,0.00000526,-0.00077636,0.00116871,0.00121088,-0
 .00015831,0.00008496,0.00020821,-0.00006380,-0.00007659,0.00003962,-0.
 00023573,-0.00003398,-0.00008461,0.00002260,0.00001796,0.00001673,-0.0
 0002729,0.00007520,0.00002914,0.00029188,0.00013128,-0.00022995,-0.000
 54591,0.00022681,-0.00001701,-0.00007428,-0.00002553,0.00007391,0.0000
 0754,-0.00002986,0.00000016,0.00129381,-0.00016306,0.00011935,-0.00028
 408,0.00154892,-0.00071345,0.00035499,-0.00100672,0.00021794,0.0005175
 1,0.00070068,-0.00000932,-0.00030206,-0.00384780,0.00158688,-0.0058397
 1,-0.00305481,-0.01589212,0.04692044,-0.04544174,-0.25552882,0.0056463
 5,0.00330579,-0.01582274,-0.00008119,-0.00006110,-0.00006468,0.0000193
 5,-0.00001526,-0.00000857,0.00000863,-0.00001299,-0.00000506,0.0000103
 6,0.00000402,0.00000595,0.00001354,0.00000349,-0.00000374,0.00000342,0
 .00001183,0.00000078,-0.00000076,0.00000709,-0.00000061,0.00000550,0.0
 0001034,-0.00001967,-0.00000884,0.00000887,-0.00001607,-0.00000028,0.0
 0001990,0.00000589,0.00000774,-0.00001929,0.00006495,-0.00044480,0.000
 31031,0.00054854,-0.00059236,-0.00018907,-0.00043302,-0.04785758,0.047
 65743,0.28535259,-0.00075911,0.00202991,0.00490365,0.00002782,0.000567
 82,-0.00012167,-0.00048900,-0.00022909,-0.00011396,0.00083332,-0.00017
 367,0.00051348,-0.00016750,-0.00021710,-0.00020469,0.00082713,0.000989
 55,0.00007051,-0.00059638,-0.00041824,-0.00008089,0.00001570,0.0005626
 2,0.00004082,0.00027155,-0.00035331,0.00001462,-0.00026912,0.00021261,
 0.00001806,0.00008572,-0.00014530,-0.00000445,0.00002253,0.00015292,0.
 00002822,-0.00415075,0.00425482,0.01166874,0.00219898,-0.00257614,0.00
 070800,-0.00165017,-0.00004755,-0.00078074,0.00125870,-0.00013494,0.00
 015919,0.00011394,0.00004353,-0.00002055,0.00023645,-0.00005741,0.0000
 3756,-0.00113416,-0.00236444,0.00201385,-0.00056890,0.00032206,0.00000
 701,-0.00000521,-0.00015918,-0.00002664,0.00001019,0.00005237,0.000018
 40,-0.01637193,-0.00393119,-0.01298713,0.00140604,0.00295664,-0.001950
 68,-0.00092654,0.00029710,0.00016179,0.00005545,-0.00032288,-0.0000940
 0,0.00058656,-0.00008550,0.00018778,0.00092275,-0.00191382,0.00095396,
 -0.00687515,-0.00429925,-0.00469426,-0.19299008,-0.08551762,-0.1274707
 2,-0.00011481,0.00019295,0.00018019,-0.00004862,-0.00002191,-0.0000445
 9,-0.00000250,-0.00000719,0.00000166,-0.00000554,0.00000197,-0.0000002
 0,-0.00000402,-0.00000824,0.00000146,0.00000650,0.00000069,-0.00000182
 ,0.00000349,-0.00000535,0.00000822,0.00002011,0.00000060,-0.00001193,-
 0.00000341,0.00001615,-0.00000971,0.00000377,0.00003898,-0.00003133,-0
 .00025637,0.00020341,0.00010461,-0.00007760,-0.00002669,0.00002274,-0.
 00037392,-0.00009861,-0.00046669,0.00024256,0.00011258,-0.00012263,0.2
 1871143,-0.00216930,-0.00034396,0.00166916,-0.00055316,0.00024024,0.00
 053381,-0.00069793,-0.00028128,-0.00013334,0.00031304,-0.00011951,0.00
 047963,0.00007278,-0.00003972,-0.00008317,-0.00031795,-0.00024843,-0.0
 0020616,0.00030979,0.00011116,0.00007709,-0.00008842,-0.00021161,-0.00
 001686,-0.00013299,0.00004517,-0.00005875,-0.00010857,0.00031992,0.000
 04730,-0.00004041,-0.00003262,-0.00000191,0.00006244,0.00004565,0.0000
 2296,0.00228625,-0.00218494,-0.00581796,-0.00090432,0.00072543,-0.0004
 6329,0.00073608,0.00002203,0.00032366,0.00060540,-0.00010371,0.0002760
 6,-0.00019495,-0.00043658,-0.00022538,0.00030599,0.00001302,0.00006630
 ,0.00028350,0.00144254,-0.00010463,0.00068962,0.00003833,-0.00018427,-
 0.00000659,0.00011007,0.00005355,-0.00000636,-0.00000545,-0.00000202,0
 .01917805,0.00811904,0.01421018,0.00115309,-0.00399540,0.00193802,0.00
 090319,0.00044882,-0.00063419,-0.00013900,-0.00021285,0.00005872,-0.00
 027072,0.00036407,0.00002402,0.00012925,-0.00415455,0.00358814,-0.0197
 5430,-0.00867674,-0.01462916,-0.09178121,-0.08997035,-0.05494409,0.000
 04151,-0.00013323,0.00021174,0.00000702,-0.00000395,0.00003248,0.00000
 526,-0.00000101,-0.00000965,0.00000599,-0.00000918,0.00000046,0.000002
 79,-0.00000442,-0.00000022,0.00000928,0.00000378,0.00000008,0.00000761
 ,0.00000539,0.00001550,-0.00001591,0.00001038,0.,-0.00000421,0.0000101
 2,0.00000468,-0.00003033,-0.00001568,0.00005436,0.00029699,-0.00021188
 ,0.00004775,0.00003992,0.00010075,-0.00016361,-0.00122833,-0.00028429,
 -0.00061232,-0.00009964,0.00132301,0.00030721,0.09063124,0.09808970,-0
 .00002064,-0.00264231,-0.00262734,0.00015467,-0.00057291,0.00010553,0.
 00059769,-0.00010708,0.00036660,-0.00006471,0.00006018,0.00021964,-0.0
 0002339,0.00020629,-0.00009113,-0.00123523,-0.00115569,-0.00035488,0.0
 0080493,0.00057032,0.00017498,-0.00006320,-0.00068107,-0.00003335,-0.0
 0016818,0.00039943,-0.00001282,0.00034134,-0.00013411,0.00000091,-0.00
 022551,0.00012949,-0.00003570,0.00005390,-0.00026210,-0.00003143,0.006
 30865,-0.00583390,-0.01419179,-0.00221591,0.00271261,-0.00060650,0.002
 16705,0.00026192,0.00063800,-0.00106854,0.00085021,-0.00052138,-0.0000
 6201,0.00003170,0.00001146,-0.00016927,0.00001820,-0.00002377,0.000820
 85,0.00152963,-0.00052458,0.00063535,-0.00021519,0.00038843,-0.0000157
 7,0.00001532,-0.00001172,0.00003960,-0.00000541,-0.00001816,-0.0039372
 3,-0.01063018,-0.00114859,-0.00319942,0.00177608,0.00031812,-0.0002987
 8,-0.00146690,0.00032900,-0.00016484,0.00040819,-0.00004520,0.00007663
 ,0.00093503,-0.00047104,0.00021723,0.00306949,-0.00062190,0.01290466,0
 .00713677,0.00623589,-0.13972001,-0.05102688,-0.12409948,0.00010781,-0
 .00022422,0.00044028,0.00004673,0.00002288,0.00006775,0.00000143,0.000
 01081,-0.00001000,0.00000043,-0.00000200,-0.00000792,-0.00000289,-0.00
 000012,0.00000356,-0.00000755,0.00000037,-0.00000416,-0.00000509,0.000
 00286,-0.00000471,0.00000203,-0.00000485,0.00001747,0.00000782,-0.0000
 0079,-0.00000376,0.00002285,0.00001015,-0.00002896,-0.00008297,0.00014
 349,-0.00012616,0.00005399,-0.00010914,-0.00004472,0.00063866,0.000442
 55,0.00081131,0.00006283,-0.00038486,0.00173274,0.12705285,0.05463942,
 0.13381770,-0.00129780,0.00274016,-0.00034958,0.00064593,0.00042121,0.
 00004414,-0.00012610,0.00023290,0.00001101,-0.00013515,0.00067801,0.00
 006367,0.00010627,-0.00006251,0.00008485,-0.00470368,0.00237973,-0.002
 59910,0.00000350,-0.00145226,0.00008373,-0.00049546,0.00010562,-0.0000
 1182,-0.00004745,0.00008925,-0.00000759,0.00006323,-0.00004937,0.00005
 080,-0.00000439,0.00001114,0.00000386,0.00003849,0.00001151,0.00001697
 ,0.01029556,0.01357440,0.00203368,-0.13996682,-0.12446841,-0.02736778,
 -0.01522242,-0.02702235,-0.00467322,0.00008987,-0.00005643,-0.00001511
 ,0.00002206,0.00002315,-0.00001491,-0.00002337,0.00000105,0.00000190,0
 .00001324,-0.00003034,-0.00000031,-0.00002888,-0.00001884,0.00000045,0
 .00001638,0.00002236,0.00000305,-0.00001815,0.00001445,-0.00000041,0.0
 0007706,-0.00000453,-0.00000453,-0.00003195,0.00006879,-0.00002962,0.0
 0000423,-0.00006310,0.00001419,0.00002584,0.00003510,0.00000570,-0.000
 02709,0.00003004,-0.00008881,0.00010199,-0.00008099,-0.00002411,0.0000
 8038,-0.00004420,0.00025813,-0.00004784,-0.00001196,0.00016196,0.00047
 130,-0.00058914,0.00020176,0.00061126,0.00023305,0.00131466,-0.0000295
 8,0.00004321,-0.00003269,-0.00006122,-0.00013467,-0.00004692,-0.000004
 89,0.00000038,-0.00000218,0.00001382,-0.00000204,-0.00001446,0.0000001
 5,-0.00000335,-0.00000017,-0.00000454,-0.00000135,0.00000285,0.0000033
 6,-0.00000213,0.00000023,0.00000240,-0.00000497,-0.00000174,0.00000085
 ,0.00000302,-0.00000148,-0.00000775,0.00000142,0.00000629,-0.00004044,
 -0.00002193,0.00003539,-0.00001869,0.00001369,-0.00001719,0.00001053,-
 0.00001372,-0.00003897,0.14983544,0.00406946,-0.00359303,0.00009900,-0
 .00106358,-0.00027193,-0.00000328,0.00020847,-0.00052127,-0.00010814,0
 .00075214,0.00028567,0.00015329,-0.00015737,-0.00003449,0.00002254,0.0
 0165736,0.00118928,-0.00026789,-0.00004848,0.00012100,-0.00009027,0.00
 001033,0.00018984,0.00006806,0.00010757,-0.00009242,-0.00000841,-0.000
 12172,0.00000637,-0.00002032,0.00005494,-0.00004856,-0.00000131,-0.000
 03097,0.00003213,0.00000041,-0.01664665,-0.01838112,-0.00373895,-0.125
 83748,-0.24042283,-0.03432628,0.00424946,0.00522670,0.00078293,-0.0002
 5278,0.00002945,-0.00002073,-0.00002534,-0.00004293,-0.00003447,0.0000
 2693,-0.00002288,-0.00000696,0.00002983,-0.00001290,0.00006030,0.00004
 809,0.00010008,-0.00000045,-0.00001205,-0.00004346,-0.00000507,0.00000
 105,0.00000972,0.00001019,-0.00000514,0.00016592,-0.00019217,0.0000962
 4,-0.00020439,0.00005884,-0.00001255,0.00010487,0.00000407,0.00002165,
 -0.00007889,0.00000424,-0.00006384,-0.00009425,0.00002057,0.00010280,0
 .00028956,0.00024316,0.00018068,-0.00027010,-0.00021684,-0.00039811,-0
 .00030513,0.00035216,0.00019073,0.00079113,0.00019545,-0.00027609,0.00
 105571,0.00033539,-0.00001795,0.00000032,-0.00001564,0.00000493,0.0000
 1758,0.00001744,-0.00000686,-0.00000298,-0.00000428,-0.00002046,-0.000
 00901,-0.00000495,0.00000152,-0.00001112,0.00000176,0.00000579,-0.0000
 1240,0.00000127,0.00000615,-0.00000064,-0.00000157,0.00000291,0.000002
 27,-0.00000016,0.00001803,-0.00000393,0.00000479,0.00001187,0.00002226
 ,-0.00001334,0.00006768,0.00002952,-0.00004710,-0.00006943,0.00021075,
 -0.00002234,0.00004824,0.00003167,-0.00001983,0.13324169,0.25439159,-0
 .00038198,0.00043909,0.00337859,0.00026086,0.00012097,0.00057686,-0.00
 002082,-0.00009030,0.00001279,-0.00106065,0.00030849,-0.00088310,0.000
 22361,0.00044737,-0.00027123,-0.00315571,-0.00098300,0.00817449,0.0007
 6151,0.00015243,0.00071966,0.00002382,-0.00063191,-0.00063565,-0.00033
 833,0.00038298,0.00010293,0.00018185,0.00013589,-0.00020493,-0.0002351
 8,0.00005900,-0.00004338,0.00008524,-0.00022549,-0.00001969,0.00240650
 ,-0.00139472,0.00103437,-0.03055226,-0.03178567,-0.04228976,-0.0009088
 7,-0.00438106,0.00386813,-0.00007995,-0.00010011,0.00004594,0.00007253
 ,0.00007252,0.00003345,-0.00004711,0.00004131,0.00000332,0.00005718,0.
 00022963,-0.00010566,0.00002568,-0.00000058,0.00001619,0.00001632,-0.0
 0001438,-0.00000233,-0.00000663,0.00003381,-0.00001193,0.00055268,-0.0
 0040427,0.00017545,-0.00029372,-0.00012833,-0.00005734,0.00004284,-0.0
 0010853,0.00002082,0.00003740,0.00008276,-0.00000268,-0.00008854,0.000
 01746,-0.00011985,0.00022769,0.00011005,0.00022011,0.00018022,-0.00033
 240,-0.00002872,-0.00136232,0.00088508,0.00102209,0.00136182,-0.000267
 23,-0.00064891,0.00126348,0.00008129,-0.00552962,-0.00002957,0.0000103
 8,0.00011878,0.00000820,-0.00003130,-0.00007751,-0.00000295,-0.0000059
 0,0.00000069,-0.00001123,-0.00001543,0.00007962,-0.00000042,-0.0000019
 1,0.00000225,0.00000183,0.00000066,-0.00000086,-0.00000130,0.00000548,
 0.00000409,-0.00000211,0.00000732,0.00000055,0.00000006,-0.00000493,0.
 00001105,-0.00002793,0.00002463,-0.00001580,0.00005441,0.00000469,-0.0
 0001163,-0.00015267,0.00020820,-0.00000172,0.00007572,-0.00002112,-0.0
 0009406,0.03070519,0.03709693,0.03202582,0.00038786,0.00091891,-0.0000
 0230,0.00001127,-0.00048653,-0.00014275,0.00024780,-0.00010723,0.00005
 113,-0.00013312,-0.00002789,-0.00009253,-0.00011919,0.00016972,-0.0000
 4502,0.00009662,0.00005482,0.00009604,-0.00011353,-0.00007381,-0.00003
 913,-0.00000569,0.00017501,0.00000452,0.00017660,-0.00000092,0.0000360
 3,0.00003105,-0.00003393,-0.00000267,-0.00004120,0.00000241,-0.0000086
 8,0.00001182,-0.00009135,-0.00000332,-0.00079260,-0.00053162,0.0015229
 7,0.00089730,-0.00051089,0.00045812,-0.00048249,-0.00020134,-0.0003570
 1,-0.00025173,0.00005532,0.00000502,-0.00009472,0.00004875,-0.00000973
 ,0.00001537,0.00005527,0.00000878,0.00082241,-0.00007905,0.00020552,-0
 .00014501,0.00004007,-0.00003493,-0.00003577,-0.00016187,-0.00002252,0
 .00011455,-0.00002479,0.00002100,-0.00089996,-0.00219534,0.00156451,-0
 .00036803,-0.00068589,0.00078688,-0.00002435,0.00021150,-0.00005074,0.
 00005871,-0.00008394,0.00004269,-0.00363817,-0.00308286,-0.00122477,-0
 .01876919,0.02061295,-0.00018204,-0.16749249,0.12527565,-0.00150919,0.
 01080637,-0.00839115,-0.00020836,0.00006568,-0.00003324,-0.00006464,-0
 .00001398,0.00001213,0.00001313,-0.00000379,-0.00000787,-0.00000291,0.
 00000905,0.00000208,0.00000642,0.00000913,0.00000023,0.00000128,-0.000
 00054,0.00000739,0.00000078,-0.00000267,0.00000186,0.00000195,0.000003
 68,0.00000338,-0.00000396,-0.00001086,-0.00002102,-0.00000900,-0.00000
 195,0.00001611,0.00000938,0.00005281,-0.00004373,-0.00001268,-0.000027
 33,0.00044703,-0.00159636,0.00108138,-0.00041780,-0.00013349,-0.005045
 07,0.00568982,0.00163636,-0.00003044,0.00048225,-0.00032992,-0.0001895
 0,-0.00014965,0.00013360,0.18383391,-0.00070523,-0.00121503,-0.0000351
 1,-0.00001742,0.00060763,0.00001747,-0.00029144,0.00015022,-0.00002979
 ,0.00037539,-0.00006958,0.00023562,0.00014573,-0.00030467,0.00003227,-
 0.00038052,0.00000532,-0.00008106,0.00017083,0.00018359,0.00002117,-0.
 00004459,-0.00021712,-0.00000811,-0.00019714,-0.00000575,-0.00006322,-
 0.00003778,0.00000796,0.00000241,0.00010964,0.00002402,0.00003183,-0.0
 0005868,0.00012877,-0.00000642,0.00263909,0.00004005,-0.00187683,-0.00
 029247,0.00075892,-0.00034126,-0.00000872,0.00015626,-0.00009450,0.000
 18786,-0.00024231,-0.00005587,-0.00001909,0.00011227,0.00002487,-0.000
 01574,-0.00010164,-0.00001636,0.00092667,0.00003268,0.00045242,0.00011
 057,-0.00027946,0.00005631,0.00008866,-0.00007341,0.00001418,0.0000562
 4,0.00003907,0.00001012,-0.00256774,-0.00386143,0.00089405,-0.00086686
 ,-0.00054296,-0.00017307,0.00005119,0.00022566,-0.00006728,-0.00018894
 ,-0.00013594,0.00000937,-0.00176871,0.00019268,-0.00188694,-0.00798066
 ,0.01044684,0.00150960,0.12633483,-0.18172617,-0.00001523,0.01532256,-
 0.01898459,0.00355161,-0.00018122,0.00003483,0.00040038,0.00001928,0.0
 0000759,0.00000628,0.00000187,0.00000630,0.00000501,-0.00000314,0.0000
 0123,0.00000139,-0.00000546,0.00000507,0.00000120,-0.00000202,-0.00000
 494,-0.00000254,-0.00000508,-0.00000157,-0.00000369,-0.00000439,-0.000
 00773,0.00000481,-0.00000007,-0.00003631,-0.00002110,0.00000569,0.0000
 0136,0.00001915,0.00005133,-0.00002358,0.00000160,-0.00002152,0.000095
 69,-0.00072303,0.00046227,0.00070180,0.00046234,0.00585479,-0.00577325
 ,-0.00176809,-0.00057417,0.00006106,0.00009618,0.00016327,0.00017728,-
 0.00002985,-0.13683895,0.19940332,0.00009368,-0.00016547,0.00002586,-0
 .00002927,0.00032249,0.00008513,-0.00019629,-0.00002057,-0.00006046,-0
 .00008585,-0.00001579,-0.00004971,0.00012292,-0.00004079,0.00001881,-0
 .00027566,-0.00020472,-0.00015844,0.00024606,0.00003214,0.00004669,-0.
 00003696,-0.00027163,-0.00002709,-0.00020930,0.00010358,-0.00000810,0.
 00003095,0.00002589,0.00001657,-0.00004873,-0.00002455,-0.00000898,0.0
 0003931,0.00000297,-0.00000860,-0.00041763,0.00063274,0.00026846,-0.00
 013892,0.00046653,-0.00011781,0.00055921,0.00001445,0.00015455,0.00005
 485,-0.00008390,-0.00004433,0.00003775,-0.00001021,-0.00002213,-0.0000
 1068,-0.00003876,-0.00000561,-0.00096368,0.00021840,-0.00003352,0.0001
 9659,0.00024234,-0.00001515,-0.00001573,0.00004129,-0.00003529,-0.0000
 5766,0.00007605,-0.00000209,0.00181651,0.00259947,-0.00033030,0.000105
 92,0.00065987,0.00023504,0.00015521,-0.00028808,0.00007130,0.00006056,
 0.00017377,0.00000766,-0.00198796,-0.00280875,0.00028174,-0.01320838,0
 .01275993,-0.00253794,0.00074447,-0.00267989,-0.03956442,-0.00887149,0
 .01256916,-0.00413105,-0.00006200,0.00009530,-0.00007801,-0.00000936,0
 .00001889,0.00008473,-0.00000410,0.00001676,0.00000519,-0.00001583,-0.
 00001242,-0.00000252,-0.00001173,-0.00000705,0.00000003,0.00000013,-0.
 00000877,0.00000122,0.00000474,-0.00000509,0.00000162,0.00000361,-0.00
 000395,0.00000631,0.00000969,0.00003424,0.00000733,-0.00000424,0.00001
 119,-0.00000310,-0.00000018,-0.00000989,-0.00001766,-0.00028078,0.0003
 3238,-0.00090200,0.00089615,-0.00024679,0.00038371,0.02175712,-0.02320
 830,-0.00226509,0.00028620,-0.00037017,0.00011586,0.00023825,-0.000362
 03,-0.00059167,-0.00051746,-0.00056228,0.04920324\\-0.00001025,-0.0000
 1181,0.,0.00000047,0.00000101,-0.00000558,0.00000065,-0.00000035,0.000
 00115,-0.00000248,0.00000026,0.00000753,-0.00000182,0.00000096,0.00000
 164,-0.00000051,-0.00000594,-0.00000163,0.00000033,0.00000360,-0.00000
 249,-0.00000104,0.00000076,-0.00000223,0.00000344,0.00000119,0.0000008
 7,-0.00000176,0.00000324,0.00000146,-0.00000062,-0.00000025,0.00000127
 ,-0.00000161,0.00000133,-0.00000004,0.00001834,0.00000683,-0.00002398,
 -0.00000573,0.00000817,-0.00000005,0.00000286,0.00000539,0.00000133,0.
 00000038,-0.00000028,0.00000044,0.00000106,-0.00000040,0.00000112,-0.0
 0000051,-0.00000076,0.00000244,0.00000009,-0.00000404,0.00000239,-0.00
 000256,-0.00000042,0.00000136,0.00000015,0.00000039,0.00000185,-0.0000
 0168,-0.00000097,0.00000302,0.00000198,-0.00000044,-0.00000350,0.00000
 609,0.00000074,-0.00000035,-0.00000103,0.00000071,-0.00000032,0.000001
 74,-0.00000261,0.00000117,0.00000022,-0.00000231,-0.00000123,0.0000017
 6,-0.00000025,-0.00000118,0.00000071,0.00000049,-0.00000223,-0.0000055
 9,-0.00000325,0.00001385,-0.00000012,-0.00000022,0.00000199,0.00000100
 ,0.00000090,-0.00000195,0.00000094,0.00000118,-0.00000156,0.00000013,0
 .00000120,-0.00000039,-0.00000049,0.00000111,0.00000107,-0.00000096,0.
 00000070,0.00000197,-0.00000116,0.00000015,0.00000215,-0.00000118,-0.0
 0000027,0.00000238,-0.00000112,-0.00000062,0.00000220,-0.00000079,-0.0
 0000101,0.00000120,0.00000008,-0.00000116,0.00000029,0.00000062,-0.000
 00100,-0.00000108,0.00000065,-0.00000095,-0.00000112,-0.00000032,-0.00
 000161,-0.00000077,-0.00000201,0.00000027,0.00000090,0.00000160,0.0000
 0038,-0.00000398,0.00000009,0.,-0.00000139\\\@


 SUCCESS IS NEVER CERTAIN,
 FAILURE IS NEVER FINAL.
 Job cpu time:       2 days  9 hours 24 minutes 20.8 seconds.
 Elapsed time:       0 days  2 hours 52 minutes 40.2 seconds.
 File lengths (MBytes):  RWF=   4602 Int=      0 D2E=      0 Chk=     65 Scr=      1
 Normal termination of Gaussian 16 at Thu Aug  1 03:28:18 2019.
