 Entering Gaussian System, Link 0=/share/apps/gaussian16/g16/g16
 Initial command:
 /share/apps/gaussian16/g16/l1.exe "/home/amen01//scratch/679/Gau-12642.inp" -scrdir="/home/amen01//scratch/679/"
 Entering Link 1 = /share/apps/gaussian16/g16/l1.exe PID=     12643.
  
 Copyright (c) 1988-2017, Gaussian, Inc.  All Rights Reserved.
  
 This is part of the Gaussian(R) 16 program.  It is based on
 the Gaussian(R) 09 system (copyright 2009, Gaussian, Inc.),
 the Gaussian(R) 03 system (copyright 2003, Gaussian, Inc.),
 the Gaussian(R) 98 system (copyright 1998, Gaussian, Inc.),
 the Gaussian(R) 94 system (copyright 1995, Gaussian, Inc.),
 the Gaussian 92(TM) system (copyright 1992, Gaussian, Inc.),
 the Gaussian 90(TM) system (copyright 1990, Gaussian, Inc.),
 the Gaussian 88(TM) system (copyright 1988, Gaussian, Inc.),
 the Gaussian 86(TM) system (copyright 1986, Carnegie Mellon
 University), and the Gaussian 82(TM) system (copyright 1983,
 Carnegie Mellon University). Gaussian is a federally registered
 trademark of Gaussian, Inc.
  
 This software contains proprietary and confidential information,
 including trade secrets, belonging to Gaussian, Inc.
  
 This software is provided under written license and may be
 used, copied, transmitted, or stored only in accord with that
 written license.
  
 The following legend is applicable only to US Government
 contracts under FAR:
  
                    RESTRICTED RIGHTS LEGEND
  
 Use, reproduction and disclosure by the US Government is
 subject to restrictions as set forth in subparagraphs (a)
 and (c) of the Commercial Computer Software - Restricted
 Rights clause in FAR 52.227-19.
  
 Gaussian, Inc.
 340 Quinnipiac St., Bldg. 40, Wallingford CT 06492
  
  
 ---------------------------------------------------------------
 Warning -- This program may not be used in any manner that
 competes with the business of Gaussian, Inc. or will provide
 assistance to any competitor of Gaussian, Inc.  The licensee
 of this program is prohibited from giving any competitor of
 Gaussian, Inc. access to this program.  By using this program,
 the user acknowledges that Gaussian, Inc. is engaged in the
 business of creating and licensing software in the field of
 computational chemistry and represents and warrants to the
 licensee that it is not a competitor of Gaussian, Inc. and that
 it will not use this program in any manner prohibited above.
 ---------------------------------------------------------------
  

 Cite this work as:
 Gaussian 16, Revision B.01,
 M. J. Frisch, G. W. Trucks, H. B. Schlegel, G. E. Scuseria, 
 M. A. Robb, J. R. Cheeseman, G. Scalmani, V. Barone, 
 G. A. Petersson, H. Nakatsuji, X. Li, M. Caricato, A. V. Marenich, 
 J. Bloino, B. G. Janesko, R. Gomperts, B. Mennucci, H. P. Hratchian, 
 J. V. Ortiz, A. F. Izmaylov, J. L. Sonnenberg, D. Williams-Young, 
 F. Ding, F. Lipparini, F. Egidi, J. Goings, B. Peng, A. Petrone, 
 T. Henderson, D. Ranasinghe, V. G. Zakrzewski, J. Gao, N. Rega, 
 G. Zheng, W. Liang, M. Hada, M. Ehara, K. Toyota, R. Fukuda, 
 J. Hasegawa, M. Ishida, T. Nakajima, Y. Honda, O. Kitao, H. Nakai, 
 T. Vreven, K. Throssell, J. A. Montgomery, Jr., J. E. Peralta, 
 F. Ogliaro, M. J. Bearpark, J. J. Heyd, E. N. Brothers, K. N. Kudin, 
 V. N. Staroverov, T. A. Keith, R. Kobayashi, J. Normand, 
 K. Raghavachari, A. P. Rendell, J. C. Burant, S. S. Iyengar, 
 J. Tomasi, M. Cossi, J. M. Millam, M. Klene, C. Adamo, R. Cammi, 
 J. W. Ochterski, R. L. Martin, K. Morokuma, O. Farkas, 
 J. B. Foresman, and D. J. Fox, Gaussian, Inc., Wallingford CT, 2016.
 
 ******************************************
 Gaussian 16:  ES64L-G16RevB.01 20-Dec-2017
                 3-Jul-2019 
 ******************************************
 %nprocshared=20
 Will use up to   20 processors via shared memory.
 %mem=100GB
 %chk=7-memb2-habsTSguess-2a.chk
 ---------------------------------------------------------------
 # opt=(ts,calcfc,noeigen) freq b3lyp/6-311+g(d,p) int=grid=fine
 ---------------------------------------------------------------
 1/5=1,10=4,11=1,18=20,26=3,38=1/1,3;
 2/9=110,12=2,17=6,18=5,40=1/2;
 3/5=4,6=6,7=111,11=2,25=1,30=1,71=2,74=-5,75=-4,140=1/1,2,3;
 4//1;
 5/5=2,38=5/2;
 8/6=4,10=90,11=11/1;
 11/6=1,8=1,9=11,15=111,16=1/1,2,10;
 10/6=1,13=1/2;
 6/7=2,8=2,9=2,10=2,28=1/1;
 7/10=1,18=20,25=1/1,2,3,16;
 1/5=1,10=4,11=1,18=20,26=3/3(2);
 2/9=110/2;
 99//99;
 2/9=110/2;
 3/5=4,6=6,7=111,11=2,25=1,30=1,71=1,74=-5,75=-4/1,2,3;
 4/5=5,16=3,69=1/1;
 5/5=2,38=5/2;
 7//1,2,3,16;
 1/5=1,11=1,18=20,26=3/3(-5);
 2/9=110/2;
 6/7=2,8=2,9=2,10=2,19=2,28=1/1;
 99/9=1/99;
 ----------------------
 7-memb2-habsTSguess-2a
 ----------------------
 Symbolic Z-matrix:
 Charge =  0 Multiplicity = 2
 C                     0.71864  -0.97969  -0.09041 
 C                     0.48685   0.46849   0.15685 
 C                     1.77533   1.04448   0.19687 
 C                     2.1242   -1.15638  -0.2059 
 C                     2.75804   0.0676   -0.01646 
 C                     2.82408  -2.33746  -0.40172 
 C                     4.26067  -2.16805  -0.44293 
 C                     4.87694  -0.93364  -0.28458 
 C                     4.11756   0.27293  -0.05474 
 C                     2.12262   2.3876    0.32457 
 C                     3.55065   2.65361   0.30297 
 C                     4.49631   1.66049   0.13047 
 C                    -0.01168  -2.12764  -0.14998 
 C                     0.61336  -3.37939  -0.36346 
 C                     1.99929  -3.49834  -0.49837 
 C                    -0.6209    1.33105   0.20459 
 C                    -0.2984    2.75732   0.26179 
 C                     1.01922   3.25493   0.36822 
 C                    -2.00952   0.91298   0.04022 
 C                    -2.9429    1.90247  -0.35713 
 C                    -2.60154   3.29275  -0.29044 
 C                    -1.36033   3.70167   0.07082 
 C                    -2.49701  -0.44036   0.21684 
 C                    -3.78952  -0.78512  -0.28524 
 C                    -4.61822   0.22129  -0.85711 
 C                    -4.23307   1.52764  -0.82631 
 C                    -4.30306  -2.09515  -0.10635 
 C                    -3.63882  -3.02359   0.67207 
 C                    -2.43411  -2.66949   1.28112 
 C                    -1.81268  -1.44457   0.99321 
 H                     0.0061   -4.27773  -0.4162 
 H                     2.43407  -4.48017  -0.65846 
 H                     4.88832  -3.03896  -0.60321 
 H                     5.96006  -0.88662  -0.33296 
 H                     5.54544   1.93819   0.1205 
 H                     3.89054   3.67806   0.4162 
 H                     1.15467   4.33129   0.40918 
 H                    -1.12914   4.75899   0.14252 
 H                    -3.37276   4.01855  -0.52519 
 H                    -4.90075   2.30753  -1.17671 
 H                    -5.59005  -0.06133  -1.24737 
 H                    -5.27049  -2.33235  -0.53584 
 H                    -4.07518  -3.99973   0.85119 
 H                    -1.94397  -3.35518   1.96266 
 H                    -1.02878  -1.11112   1.65684 
 

 GradGradGradGradGradGradGradGradGradGradGradGradGradGradGradGradGradGrad
 Berny optimization.
 Initialization pass.
                           ----------------------------
                           !    Initial Parameters    !
                           ! (Angstroms and Degrees)  !
 --------------------------                            --------------------------
 ! Name  Definition              Value          Derivative Info.                !
 --------------------------------------------------------------------------------
 ! R1    R(1,2)                  1.4873         calculate D2E/DX2 analytically  !
 ! R2    R(1,4)                  1.4213         calculate D2E/DX2 analytically  !
 ! R3    R(1,13)                 1.3619         calculate D2E/DX2 analytically  !
 ! R4    R(2,3)                  1.4119         calculate D2E/DX2 analytically  !
 ! R5    R(2,16)                 1.4048         calculate D2E/DX2 analytically  !
 ! R6    R(3,5)                  1.402          calculate D2E/DX2 analytically  !
 ! R7    R(3,10)                 1.3932         calculate D2E/DX2 analytically  !
 ! R8    R(4,5)                  1.3913         calculate D2E/DX2 analytically  !
 ! R9    R(4,6)                  1.3868         calculate D2E/DX2 analytically  !
 ! R10   R(5,9)                  1.3755         calculate D2E/DX2 analytically  !
 ! R11   R(6,7)                  1.4471         calculate D2E/DX2 analytically  !
 ! R12   R(6,15)                 1.4273         calculate D2E/DX2 analytically  !
 ! R13   R(7,8)                  1.3888         calculate D2E/DX2 analytically  !
 ! R14   R(7,33)                 1.0854         calculate D2E/DX2 analytically  !
 ! R15   R(8,9)                  1.4441         calculate D2E/DX2 analytically  !
 ! R16   R(8,34)                 1.0852         calculate D2E/DX2 analytically  !
 ! R17   R(9,12)                 1.4502         calculate D2E/DX2 analytically  !
 ! R18   R(10,11)                1.4527         calculate D2E/DX2 analytically  !
 ! R19   R(10,18)                1.4042         calculate D2E/DX2 analytically  !
 ! R20   R(11,12)                1.3821         calculate D2E/DX2 analytically  !
 ! R21   R(11,36)                1.0853         calculate D2E/DX2 analytically  !
 ! R22   R(12,35)                1.0853         calculate D2E/DX2 analytically  !
 ! R23   R(13,14)                1.4153         calculate D2E/DX2 analytically  !
 ! R24   R(14,15)                1.3976         calculate D2E/DX2 analytically  !
 ! R25   R(14,31)                1.0856         calculate D2E/DX2 analytically  !
 ! R26   R(15,32)                1.0857         calculate D2E/DX2 analytically  !
 ! R27   R(16,17)                1.4634         calculate D2E/DX2 analytically  !
 ! R28   R(16,19)                1.4595         calculate D2E/DX2 analytically  !
 ! R29   R(17,18)                1.4125         calculate D2E/DX2 analytically  !
 ! R30   R(17,22)                1.4339         calculate D2E/DX2 analytically  !
 ! R31   R(18,37)                1.0856         calculate D2E/DX2 analytically  !
 ! R32   R(19,20)                1.4171         calculate D2E/DX2 analytically  !
 ! R33   R(19,23)                1.4493         calculate D2E/DX2 analytically  !
 ! R34   R(20,21)                1.4331         calculate D2E/DX2 analytically  !
 ! R35   R(20,26)                1.4231         calculate D2E/DX2 analytically  !
 ! R36   R(21,22)                1.3558         calculate D2E/DX2 analytically  !
 ! R37   R(21,39)                1.0847         calculate D2E/DX2 analytically  !
 ! R38   R(22,38)                1.0847         calculate D2E/DX2 analytically  !
 ! R39   R(23,24)                1.4288         calculate D2E/DX2 analytically  !
 ! R40   R(23,30)                1.442          calculate D2E/DX2 analytically  !
 ! R41   R(24,25)                1.4236         calculate D2E/DX2 analytically  !
 ! R42   R(24,27)                1.4184         calculate D2E/DX2 analytically  !
 ! R43   R(25,26)                1.3623         calculate D2E/DX2 analytically  !
 ! R44   R(25,41)                1.0847         calculate D2E/DX2 analytically  !
 ! R45   R(26,40)                1.0848         calculate D2E/DX2 analytically  !
 ! R46   R(27,28)                1.3817         calculate D2E/DX2 analytically  !
 ! R47   R(27,42)                1.0847         calculate D2E/DX2 analytically  !
 ! R48   R(28,29)                1.3956         calculate D2E/DX2 analytically  !
 ! R49   R(28,43)                1.0841         calculate D2E/DX2 analytically  !
 ! R50   R(29,30)                1.4034         calculate D2E/DX2 analytically  !
 ! R51   R(29,44)                1.0839         calculate D2E/DX2 analytically  !
 ! R52   R(30,45)                1.0799         calculate D2E/DX2 analytically  !
 ! A1    A(2,1,4)              106.7782         calculate D2E/DX2 analytically  !
 ! A2    A(2,1,13)             138.1108         calculate D2E/DX2 analytically  !
 ! A3    A(4,1,13)             114.9596         calculate D2E/DX2 analytically  !
 ! A4    A(1,2,3)              105.0522         calculate D2E/DX2 analytically  !
 ! A5    A(1,2,16)             136.5862         calculate D2E/DX2 analytically  !
 ! A6    A(3,2,16)             117.9153         calculate D2E/DX2 analytically  !
 ! A7    A(2,3,5)              110.5547         calculate D2E/DX2 analytically  !
 ! A8    A(2,3,10)             128.5632         calculate D2E/DX2 analytically  !
 ! A9    A(5,3,10)             120.7288         calculate D2E/DX2 analytically  !
 ! A10   A(1,4,5)              109.2745         calculate D2E/DX2 analytically  !
 ! A11   A(1,4,6)              128.056          calculate D2E/DX2 analytically  !
 ! A12   A(5,4,6)              122.5853         calculate D2E/DX2 analytically  !
 ! A13   A(3,5,4)              108.323          calculate D2E/DX2 analytically  !
 ! A14   A(3,5,9)              126.3729         calculate D2E/DX2 analytically  !
 ! A15   A(4,5,9)              125.2974         calculate D2E/DX2 analytically  !
 ! A16   A(4,6,7)              113.9117         calculate D2E/DX2 analytically  !
 ! A17   A(4,6,15)             114.244          calculate D2E/DX2 analytically  !
 ! A18   A(7,6,15)             131.8302         calculate D2E/DX2 analytically  !
 ! A19   A(6,7,8)              122.7743         calculate D2E/DX2 analytically  !
 ! A20   A(6,7,33)             118.9685         calculate D2E/DX2 analytically  !
 ! A21   A(8,7,33)             118.2572         calculate D2E/DX2 analytically  !
 ! A22   A(7,8,9)              121.8349         calculate D2E/DX2 analytically  !
 ! A23   A(7,8,34)             118.446          calculate D2E/DX2 analytically  !
 ! A24   A(9,8,34)             119.7187         calculate D2E/DX2 analytically  !
 ! A25   A(5,9,8)              113.5449         calculate D2E/DX2 analytically  !
 ! A26   A(5,9,12)             113.4167         calculate D2E/DX2 analytically  !
 ! A27   A(8,9,12)             133.0348         calculate D2E/DX2 analytically  !
 ! A28   A(3,10,11)            114.8479         calculate D2E/DX2 analytically  !
 ! A29   A(3,10,18)            113.7322         calculate D2E/DX2 analytically  !
 ! A30   A(11,10,18)           131.284          calculate D2E/DX2 analytically  !
 ! A31   A(10,11,12)           122.8771         calculate D2E/DX2 analytically  !
 ! A32   A(10,11,36)           118.6297         calculate D2E/DX2 analytically  !
 ! A33   A(12,11,36)           118.4896         calculate D2E/DX2 analytically  !
 ! A34   A(9,12,11)            121.6515         calculate D2E/DX2 analytically  !
 ! A35   A(9,12,35)            119.7432         calculate D2E/DX2 analytically  !
 ! A36   A(11,12,35)           118.5993         calculate D2E/DX2 analytically  !
 ! A37   A(1,13,14)            121.0157         calculate D2E/DX2 analytically  !
 ! A38   A(13,14,15)           121.8562         calculate D2E/DX2 analytically  !
 ! A39   A(13,14,31)           119.4828         calculate D2E/DX2 analytically  !
 ! A40   A(15,14,31)           118.6588         calculate D2E/DX2 analytically  !
 ! A41   A(6,15,14)            119.8206         calculate D2E/DX2 analytically  !
 ! A42   A(6,15,32)            120.9382         calculate D2E/DX2 analytically  !
 ! A43   A(14,15,32)           119.2324         calculate D2E/DX2 analytically  !
 ! A44   A(2,16,17)            115.2133         calculate D2E/DX2 analytically  !
 ! A45   A(2,16,19)            124.7892         calculate D2E/DX2 analytically  !
 ! A46   A(17,16,19)           119.5557         calculate D2E/DX2 analytically  !
 ! A47   A(16,17,18)           123.4967         calculate D2E/DX2 analytically  !
 ! A48   A(16,17,22)           118.2601         calculate D2E/DX2 analytically  !
 ! A49   A(18,17,22)           117.962          calculate D2E/DX2 analytically  !
 ! A50   A(10,18,17)           120.8695         calculate D2E/DX2 analytically  !
 ! A51   A(10,18,37)           121.0342         calculate D2E/DX2 analytically  !
 ! A52   A(17,18,37)           117.9387         calculate D2E/DX2 analytically  !
 ! A53   A(16,19,20)           117.2734         calculate D2E/DX2 analytically  !
 ! A54   A(16,19,23)           125.0161         calculate D2E/DX2 analytically  !
 ! A55   A(20,19,23)           117.6881         calculate D2E/DX2 analytically  !
 ! A56   A(19,20,21)           120.4938         calculate D2E/DX2 analytically  !
 ! A57   A(19,20,26)           120.3755         calculate D2E/DX2 analytically  !
 ! A58   A(21,20,26)           119.1306         calculate D2E/DX2 analytically  !
 ! A59   A(20,21,22)           121.5356         calculate D2E/DX2 analytically  !
 ! A60   A(20,21,39)           118.0135         calculate D2E/DX2 analytically  !
 ! A61   A(22,21,39)           120.4454         calculate D2E/DX2 analytically  !
 ! A62   A(17,22,21)           120.987          calculate D2E/DX2 analytically  !
 ! A63   A(17,22,38)           118.3813         calculate D2E/DX2 analytically  !
 ! A64   A(21,22,38)           120.4458         calculate D2E/DX2 analytically  !
 ! A65   A(19,23,24)           119.1285         calculate D2E/DX2 analytically  !
 ! A66   A(19,23,30)           123.7985         calculate D2E/DX2 analytically  !
 ! A67   A(24,23,30)           116.7721         calculate D2E/DX2 analytically  !
 ! A68   A(23,24,25)           119.8126         calculate D2E/DX2 analytically  !
 ! A69   A(23,24,27)           120.4009         calculate D2E/DX2 analytically  !
 ! A70   A(25,24,27)           119.5266         calculate D2E/DX2 analytically  !
 ! A71   A(24,25,26)           120.2822         calculate D2E/DX2 analytically  !
 ! A72   A(24,25,41)           118.8074         calculate D2E/DX2 analytically  !
 ! A73   A(26,25,41)           120.7486         calculate D2E/DX2 analytically  !
 ! A74   A(20,26,25)           121.0872         calculate D2E/DX2 analytically  !
 ! A75   A(20,26,40)           118.368          calculate D2E/DX2 analytically  !
 ! A76   A(25,26,40)           120.5367         calculate D2E/DX2 analytically  !
 ! A77   A(24,27,28)           121.1712         calculate D2E/DX2 analytically  !
 ! A78   A(24,27,42)           118.3547         calculate D2E/DX2 analytically  !
 ! A79   A(28,27,42)           120.323          calculate D2E/DX2 analytically  !
 ! A80   A(27,28,29)           119.3637         calculate D2E/DX2 analytically  !
 ! A81   A(27,28,43)           120.3042         calculate D2E/DX2 analytically  !
 ! A82   A(29,28,43)           120.2521         calculate D2E/DX2 analytically  !
 ! A83   A(28,29,30)           120.9428         calculate D2E/DX2 analytically  !
 ! A84   A(28,29,44)           120.2805         calculate D2E/DX2 analytically  !
 ! A85   A(30,29,44)           118.7446         calculate D2E/DX2 analytically  !
 ! A86   A(23,30,29)           120.5392         calculate D2E/DX2 analytically  !
 ! A87   A(23,30,45)           117.4078         calculate D2E/DX2 analytically  !
 ! A88   A(29,30,45)           117.7035         calculate D2E/DX2 analytically  !
 ! D1    D(4,1,2,3)             -1.1268         calculate D2E/DX2 analytically  !
 ! D2    D(4,1,2,16)           170.6237         calculate D2E/DX2 analytically  !
 ! D3    D(13,1,2,3)           173.9116         calculate D2E/DX2 analytically  !
 ! D4    D(13,1,2,16)          -14.3379         calculate D2E/DX2 analytically  !
 ! D5    D(2,1,4,5)              1.3703         calculate D2E/DX2 analytically  !
 ! D6    D(2,1,4,6)            178.0613         calculate D2E/DX2 analytically  !
 ! D7    D(13,1,4,5)          -174.9776         calculate D2E/DX2 analytically  !
 ! D8    D(13,1,4,6)             1.7133         calculate D2E/DX2 analytically  !
 ! D9    D(2,1,13,14)         -177.0568         calculate D2E/DX2 analytically  !
 ! D10   D(4,1,13,14)           -2.2973         calculate D2E/DX2 analytically  !
 ! D11   D(1,2,3,5)              0.5001         calculate D2E/DX2 analytically  !
 ! D12   D(1,2,3,10)           175.9587         calculate D2E/DX2 analytically  !
 ! D13   D(16,2,3,5)          -173.0926         calculate D2E/DX2 analytically  !
 ! D14   D(16,2,3,10)            2.3661         calculate D2E/DX2 analytically  !
 ! D15   D(1,2,16,17)         -169.666          calculate D2E/DX2 analytically  !
 ! D16   D(1,2,16,19)            2.6381         calculate D2E/DX2 analytically  !
 ! D17   D(3,2,16,17)            1.3123         calculate D2E/DX2 analytically  !
 ! D18   D(3,2,16,19)          173.6165         calculate D2E/DX2 analytically  !
 ! D19   D(2,3,5,4)              0.3332         calculate D2E/DX2 analytically  !
 ! D20   D(2,3,5,9)            179.4287         calculate D2E/DX2 analytically  !
 ! D21   D(10,3,5,4)          -175.5365         calculate D2E/DX2 analytically  !
 ! D22   D(10,3,5,9)             3.559          calculate D2E/DX2 analytically  !
 ! D23   D(2,3,10,11)         -178.7326         calculate D2E/DX2 analytically  !
 ! D24   D(2,3,10,18)           -2.4846         calculate D2E/DX2 analytically  !
 ! D25   D(5,3,10,11)           -3.6804         calculate D2E/DX2 analytically  !
 ! D26   D(5,3,10,18)          172.5676         calculate D2E/DX2 analytically  !
 ! D27   D(1,4,5,3)             -1.0788         calculate D2E/DX2 analytically  !
 ! D28   D(1,4,5,9)            179.8135         calculate D2E/DX2 analytically  !
 ! D29   D(6,4,5,3)           -177.9866         calculate D2E/DX2 analytically  !
 ! D30   D(6,4,5,9)              2.9057         calculate D2E/DX2 analytically  !
 ! D31   D(1,4,6,7)           -178.6047         calculate D2E/DX2 analytically  !
 ! D32   D(1,4,6,15)             0.1924         calculate D2E/DX2 analytically  !
 ! D33   D(5,4,6,7)             -2.3124         calculate D2E/DX2 analytically  !
 ! D34   D(5,4,6,15)           176.4848         calculate D2E/DX2 analytically  !
 ! D35   D(3,5,9,8)            179.5942         calculate D2E/DX2 analytically  !
 ! D36   D(3,5,9,12)            -1.0017         calculate D2E/DX2 analytically  !
 ! D37   D(4,5,9,8)             -1.4578         calculate D2E/DX2 analytically  !
 ! D38   D(4,5,9,12)           177.9463         calculate D2E/DX2 analytically  !
 ! D39   D(4,6,7,8)              0.7023         calculate D2E/DX2 analytically  !
 ! D40   D(4,6,7,33)          -179.352          calculate D2E/DX2 analytically  !
 ! D41   D(15,6,7,8)          -177.8257         calculate D2E/DX2 analytically  !
 ! D42   D(15,6,7,33)            2.12           calculate D2E/DX2 analytically  !
 ! D43   D(4,6,15,14)           -1.4907         calculate D2E/DX2 analytically  !
 ! D44   D(4,6,15,32)          179.5962         calculate D2E/DX2 analytically  !
 ! D45   D(7,6,15,14)          177.0335         calculate D2E/DX2 analytically  !
 ! D46   D(7,6,15,32)           -1.8796         calculate D2E/DX2 analytically  !
 ! D47   D(6,7,8,9)              0.538          calculate D2E/DX2 analytically  !
 ! D48   D(6,7,8,34)          -179.6989         calculate D2E/DX2 analytically  !
 ! D49   D(33,7,8,9)          -179.408          calculate D2E/DX2 analytically  !
 ! D50   D(33,7,8,34)            0.355          calculate D2E/DX2 analytically  !
 ! D51   D(7,8,9,5)             -0.2094         calculate D2E/DX2 analytically  !
 ! D52   D(7,8,9,12)          -179.4612         calculate D2E/DX2 analytically  !
 ! D53   D(34,8,9,5)          -179.9694         calculate D2E/DX2 analytically  !
 ! D54   D(34,8,9,12)            0.7787         calculate D2E/DX2 analytically  !
 ! D55   D(5,9,12,11)           -1.0284         calculate D2E/DX2 analytically  !
 ! D56   D(5,9,12,35)          179.8791         calculate D2E/DX2 analytically  !
 ! D57   D(8,9,12,11)          178.2242         calculate D2E/DX2 analytically  !
 ! D58   D(8,9,12,35)           -0.8684         calculate D2E/DX2 analytically  !
 ! D59   D(3,10,11,12)           1.7957         calculate D2E/DX2 analytically  !
 ! D60   D(3,10,11,36)        -178.8988         calculate D2E/DX2 analytically  !
 ! D61   D(18,10,11,12)       -173.6319         calculate D2E/DX2 analytically  !
 ! D62   D(18,10,11,36)          5.6737         calculate D2E/DX2 analytically  !
 ! D63   D(3,10,18,17)          -1.1464         calculate D2E/DX2 analytically  !
 ! D64   D(3,10,18,37)        -176.4893         calculate D2E/DX2 analytically  !
 ! D65   D(11,10,18,17)        174.3212         calculate D2E/DX2 analytically  !
 ! D66   D(11,10,18,37)         -1.0217         calculate D2E/DX2 analytically  !
 ! D67   D(10,11,12,9)           0.5859         calculate D2E/DX2 analytically  !
 ! D68   D(10,11,12,35)        179.6885         calculate D2E/DX2 analytically  !
 ! D69   D(36,11,12,9)        -178.7206         calculate D2E/DX2 analytically  !
 ! D70   D(36,11,12,35)          0.382          calculate D2E/DX2 analytically  !
 ! D71   D(1,13,14,15)           1.1438         calculate D2E/DX2 analytically  !
 ! D72   D(1,13,14,31)        -179.4093         calculate D2E/DX2 analytically  !
 ! D73   D(13,14,15,6)           0.9157         calculate D2E/DX2 analytically  !
 ! D74   D(13,14,15,32)        179.8474         calculate D2E/DX2 analytically  !
 ! D75   D(31,14,15,6)        -178.5356         calculate D2E/DX2 analytically  !
 ! D76   D(31,14,15,32)          0.3961         calculate D2E/DX2 analytically  !
 ! D77   D(2,16,17,18)          -4.7989         calculate D2E/DX2 analytically  !
 ! D78   D(2,16,17,22)         168.9771         calculate D2E/DX2 analytically  !
 ! D79   D(19,16,17,18)       -177.5356         calculate D2E/DX2 analytically  !
 ! D80   D(19,16,17,22)         -3.7596         calculate D2E/DX2 analytically  !
 ! D81   D(2,16,19,20)        -158.0719         calculate D2E/DX2 analytically  !
 ! D82   D(2,16,19,23)          20.1631         calculate D2E/DX2 analytically  !
 ! D83   D(17,16,19,20)         13.922          calculate D2E/DX2 analytically  !
 ! D84   D(17,16,19,23)       -167.843          calculate D2E/DX2 analytically  !
 ! D85   D(16,17,18,10)          4.8464         calculate D2E/DX2 analytically  !
 ! D86   D(16,17,18,37)       -179.6702         calculate D2E/DX2 analytically  !
 ! D87   D(22,17,18,10)       -168.9469         calculate D2E/DX2 analytically  !
 ! D88   D(22,17,18,37)          6.5365         calculate D2E/DX2 analytically  !
 ! D89   D(16,17,22,21)         -6.7482         calculate D2E/DX2 analytically  !
 ! D90   D(16,17,22,38)        178.1854         calculate D2E/DX2 analytically  !
 ! D91   D(18,17,22,21)        167.3767         calculate D2E/DX2 analytically  !
 ! D92   D(18,17,22,38)         -7.6897         calculate D2E/DX2 analytically  !
 ! D93   D(16,19,20,21)        -14.2612         calculate D2E/DX2 analytically  !
 ! D94   D(16,19,20,26)        165.8194         calculate D2E/DX2 analytically  !
 ! D95   D(23,19,20,21)        167.3712         calculate D2E/DX2 analytically  !
 ! D96   D(23,19,20,26)        -12.5481         calculate D2E/DX2 analytically  !
 ! D97   D(16,19,23,24)       -164.702          calculate D2E/DX2 analytically  !
 ! D98   D(16,19,23,30)         21.8099         calculate D2E/DX2 analytically  !
 ! D99   D(20,19,23,24)         13.5263         calculate D2E/DX2 analytically  !
 ! D100  D(20,19,23,30)       -159.9618         calculate D2E/DX2 analytically  !
 ! D101  D(19,20,21,22)          4.1609         calculate D2E/DX2 analytically  !
 ! D102  D(19,20,21,39)       -174.9921         calculate D2E/DX2 analytically  !
 ! D103  D(26,20,21,22)       -175.9188         calculate D2E/DX2 analytically  !
 ! D104  D(26,20,21,39)          4.9282         calculate D2E/DX2 analytically  !
 ! D105  D(19,20,26,25)          2.4982         calculate D2E/DX2 analytically  !
 ! D106  D(19,20,26,40)       -176.4711         calculate D2E/DX2 analytically  !
 ! D107  D(21,20,26,25)       -177.4222         calculate D2E/DX2 analytically  !
 ! D108  D(21,20,26,40)          3.6084         calculate D2E/DX2 analytically  !
 ! D109  D(20,21,22,17)          6.7655         calculate D2E/DX2 analytically  !
 ! D110  D(20,21,22,38)       -178.2696         calculate D2E/DX2 analytically  !
 ! D111  D(39,21,22,17)       -174.1018         calculate D2E/DX2 analytically  !
 ! D112  D(39,21,22,38)          0.8631         calculate D2E/DX2 analytically  !
 ! D113  D(19,23,24,25)         -4.7611         calculate D2E/DX2 analytically  !
 ! D114  D(19,23,24,27)       -178.8771         calculate D2E/DX2 analytically  !
 ! D115  D(30,23,24,25)        169.1796         calculate D2E/DX2 analytically  !
 ! D116  D(30,23,24,27)         -4.9364         calculate D2E/DX2 analytically  !
 ! D117  D(19,23,30,29)        170.7161         calculate D2E/DX2 analytically  !
 ! D118  D(19,23,30,45)         14.6614         calculate D2E/DX2 analytically  !
 ! D119  D(24,23,30,29)         -2.9132         calculate D2E/DX2 analytically  !
 ! D120  D(24,23,30,45)       -158.9679         calculate D2E/DX2 analytically  !
 ! D121  D(23,24,25,26)         -5.5371         calculate D2E/DX2 analytically  !
 ! D122  D(23,24,25,41)        179.0512         calculate D2E/DX2 analytically  !
 ! D123  D(27,24,25,26)        168.6306         calculate D2E/DX2 analytically  !
 ! D124  D(27,24,25,41)         -6.7811         calculate D2E/DX2 analytically  !
 ! D125  D(23,24,27,28)          6.9002         calculate D2E/DX2 analytically  !
 ! D126  D(23,24,27,42)       -177.5543         calculate D2E/DX2 analytically  !
 ! D127  D(25,24,27,28)       -167.2326         calculate D2E/DX2 analytically  !
 ! D128  D(25,24,27,42)          8.3129         calculate D2E/DX2 analytically  !
 ! D129  D(24,25,26,20)          6.7822         calculate D2E/DX2 analytically  !
 ! D130  D(24,25,26,40)       -174.2707         calculate D2E/DX2 analytically  !
 ! D131  D(41,25,26,20)       -177.8961         calculate D2E/DX2 analytically  !
 ! D132  D(41,25,26,40)          1.051          calculate D2E/DX2 analytically  !
 ! D133  D(24,27,28,29)         -0.6854         calculate D2E/DX2 analytically  !
 ! D134  D(24,27,28,43)        176.0706         calculate D2E/DX2 analytically  !
 ! D135  D(42,27,28,29)       -176.1439         calculate D2E/DX2 analytically  !
 ! D136  D(42,27,28,43)          0.6121         calculate D2E/DX2 analytically  !
 ! D137  D(27,28,29,30)         -7.3652         calculate D2E/DX2 analytically  !
 ! D138  D(27,28,29,44)        174.7214         calculate D2E/DX2 analytically  !
 ! D139  D(43,28,29,30)        175.8772         calculate D2E/DX2 analytically  !
 ! D140  D(43,28,29,44)         -2.0363         calculate D2E/DX2 analytically  !
 ! D141  D(28,29,30,23)          9.2088         calculate D2E/DX2 analytically  !
 ! D142  D(28,29,30,45)        165.1949         calculate D2E/DX2 analytically  !
 ! D143  D(44,29,30,23)       -172.8462         calculate D2E/DX2 analytically  !
 ! D144  D(44,29,30,45)        -16.8602         calculate D2E/DX2 analytically  !
 --------------------------------------------------------------------------------
 Trust Radius=3.00D-01 FncErr=1.00D-07 GrdErr=1.00D-06 EigMax=2.50D+02 EigMin=1.00D-04
 Number of steps in this run=    270 maximum allowed number of steps=    270.
 Search for a saddle point of order  1.
 GradGradGradGradGradGradGradGradGradGradGradGradGradGradGradGradGradGrad

                          Input orientation:                          
 ---------------------------------------------------------------------
 Center     Atomic      Atomic             Coordinates (Angstroms)
 Number     Number       Type             X           Y           Z
 ---------------------------------------------------------------------
      1          6           0        0.718640   -0.979690   -0.090410
      2          6           0        0.486847    0.468492    0.156850
      3          6           0        1.775329    1.044477    0.196866
      4          6           0        2.124202   -1.156375   -0.205901
      5          6           0        2.758039    0.067596   -0.016455
      6          6           0        2.824077   -2.337456   -0.401717
      7          6           0        4.260668   -2.168052   -0.442934
      8          6           0        4.876942   -0.933638   -0.284582
      9          6           0        4.117565    0.272927   -0.054737
     10          6           0        2.122623    2.387597    0.324570
     11          6           0        3.550647    2.653608    0.302968
     12          6           0        4.496308    1.660487    0.130466
     13          6           0       -0.011683   -2.127639   -0.149977
     14          6           0        0.613357   -3.379391   -0.363456
     15          6           0        1.999290   -3.498342   -0.498366
     16          6           0       -0.620900    1.331052    0.204588
     17          6           0       -0.298399    2.757319    0.261790
     18          6           0        1.019221    3.254933    0.368222
     19          6           0       -2.009523    0.912978    0.040215
     20          6           0       -2.942900    1.902473   -0.357130
     21          6           0       -2.601543    3.292751   -0.290444
     22          6           0       -1.360334    3.701669    0.070824
     23          6           0       -2.497010   -0.440362    0.216842
     24          6           0       -3.789515   -0.785119   -0.285244
     25          6           0       -4.618218    0.221288   -0.857109
     26          6           0       -4.233071    1.527644   -0.826314
     27          6           0       -4.303063   -2.095149   -0.106350
     28          6           0       -3.638819   -3.023590    0.672070
     29          6           0       -2.434113   -2.669485    1.281121
     30          6           0       -1.812675   -1.444573    0.993211
     31          1           0        0.006101   -4.277735   -0.416201
     32          1           0        2.434066   -4.480167   -0.658463
     33          1           0        4.888317   -3.038955   -0.603209
     34          1           0        5.960058   -0.886617   -0.332962
     35          1           0        5.545437    1.938193    0.120495
     36          1           0        3.890544    3.678061    0.416203
     37          1           0        1.154670    4.331290    0.409182
     38          1           0       -1.129143    4.758990    0.142515
     39          1           0       -3.372760    4.018552   -0.525186
     40          1           0       -4.900747    2.307530   -1.176706
     41          1           0       -5.590052   -0.061332   -1.247372
     42          1           0       -5.270489   -2.332351   -0.535843
     43          1           0       -4.075181   -3.999726    0.851185
     44          1           0       -1.943969   -3.355178    1.962660
     45          1           0       -1.028776   -1.111121    1.656839
 ---------------------------------------------------------------------
                    Distance matrix (angstroms):
                    1          2          3          4          5
     1  C    0.000000
     2  C    1.487312   0.000000
     3  C    2.301385   1.411930   0.000000
     4  C    1.421323   2.335104   2.264439   0.000000
     5  C    2.293780   2.312805   1.401970   1.391310   0.000000
     6  C    2.524541   3.694318   3.591051   1.386766   2.436609
     7  C    3.752658   4.642503   4.111763   2.375745   2.727251
     8  C    4.163088   4.629661   3.710085   2.762857   2.358837
     9  C    3.622570   3.642132   2.478843   2.457489   1.375477
    10  C    3.671784   2.527223   1.393159   3.583454   2.429497
    11  C    4.623404   3.766026   2.398398   4.099959   2.723549
    12  C    4.614119   4.182980   2.790628   3.697937   2.362301
    13  C    1.361876   2.661310   3.657326   2.347016   3.536700
    14  C    2.417479   3.884962   4.608118   2.692448   4.074529
    15  C    2.854838   4.295645   4.601164   2.363461   3.677479
    16  C    2.687177   1.404775   2.413317   3.727114   3.614196
    17  C    3.888914   2.422055   2.690426   4.626525   4.080912
    18  C    4.269979   2.844706   2.342473   4.583693   3.651107
    19  C    3.322970   2.538313   3.790374   4.629306   4.842265
    20  C    4.667427   3.752818   4.827500   5.920722   5.998628
    21  C    5.414553   4.208879   4.944615   6.491112   6.261135
    22  C    5.124768   3.724636   4.112048   5.984911   5.493187
    23  C    3.275009   3.119778   4.523055   4.695422   5.284694
    24  C    4.516556   4.478198   5.877699   5.925890   6.608316
    25  C    5.523788   5.210654   6.531918   6.912471   7.425597
    26  C    5.598903   4.936197   6.114018   6.928477   7.187714
    27  C    5.144123   5.439188   6.848068   6.496225   7.385439
    28  C    4.873023   5.429660   6.788813   6.121253   7.137877
    29  C    3.830973   4.432030   5.717388   5.027820   6.011136
    30  C    2.792473   3.105981   4.438841   4.125522   4.919096
    31  H    3.389831   4.804807   5.641982   3.778024   5.158959
    32  H    3.939379   5.380114   5.629140   3.368742   4.604268
    33  H    4.678647   5.679156   5.196656   3.367832   3.812220
    34  H    5.247853   5.659706   4.639159   3.847428   3.356132
    35  H    5.644156   5.267891   3.875342   4.624687   3.359684
    36  H    5.657939   4.685483   3.384968   5.184472   3.808572
    37  H    5.352217   3.928214   3.351632   5.606495   4.575046
    38  H    6.033324   4.584758   4.715561   6.759970   6.094640
    39  H    6.473871   5.288163   5.989099   7.556349   7.311331
    40  H    6.600255   5.846931   6.931955   7.892465   8.063528
    41  H    6.479316   6.259493   7.586664   7.860884   8.439337
    42  H    6.156116   6.439834   7.847508   7.494881   8.395640
    43  H    5.743513   6.423330   7.752457   6.901770   7.999300
    44  H    4.116737   4.877527   6.025626   5.107583   6.143383
    45  H    2.474594   2.653725   3.826373   3.662392   4.304562
                    6          7          8          9         10
     6  C    0.000000
     7  C    1.447132   0.000000
     8  C    2.489715   1.388757   0.000000
     9  C    2.933872   2.475794   1.444050   0.000000
    10  C    4.831734   5.090603   4.357515   2.931808   0.000000
    11  C    5.092662   4.930406   3.869445   2.473255   1.452749
    12  C    4.366134   3.878405   2.654549   1.450196   2.490130
    13  C    2.854633   4.282574   5.034125   4.777288   5.016753
    14  C    2.444254   3.844026   4.915901   5.070918   6.000784
    15  C    1.427330   2.624228   3.860608   4.348145   5.944469
    16  C    5.068868   6.040920   5.966102   4.862091   2.942380
    17  C    6.012223   6.748408   6.380113   5.076724   2.449895
    18  C    5.926645   6.369750   5.731692   4.320994   1.404163
    19  C    5.841602   7.002962   7.137148   6.161160   4.396588
    20  C    7.158003   8.274535   8.318577   7.252381   5.134158
    21  C    7.819780   8.771178   8.590119   7.370299   4.849257
    22  C    7.362311   8.143294   7.779203   6.463700   3.731241
    23  C    5.682917   7.006171   7.407423   6.658464   5.417561
    24  C    6.794330   8.169628   8.667730   7.980884   6.737312
    25  C    7.883039   9.204081   9.582260   8.772706   7.178314
    26  C    8.057457   9.270855   9.452181   8.479550   6.516049
    27  C    7.137372   8.570653   9.254910   8.747424   7.846665
    28  C    6.587323   8.023533   8.820503   8.459123   7.911758
    29  C    5.530890   6.931370   7.675683   7.305258   6.874075
    30  C    4.923671   6.282629   6.829699   6.262248   5.533460
    31  H    3.421386   4.748981   5.909772   6.143559   7.032429
    32  H    2.192997   2.954455   4.322649   5.078440   6.944749
    33  H    2.189472   1.085405   2.129322   3.444335   6.160950
    34  H    3.456015   2.131219   1.085215   2.194705   5.087114
    35  H    5.095064   4.339278   2.976304   2.200599   3.458217
    36  H    6.163829   5.920485   4.767793   3.445034   2.190716
    37  H    6.922185   7.253604   6.485066   5.046214   2.173024
    38  H    8.141479   8.796404   8.286222   6.905912   4.028726
    39  H    8.877774   9.825989   9.624950   8.387848   5.794940
    40  H    9.047066  10.222562  10.339452   9.312807   7.182476
    41  H    8.757479  10.105547  10.547315   9.786314   8.243398
    42  H    8.095679   9.533026  10.246457   9.754717   8.813417
    43  H    7.206432   8.632274   9.530549   9.284253   8.915604
    44  H    5.418514   6.759709   7.578838   7.346784   7.224955
    45  H    4.537183   5.788296   6.219174   5.597312   4.893596
                   11         12         13         14         15
    11  C    0.000000
    12  C    1.382144   0.000000
    13  C    5.979605   5.894958   0.000000
    14  C    6.743061   6.381351   1.415320   0.000000
    15  C    6.394946   5.765765   2.458498   1.397555   0.000000
    16  C    4.377287   5.128337   3.529788   4.902483   5.539186
    17  C    3.850663   4.920315   4.910659   6.235498   6.707496
    18  C    2.602685   3.832613   5.504850   6.686878   6.878825
    19  C    5.832180   6.549256   3.643198   5.046472   5.985014
    20  C    6.570090   7.459097   4.987660   6.367503   7.322158
    21  C    6.213701   7.295268   6.008971   7.406645   8.205476
    22  C    5.026933   6.202438   5.987357   7.363794   7.965627
    23  C    6.793690   7.302570   3.026270   4.318451   5.484476
    24  C    8.127042   8.649200   4.011567   5.110934   6.396660
    25  C    8.601879   9.280150   5.218971   6.370083   7.599721
    26  C    7.945397   8.782661   5.624824   6.912387   8.013140
    27  C    9.186893   9.570257   4.291725   5.087884   6.468561
    28  C    9.168164   9.402883   3.825520   4.390889   5.777853
    29  C    8.069043   8.252478   2.865276   3.534922   4.848571
    30  C    6.785038   7.084419   2.239873   3.386694   4.579721
    31  H    7.818218   7.464803   2.166588   1.085617   2.141730
    32  H    7.284356   6.525556   3.431419   2.147957   1.085653
    33  H    5.917414   4.772495   5.004590   4.295190   2.927201
    34  H    4.329303   2.974066   6.102074   5.899327   4.747225
    35  H    2.127041   1.085307   6.890989   7.268860   6.520281
    36  H    1.085291   2.125841   7.018126   7.820195   7.477569
    37  H    2.926876   4.286889   6.587169   7.768178   7.927179
    38  H    5.134083   6.422349   6.982831   8.338199   8.853324
    39  H    7.105102   8.240909   7.015218   8.405049   9.239228
    40  H    8.586924   9.509574   6.680407   7.962901   9.043163
    41  H    9.660581  10.324619   6.049141   7.090353   8.364936
    42  H   10.167391  10.572466   5.276916   5.978767   7.362787
    43  H   10.135120  10.296984   4.584654   4.882884   6.242746
    44  H    8.309687   8.366062   3.115095   3.457068   4.650423
    45  H    6.080894   6.366960   2.309193   3.453005   4.417343
                   16         17         18         19         20
    16  C    0.000000
    17  C    1.463392   0.000000
    18  C    2.533395   1.412469   0.000000
    19  C    1.459479   2.525596   3.842607   0.000000
    20  C    2.456366   2.847316   4.248963   1.417101   0.000000
    21  C    2.831301   2.428193   3.680381   2.474498   1.433124
    22  C    2.486862   1.433866   2.439324   2.863421   2.434084
    23  C    2.580280   3.880860   5.103136   1.449265   2.452985
    24  C    3.841645   5.003599   6.314506   2.481497   2.818701
    25  C    4.282211   5.132663   6.518064   2.844102   2.425500
    26  C    3.761540   4.263533   5.656590   2.464316   1.423085
    27  C    5.039232   6.302325   7.561435   3.785583   4.230120
    28  C    5.318767   6.689219   7.823651   4.307019   5.080320
    29  C    4.522274   5.920347   6.917921   3.814992   4.883189
    30  C    3.121914   4.525915   5.522282   2.550490   3.782003
    31  H    5.677764   7.074205   7.640865   5.586999   6.847997
    32  H    6.621778   7.790663   7.930173   7.022795   8.351087
    33  H    7.078204   7.826049   7.451618   7.975711   9.263165
    34  H    6.965344   7.266380   6.485057   8.178754   9.329645
    35  H    6.196725   5.902656   4.720361   7.624627   8.501839
    36  H    5.089829   4.291719   2.902729   6.526702   7.102585
    37  H    3.492268   2.147212   1.085619   4.672591   4.824569
    38  H    3.465966   2.170495   2.632223   3.946814   3.420387
    39  H    3.915094   3.414928   4.546514   3.438413   2.165828
    40  H    4.602018   4.842849   6.191155   3.432907   2.160773
    41  H    5.360913   6.182552   7.569032   3.927766   3.414158
    42  H    5.965521   7.159793   8.461414   4.636583   4.835633
    43  H    6.384931   7.763319   8.877852   5.390666   6.130093
    44  H    5.177073   6.554653   7.417297   4.681586   5.832854
    45  H    2.870471   4.176654   4.991718   2.769894   4.098987
                   21         22         23         24         25
    21  C    0.000000
    22  C    1.355850   0.000000
    23  C    3.768872   4.297648   0.000000
    24  C    4.247391   5.114584   1.428817   0.000000
    25  C    3.717791   4.856740   2.467929   1.423599   0.000000
    26  C    2.462650   3.712662   2.824027   2.416272   1.362297
    27  C    5.653187   6.503395   2.470749   1.418419   2.455370
    28  C    6.472908   7.126156   2.860774   2.439244   3.718446
    29  C    6.168153   6.573388   2.470958   2.800259   4.207007
    30  C    4.971149   5.247782   1.442048   2.444836   3.750980
    31  H    8.007989   8.110193   4.625121   5.159672   6.466833
    32  H    9.268821   9.048302   6.434415   7.247457   8.478081
    33  H    9.812560   9.216071   7.871990   8.971379  10.053251
    34  H    9.527326   8.648905   8.486662   9.750218  10.649043
    35  H    8.269038   7.127551   8.387357   9.732542  10.353905
    36  H    6.541789   5.262277   7.602763   8.910405   9.271981
    37  H    3.959441   2.614604   6.011691   7.148764   7.198739
    38  H    2.122563   1.084673   5.376788   6.164228   5.810648
    39  H    1.084743   2.122617   4.604287   4.827682   4.010056
    40  H    2.653763   4.004308   3.907792   3.404999   2.129406
    41  H    4.593122   5.812773   3.443036   2.165985   1.084731
    42  H    6.230992   7.215730   3.440689   2.156388   2.655135
    43  H    7.526961   8.203100   3.944881   3.421516   4.585861
    44  H    7.050095   7.329308   3.442367   3.881278   5.281459
    45  H    5.065530   5.078220   2.163150   3.391112   4.580321
                   26         27         28         29         30
    26  C    0.000000
    27  C    3.694303   0.000000
    28  C    4.828252   1.381724   0.000000
    29  C    5.029257   2.397480   1.395582   0.000000
    30  C    4.243002   2.798985   2.435411   1.403384   0.000000
    31  H    7.200083   4.840308   4.005328   3.379647   3.649821
    32  H    8.976229   7.168127   6.385285   5.544341   5.475186
    33  H   10.203104   9.253059   8.621985   7.570019   7.070637
    34  H   10.486750  10.336516   9.885099   8.731895   7.904772
    35  H    9.832813  10.644823  10.453425   9.287140   8.145339
    36  H    8.494779  10.036843  10.083100   9.002261   7.687719
    37  H    6.197954   8.446996   8.782990   7.915206   6.519725
    38  H    4.584168   7.557442   8.194355   7.627687   6.298817
    39  H    2.652440   6.198244   7.148145   6.990969   5.880912
    40  H    1.084799   4.570172   5.781979   6.074197   5.321936
    41  H    2.131556   2.663585   4.033180   4.812036   4.604579
    42  H    4.007514   1.084731   2.144577   3.385269   3.883637
    43  H    5.778473   2.143879   1.084129   2.155804   3.415832
    44  H    6.071270   3.381390   2.155943   1.083933   2.146504
    45  H    4.837007   3.846830   3.382253   2.131815   1.079856
                   31         32         33         34         35
    31  H    0.000000
    32  H    2.448404   0.000000
    33  H    5.040395   2.846663   0.000000
    34  H    6.852460   5.045015   2.419550   0.000000
    35  H    8.343264   7.175148   5.072234   2.890862   0.000000
    36  H    8.892496   8.356609   6.866808   5.067585   2.419350
    37  H    8.724436   8.967636   8.323795   7.132257   5.008901
    38  H    9.124875   9.934790   9.877949   9.075006   7.246199
    39  H    8.958625  10.293941  10.865537  10.545100   9.180361
    40  H    8.247499  10.007042  11.168687  11.352161  10.532896
    41  H    7.055907   9.179291  10.912259  11.615605  11.395976
    42  H    5.625054   7.999270  10.183573  11.325038  11.646999
    43  H    4.282572   6.699265   9.131409  10.573536  11.329125
    44  H    3.211365   5.225235   7.305054   8.592864   9.354387
    45  H    3.923762   5.357459   6.620903   7.270042   7.408032
                   36         37         38         39         40
    36  H    0.000000
    37  H    2.812786   0.000000
    38  H    5.142039   2.338769   0.000000
    39  H    7.331966   4.633408   2.455176   0.000000
    40  H    9.038944   6.578656   4.687750   2.384705   0.000000
    41  H   10.326289   8.217699   6.713196   4.699297   2.468125
    42  H   10.997998   9.304829   8.240026   6.628383   4.698501
    43  H   11.072055   9.846448   9.268034   8.165817   6.676480
    44  H    9.268200   8.431883   8.355632   7.912188   7.117894
    45  H    6.976758   5.995325   6.063122   6.047234   5.891376
                   41         42         43         44         45
    41  H    0.000000
    42  H    2.401233   0.000000
    43  H    4.712719   2.476438   0.000000
    44  H    5.869212   4.284207   2.488550   0.000000
    45  H    5.508333   4.928629   4.274775   2.442723   0.000000
 Stoichiometry    C30H15(2)
 Framework group  C1[X(C30H15)]
 Deg. of freedom   129
 Full point group                 C1      NOp   1
 Largest Abelian subgroup         C1      NOp   1
 Largest concise Abelian subgroup C1      NOp   1
                         Standard orientation:                         
 ---------------------------------------------------------------------
 Center     Atomic      Atomic             Coordinates (Angstroms)
 Number     Number       Type             X           Y           Z
 ---------------------------------------------------------------------
      1          6           0        0.718640   -0.979690   -0.090410
      2          6           0        0.486847    0.468492    0.156850
      3          6           0        1.775329    1.044477    0.196866
      4          6           0        2.124202   -1.156375   -0.205901
      5          6           0        2.758039    0.067596   -0.016455
      6          6           0        2.824077   -2.337456   -0.401717
      7          6           0        4.260668   -2.168052   -0.442934
      8          6           0        4.876942   -0.933639   -0.284582
      9          6           0        4.117565    0.272927   -0.054737
     10          6           0        2.122623    2.387597    0.324570
     11          6           0        3.550647    2.653608    0.302968
     12          6           0        4.496308    1.660486    0.130466
     13          6           0       -0.011683   -2.127639   -0.149977
     14          6           0        0.613357   -3.379391   -0.363456
     15          6           0        1.999290   -3.498342   -0.498366
     16          6           0       -0.620900    1.331052    0.204588
     17          6           0       -0.298399    2.757319    0.261790
     18          6           0        1.019221    3.254933    0.368222
     19          6           0       -2.009523    0.912978    0.040215
     20          6           0       -2.942900    1.902473   -0.357130
     21          6           0       -2.601543    3.292751   -0.290444
     22          6           0       -1.360334    3.701669    0.070824
     23          6           0       -2.497010   -0.440362    0.216842
     24          6           0       -3.789515   -0.785119   -0.285244
     25          6           0       -4.618218    0.221288   -0.857109
     26          6           0       -4.233071    1.527644   -0.826314
     27          6           0       -4.303063   -2.095149   -0.106350
     28          6           0       -3.638819   -3.023590    0.672070
     29          6           0       -2.434113   -2.669485    1.281121
     30          6           0       -1.812675   -1.444573    0.993211
     31          1           0        0.006101   -4.277735   -0.416201
     32          1           0        2.434065   -4.480167   -0.658463
     33          1           0        4.888317   -3.038956   -0.603209
     34          1           0        5.960058   -0.886618   -0.332962
     35          1           0        5.545437    1.938192    0.120495
     36          1           0        3.890544    3.678061    0.416203
     37          1           0        1.154670    4.331290    0.409182
     38          1           0       -1.129143    4.758990    0.142515
     39          1           0       -3.372760    4.018552   -0.525186
     40          1           0       -4.900747    2.307530   -1.176706
     41          1           0       -5.590052   -0.061332   -1.247372
     42          1           0       -5.270489   -2.332351   -0.535843
     43          1           0       -4.075181   -3.999726    0.851185
     44          1           0       -1.943969   -3.355178    1.962660
     45          1           0       -1.028776   -1.111121    1.656839
 ---------------------------------------------------------------------
 Rotational constants (GHZ):           0.2730118           0.1532392           0.1016082
 Standard basis: 6-311+G(d,p) (5D, 7F)
 There are   780 symmetry adapted cartesian basis functions of A   symmetry.
 There are   750 symmetry adapted basis functions of A   symmetry.
   750 basis functions,  1200 primitive gaussians,   780 cartesian basis functions
    98 alpha electrons       97 beta electrons
       nuclear repulsion energy      2585.1096680091 Hartrees.
 NAtoms=   45 NActive=   45 NUniq=   45 SFac= 1.00D+00 NAtFMM=   60 NAOKFM=F Big=F
 Integral buffers will be    131072 words long.
 Raffenetti 2 integral format.
 Two-electron integral symmetry is turned on.
 One-electron integrals computed using PRISM.
 NBasis=   750 RedAO= T EigKep=  1.50D-06  NBF=   750
 NBsUse=   728 1.00D-06 EigRej=  9.71D-07 NBFU=   728
 ExpMin= 4.38D-02 ExpMax= 4.56D+03 ExpMxC= 6.82D+02 IAcc=2 IRadAn=         4 AccDes= 0.00D+00
 Harris functional with IExCor=  402 and IRadAn=       4 diagonalized for initial guess.
 HarFok:  IExCor=  402 AccDes= 0.00D+00 IRadAn=         4 IDoV= 1 UseB2=F ITyADJ=14
 ICtDFT=  3500011 ScaDFX=  1.000000  1.000000  1.000000  1.000000
 FoFCou: FMM=F IPFlag=           0 FMFlag=      100000 FMFlg1=           0
         NFxFlg=           0 DoJE=T BraDBF=F KetDBF=T FulRan=T
         wScrn=  0.000000 ICntrl=       500 IOpCl=  0 I1Cent=   200000004 NGrid=           0
         NMat0=    1 NMatS0=      1 NMatT0=    0 NMatD0=    1 NMtDS0=    0 NMtDT0=    0
 Petite list used in FoFCou.
 Initial guess <Sx>= 0.0000 <Sy>= 0.0000 <Sz>= 0.5000 <S**2>= 0.7500 S= 0.5000
 Requested convergence on RMS density matrix=1.00D-08 within 128 cycles.
 Requested convergence on MAX density matrix=1.00D-06.
 Requested convergence on             energy=1.00D-06.
 No special actions if energy rises.
 Restarting incremental Fock formation.
 SCF Done:  E(UB3LYP) =  -1152.43756381     A.U. after   23 cycles
            NFock= 23  Conv=0.10D-07     -V/T= 2.0045
 <Sx>= 0.0000 <Sy>= 0.0000 <Sz>= 0.5000 <S**2>= 0.7849 S= 0.5173
 <L.S>=  0.00000000000    
 Annihilation of the first spin contaminant:
 S**2 before annihilation     0.7849,   after     0.7508
 DoSCS=F DFT=T ScalE2(SS,OS)=  1.000000  1.000000
 Range of M.O.s used for correlation:     1   728
 NBasis=   750 NAE=    98 NBE=    97 NFC=     0 NFV=     0
 NROrb=    728 NOA=    98 NOB=    97 NVA=   630 NVB=   631

 **** Warning!!: The largest alpha MO coefficient is  0.11549090D+03


 **** Warning!!: The smallest alpha delta epsilon is  0.95152637D-01


 **** Warning!!: The largest beta MO coefficient is  0.11354376D+03

 Symmetrizing basis deriv contribution to polar:
 IMax=3 JMax=2 DiffMx= 0.00D+00
 G2DrvN: will do    46 centers at a time, making    1 passes.
 Calling FoFCou, ICntrl=  3107 FMM=F I1Cent=   0 AccDes= 0.00D+00.
 End of G2Drv F.D. properties file   721 does not exist.
 End of G2Drv F.D. properties file   722 does not exist.
 End of G2Drv F.D. properties file   788 does not exist.
          IDoAtm=111111111111111111111111111111111111111111111
          Differentiating once with respect to nuclear coordinates.
 CalDSu exits because no D1Ps are significant.
          There are   138 degrees of freedom in the 1st order CPHF.  IDoFFX=6 NUNeed=     0.
    132 vectors produced by pass  0 Test12= 1.23D-13 1.00D-09 XBig12= 5.51D-01 1.34D-01.
 AX will form   132 AO Fock derivatives at one time.
    132 vectors produced by pass  1 Test12= 1.23D-13 1.00D-09 XBig12= 1.42D-01 6.68D-02.
    132 vectors produced by pass  2 Test12= 1.23D-13 1.00D-09 XBig12= 2.72D-03 8.62D-03.
    132 vectors produced by pass  3 Test12= 1.23D-13 1.00D-09 XBig12= 3.51D-05 1.28D-03.
    132 vectors produced by pass  4 Test12= 1.23D-13 1.00D-09 XBig12= 3.46D-07 6.59D-05.
    132 vectors produced by pass  5 Test12= 1.23D-13 1.00D-09 XBig12= 2.43D-09 4.75D-06.
    130 vectors produced by pass  6 Test12= 1.23D-13 1.00D-09 XBig12= 6.75D-11 5.43D-07.
    114 vectors produced by pass  7 Test12= 1.23D-13 1.00D-09 XBig12= 1.28D-11 1.80D-07.
     85 vectors produced by pass  8 Test12= 1.23D-13 1.00D-09 XBig12= 1.14D-12 4.83D-08.
     18 vectors produced by pass  9 Test12= 1.23D-13 1.00D-09 XBig12= 1.35D-14 6.70D-09.
      1 vectors produced by pass 10 Test12= 1.23D-13 1.00D-09 XBig12= 6.09D-16 1.38D-09.
 InvSVY:  IOpt=1 It=  1 EMax= 9.99D-16
 Solved reduced A of dimension  1140 with   138 vectors.
 End of Minotr F.D. properties file   721 does not exist.
 End of Minotr F.D. properties file   722 does not exist.
 End of Minotr F.D. properties file   788 does not exist.

 **********************************************************************

            Population analysis using the SCF Density.

 **********************************************************************

 Orbital symmetries:
 Alpha Orbitals:
       Occupied  (A) (A) (A) (A) (A) (A) (A) (A) (A) (A) (A) (A)
                 (A) (A) (A) (A) (A) (A) (A) (A) (A) (A) (A) (A)
                 (A) (A) (A) (A) (A) (A) (A) (A) (A) (A) (A) (A)
                 (A) (A) (A) (A) (A) (A) (A) (A) (A) (A) (A) (A)
                 (A) (A) (A) (A) (A) (A) (A) (A) (A) (A) (A) (A)
                 (A) (A) (A) (A) (A) (A) (A) (A) (A) (A) (A) (A)
                 (A) (A) (A) (A) (A) (A) (A) (A) (A) (A) (A) (A)
                 (A) (A) (A) (A) (A) (A) (A) (A) (A) (A) (A) (A)
                 (A) (A)
       Virtual   (A) (A) (A) (A) (A) (A) (A) (A) (A) (A) (A) (A)
                 (A) (A) (A) (A) (A) (A) (A) (A) (A) (A) (A) (A)
                 (A) (A) (A) (A) (A) (A) (A) (A) (A) (A) (A) (A)
                 (A) (A) (A) (A) (A) (A) (A) (A) (A) (A) (A) (A)
                 (A) (A) (A) (A) (A) (A) (A) (A) (A) (A) (A) (A)
                 (A) (A) (A) (A) (A) (A) (A) (A) (A) (A) (A) (A)
                 (A) (A) (A) (A) (A) (A) (A) (A) (A) (A) (A) (A)
                 (A) (A) (A) (A) (A) (A) (A) (A) (A) (A) (A) (A)
                 (A) (A) (A) (A) (A) (A) (A) (A) (A) (A) (A) (A)
                 (A) (A) (A) (A) (A) (A) (A) (A) (A) (A) (A) (A)
                 (A) (A) (A) (A) (A) (A) (A) (A) (A) (A) (A) (A)
                 (A) (A) (A) (A) (A) (A) (A) (A) (A) (A) (A) (A)
                 (A) (A) (A) (A) (A) (A) (A) (A) (A) (A) (A) (A)
                 (A) (A) (A) (A) (A) (A) (A) (A) (A) (A) (A) (A)
                 (A) (A) (A) (A) (A) (A) (A) (A) (A) (A) (A) (A)
                 (A) (A) (A) (A) (A) (A) (A) (A) (A) (A) (A) (A)
                 (A) (A) (A) (A) (A) (A) (A) (A) (A) (A) (A) (A)
                 (A) (A) (A) (A) (A) (A) (A) (A) (A) (A) (A) (A)
                 (A) (A) (A) (A) (A) (A) (A) (A) (A) (A) (A) (A)
                 (A) (A) (A) (A) (A) (A) (A) (A) (A) (A) (A) (A)
                 (A) (A) (A) (A) (A) (A) (A) (A) (A) (A) (A) (A)
                 (A) (A) (A) (A) (A) (A) (A) (A) (A) (A) (A) (A)
                 (A) (A) (A) (A) (A) (A) (A) (A) (A) (A) (A) (A)
                 (A) (A) (A) (A) (A) (A) (A) (A) (A) (A) (A) (A)
                 (A) (A) (A) (A) (A) (A) (A) (A) (A) (A) (A) (A)
                 (A) (A) (A) (A) (A) (A) (A) (A) (A) (A) (A) (A)
                 (A) (A) (A) (A) (A) (A) (A) (A) (A) (A) (A) (A)
                 (A) (A) (A) (A) (A) (A) (A) (A) (A) (A) (A) (A)
                 (A) (A) (A) (A) (A) (A) (A) (A) (A) (A) (A) (A)
                 (A) (A) (A) (A) (A) (A) (A) (A) (A) (A) (A) (A)
                 (A) (A) (A) (A) (A) (A) (A) (A) (A) (A) (A) (A)
                 (A) (A) (A) (A) (A) (A) (A) (A) (A) (A) (A) (A)
                 (A) (A) (A) (A) (A) (A) (A) (A) (A) (A) (A) (A)
                 (A) (A) (A) (A) (A) (A) (A) (A) (A) (A) (A) (A)
                 (A) (A) (A) (A) (A) (A) (A) (A) (A) (A) (A) (A)
                 (A) (A) (A) (A) (A) (A) (A) (A) (A) (A) (A) (A)
                 (A) (A) (A) (A) (A) (A) (A) (A) (A) (A) (A) (A)
                 (A) (A) (A) (A) (A) (A) (A) (A) (A) (A) (A) (A)
                 (A) (A) (A) (A) (A) (A) (A) (A) (A) (A) (A) (A)
                 (A) (A) (A) (A) (A) (A) (A) (A) (A) (A) (A) (A)
                 (A) (A) (A) (A) (A) (A) (A) (A) (A) (A) (A) (A)
                 (A) (A) (A) (A) (A) (A) (A) (A) (A) (A) (A) (A)
                 (A) (A) (A) (A) (A) (A) (A) (A) (A) (A) (A) (A)
                 (A) (A) (A) (A) (A) (A) (A) (A) (A) (A) (A) (A)
                 (A) (A) (A) (A) (A) (A) (A) (A) (A) (A) (A) (A)
                 (A) (A) (A) (A) (A) (A) (A) (A) (A) (A) (A) (A)
                 (A) (A) (A) (A) (A) (A) (A) (A) (A) (A) (A) (A)
                 (A) (A) (A) (A) (A) (A) (A) (A) (A) (A) (A) (A)
                 (A) (A) (A) (A) (A) (A) (A) (A) (A) (A) (A) (A)
                 (A) (A) (A) (A) (A) (A) (A) (A) (A) (A) (A) (A)
                 (A) (A) (A) (A) (A) (A) (A) (A) (A) (A) (A) (A)
                 (A) (A) (A) (A) (A) (A) (A) (A) (A) (A) (A) (A)
                 (A) (A) (A) (A) (A) (A)
 Beta  Orbitals:
       Occupied  (A) (A) (A) (A) (A) (A) (A) (A) (A) (A) (A) (A)
                 (A) (A) (A) (A) (A) (A) (A) (A) (A) (A) (A) (A)
                 (A) (A) (A) (A) (A) (A) (A) (A) (A) (A) (A) (A)
                 (A) (A) (A) (A) (A) (A) (A) (A) (A) (A) (A) (A)
                 (A) (A) (A) (A) (A) (A) (A) (A) (A) (A) (A) (A)
                 (A) (A) (A) (A) (A) (A) (A) (A) (A) (A) (A) (A)
                 (A) (A) (A) (A) (A) (A) (A) (A) (A) (A) (A) (A)
                 (A) (A) (A) (A) (A) (A) (A) (A) (A) (A) (A) (A)
                 (A)
       Virtual   (A) (A) (A) (A) (A) (A) (A) (A) (A) (A) (A) (A)
                 (A) (A) (A) (A) (A) (A) (A) (A) (A) (A) (A) (A)
                 (A) (A) (A) (A) (A) (A) (A) (A) (A) (A) (A) (A)
                 (A) (A) (A) (A) (A) (A) (A) (A) (A) (A) (A) (A)
                 (A) (A) (A) (A) (A) (A) (A) (A) (A) (A) (A) (A)
                 (A) (A) (A) (A) (A) (A) (A) (A) (A) (A) (A) (A)
                 (A) (A) (A) (A) (A) (A) (A) (A) (A) (A) (A) (A)
                 (A) (A) (A) (A) (A) (A) (A) (A) (A) (A) (A) (A)
                 (A) (A) (A) (A) (A) (A) (A) (A) (A) (A) (A) (A)
                 (A) (A) (A) (A) (A) (A) (A) (A) (A) (A) (A) (A)
                 (A) (A) (A) (A) (A) (A) (A) (A) (A) (A) (A) (A)
                 (A) (A) (A) (A) (A) (A) (A) (A) (A) (A) (A) (A)
                 (A) (A) (A) (A) (A) (A) (A) (A) (A) (A) (A) (A)
                 (A) (A) (A) (A) (A) (A) (A) (A) (A) (A) (A) (A)
                 (A) (A) (A) (A) (A) (A) (A) (A) (A) (A) (A) (A)
                 (A) (A) (A) (A) (A) (A) (A) (A) (A) (A) (A) (A)
                 (A) (A) (A) (A) (A) (A) (A) (A) (A) (A) (A) (A)
                 (A) (A) (A) (A) (A) (A) (A) (A) (A) (A) (A) (A)
                 (A) (A) (A) (A) (A) (A) (A) (A) (A) (A) (A) (A)
                 (A) (A) (A) (A) (A) (A) (A) (A) (A) (A) (A) (A)
                 (A) (A) (A) (A) (A) (A) (A) (A) (A) (A) (A) (A)
                 (A) (A) (A) (A) (A) (A) (A) (A) (A) (A) (A) (A)
                 (A) (A) (A) (A) (A) (A) (A) (A) (A) (A) (A) (A)
                 (A) (A) (A) (A) (A) (A) (A) (A) (A) (A) (A) (A)
                 (A) (A) (A) (A) (A) (A) (A) (A) (A) (A) (A) (A)
                 (A) (A) (A) (A) (A) (A) (A) (A) (A) (A) (A) (A)
                 (A) (A) (A) (A) (A) (A) (A) (A) (A) (A) (A) (A)
                 (A) (A) (A) (A) (A) (A) (A) (A) (A) (A) (A) (A)
                 (A) (A) (A) (A) (A) (A) (A) (A) (A) (A) (A) (A)
                 (A) (A) (A) (A) (A) (A) (A) (A) (A) (A) (A) (A)
                 (A) (A) (A) (A) (A) (A) (A) (A) (A) (A) (A) (A)
                 (A) (A) (A) (A) (A) (A) (A) (A) (A) (A) (A) (A)
                 (A) (A) (A) (A) (A) (A) (A) (A) (A) (A) (A) (A)
                 (A) (A) (A) (A) (A) (A) (A) (A) (A) (A) (A) (A)
                 (A) (A) (A) (A) (A) (A) (A) (A) (A) (A) (A) (A)
                 (A) (A) (A) (A) (A) (A) (A) (A) (A) (A) (A) (A)
                 (A) (A) (A) (A) (A) (A) (A) (A) (A) (A) (A) (A)
                 (A) (A) (A) (A) (A) (A) (A) (A) (A) (A) (A) (A)
                 (A) (A) (A) (A) (A) (A) (A) (A) (A) (A) (A) (A)
                 (A) (A) (A) (A) (A) (A) (A) (A) (A) (A) (A) (A)
                 (A) (A) (A) (A) (A) (A) (A) (A) (A) (A) (A) (A)
                 (A) (A) (A) (A) (A) (A) (A) (A) (A) (A) (A) (A)
                 (A) (A) (A) (A) (A) (A) (A) (A) (A) (A) (A) (A)
                 (A) (A) (A) (A) (A) (A) (A) (A) (A) (A) (A) (A)
                 (A) (A) (A) (A) (A) (A) (A) (A) (A) (A) (A) (A)
                 (A) (A) (A) (A) (A) (A) (A) (A) (A) (A) (A) (A)
                 (A) (A) (A) (A) (A) (A) (A) (A) (A) (A) (A) (A)
                 (A) (A) (A) (A) (A) (A) (A) (A) (A) (A) (A) (A)
                 (A) (A) (A) (A) (A) (A) (A) (A) (A) (A) (A) (A)
                 (A) (A) (A) (A) (A) (A) (A) (A) (A) (A) (A) (A)
                 (A) (A) (A) (A) (A) (A) (A) (A) (A) (A) (A) (A)
                 (A) (A) (A) (A) (A) (A) (A) (A) (A) (A) (A) (A)
                 (A) (A) (A) (A) (A) (A) (A)
 The electronic state is 2-A.
 Alpha  occ. eigenvalues --  -10.20592 -10.20083 -10.19984 -10.19898 -10.19893
 Alpha  occ. eigenvalues --  -10.19707 -10.19586 -10.19432 -10.19325 -10.19208
 Alpha  occ. eigenvalues --  -10.19174 -10.19152 -10.19102 -10.19091 -10.19047
 Alpha  occ. eigenvalues --  -10.19019 -10.18863 -10.18831 -10.18606 -10.18572
 Alpha  occ. eigenvalues --  -10.18567 -10.18522 -10.18476 -10.18440 -10.18334
 Alpha  occ. eigenvalues --  -10.18177 -10.18109 -10.17056 -10.16765 -10.16539
 Alpha  occ. eigenvalues --   -0.92038  -0.89437  -0.87295  -0.85527  -0.84430
 Alpha  occ. eigenvalues --   -0.82290  -0.81012  -0.79461  -0.78956  -0.76120
 Alpha  occ. eigenvalues --   -0.75010  -0.74665  -0.72740  -0.72120  -0.71354
 Alpha  occ. eigenvalues --   -0.66374  -0.65207  -0.63426  -0.62931  -0.62372
 Alpha  occ. eigenvalues --   -0.61192  -0.59969  -0.58583  -0.56712  -0.54430
 Alpha  occ. eigenvalues --   -0.53363  -0.52289  -0.51397  -0.50469  -0.50258
 Alpha  occ. eigenvalues --   -0.49230  -0.47765  -0.47311  -0.45883  -0.44953
 Alpha  occ. eigenvalues --   -0.44453  -0.44279  -0.44004  -0.43524  -0.42977
 Alpha  occ. eigenvalues --   -0.42785  -0.42370  -0.41339  -0.41035  -0.40790
 Alpha  occ. eigenvalues --   -0.40164  -0.39878  -0.38666  -0.37969  -0.37061
 Alpha  occ. eigenvalues --   -0.36840  -0.36308  -0.35432  -0.35017  -0.34234
 Alpha  occ. eigenvalues --   -0.33709  -0.33274  -0.32818  -0.31846  -0.29879
 Alpha  occ. eigenvalues --   -0.29247  -0.28083  -0.25837  -0.24748  -0.22948
 Alpha  occ. eigenvalues --   -0.22555  -0.21431  -0.18816
 Alpha virt. eigenvalues --   -0.09301  -0.05836  -0.04489  -0.03992  -0.01434
 Alpha virt. eigenvalues --   -0.00214  -0.00094   0.00464   0.00612   0.00701
 Alpha virt. eigenvalues --    0.01559   0.01649   0.01838   0.02537   0.02821
 Alpha virt. eigenvalues --    0.02978   0.03564   0.03848   0.04365   0.04533
 Alpha virt. eigenvalues --    0.04698   0.05038   0.05295   0.05667   0.06000
 Alpha virt. eigenvalues --    0.06571   0.06796   0.07090   0.07558   0.07763
 Alpha virt. eigenvalues --    0.08168   0.08724   0.09006   0.09133   0.09416
 Alpha virt. eigenvalues --    0.09622   0.10145   0.10458   0.10836   0.11208
 Alpha virt. eigenvalues --    0.11525   0.11803   0.12101   0.12430   0.12810
 Alpha virt. eigenvalues --    0.13050   0.13359   0.13597   0.14279   0.14391
 Alpha virt. eigenvalues --    0.14688   0.14848   0.15392   0.15800   0.16228
 Alpha virt. eigenvalues --    0.16341   0.16642   0.16749   0.16886   0.16977
 Alpha virt. eigenvalues --    0.17290   0.17539   0.17600   0.17776   0.17906
 Alpha virt. eigenvalues --    0.18244   0.18427   0.18805   0.19158   0.19220
 Alpha virt. eigenvalues --    0.19352   0.19508   0.19781   0.19907   0.20292
 Alpha virt. eigenvalues --    0.20358   0.20462   0.20516   0.20670   0.21047
 Alpha virt. eigenvalues --    0.21479   0.21906   0.22112   0.22322   0.22530
 Alpha virt. eigenvalues --    0.22790   0.22948   0.23034   0.23470   0.23619
 Alpha virt. eigenvalues --    0.23857   0.23968   0.24029   0.24243   0.24634
 Alpha virt. eigenvalues --    0.24793   0.24906   0.25104   0.25386   0.25711
 Alpha virt. eigenvalues --    0.25853   0.26248   0.26623   0.26795   0.27000
 Alpha virt. eigenvalues --    0.27126   0.27641   0.27722   0.28164   0.28226
 Alpha virt. eigenvalues --    0.28380   0.28772   0.29046   0.29567   0.29649
 Alpha virt. eigenvalues --    0.29772   0.29886   0.30181   0.30507   0.30718
 Alpha virt. eigenvalues --    0.31161   0.31650   0.32026   0.32161   0.32419
 Alpha virt. eigenvalues --    0.32673   0.32869   0.33276   0.34155   0.34210
 Alpha virt. eigenvalues --    0.34459   0.34672   0.35406   0.35714   0.35834
 Alpha virt. eigenvalues --    0.36476   0.37051   0.38221   0.38306   0.38404
 Alpha virt. eigenvalues --    0.39402   0.39710   0.40137   0.40562   0.41143
 Alpha virt. eigenvalues --    0.41569   0.42068   0.42696   0.43440   0.43640
 Alpha virt. eigenvalues --    0.44368   0.45487   0.46067   0.46649   0.47801
 Alpha virt. eigenvalues --    0.48014   0.49056   0.49212   0.50172   0.50948
 Alpha virt. eigenvalues --    0.51380   0.52209   0.52319   0.52902   0.53324
 Alpha virt. eigenvalues --    0.53730   0.54143   0.54289   0.54910   0.55395
 Alpha virt. eigenvalues --    0.55587   0.55834   0.56309   0.56568   0.57181
 Alpha virt. eigenvalues --    0.57420   0.57766   0.57952   0.58708   0.58904
 Alpha virt. eigenvalues --    0.59107   0.59398   0.59497   0.60104   0.60351
 Alpha virt. eigenvalues --    0.61087   0.61551   0.62075   0.62608   0.63684
 Alpha virt. eigenvalues --    0.63981   0.64203   0.64385   0.64730   0.65004
 Alpha virt. eigenvalues --    0.65370   0.65979   0.66662   0.67005   0.67106
 Alpha virt. eigenvalues --    0.67351   0.67712   0.68235   0.68431   0.68600
 Alpha virt. eigenvalues --    0.68984   0.69309   0.69918   0.70059   0.70695
 Alpha virt. eigenvalues --    0.71243   0.71478   0.71646   0.71696   0.72324
 Alpha virt. eigenvalues --    0.72712   0.73112   0.73382   0.73531   0.73583
 Alpha virt. eigenvalues --    0.74238   0.74509   0.75015   0.75494   0.75903
 Alpha virt. eigenvalues --    0.76218   0.76701   0.77049   0.77157   0.77643
 Alpha virt. eigenvalues --    0.78334   0.78681   0.80055   0.80303   0.81182
 Alpha virt. eigenvalues --    0.82041   0.82168   0.82739   0.83568   0.83768
 Alpha virt. eigenvalues --    0.84436   0.84797   0.85931   0.86316   0.86738
 Alpha virt. eigenvalues --    0.87563   0.88291   0.88503   0.89339   0.90046
 Alpha virt. eigenvalues --    0.90330   0.90769   0.91076   0.91404   0.92139
 Alpha virt. eigenvalues --    0.93288   0.93497   0.93999   0.94391   0.94892
 Alpha virt. eigenvalues --    0.95129   0.95283   0.95818   0.96074   0.96413
 Alpha virt. eigenvalues --    0.96854   0.97151   0.97343   0.97748   0.98361
 Alpha virt. eigenvalues --    0.98836   0.99780   1.00205   1.00546   1.01241
 Alpha virt. eigenvalues --    1.01333   1.01958   1.02206   1.02553   1.03387
 Alpha virt. eigenvalues --    1.04097   1.04705   1.05423   1.06297   1.06422
 Alpha virt. eigenvalues --    1.06961   1.07697   1.08027   1.08429   1.10028
 Alpha virt. eigenvalues --    1.10533   1.10861   1.11095   1.11748   1.12413
 Alpha virt. eigenvalues --    1.12909   1.14355   1.15237   1.15329   1.15995
 Alpha virt. eigenvalues --    1.16391   1.17542   1.19349   1.19470   1.20702
 Alpha virt. eigenvalues --    1.22350   1.22935   1.23510   1.24182   1.25879
 Alpha virt. eigenvalues --    1.27509   1.29396   1.30213   1.30567   1.32296
 Alpha virt. eigenvalues --    1.33503   1.35418   1.35966   1.37706   1.38905
 Alpha virt. eigenvalues --    1.40037   1.40915   1.41515   1.43313   1.44757
 Alpha virt. eigenvalues --    1.45615   1.46758   1.46991   1.47713   1.48070
 Alpha virt. eigenvalues --    1.48211   1.48901   1.49268   1.49594   1.49987
 Alpha virt. eigenvalues --    1.50188   1.51433   1.51533   1.53204   1.53732
 Alpha virt. eigenvalues --    1.54515   1.54713   1.55581   1.56165   1.56524
 Alpha virt. eigenvalues --    1.57589   1.58017   1.58344   1.59024   1.59438
 Alpha virt. eigenvalues --    1.60378   1.60663   1.61430   1.62495   1.63095
 Alpha virt. eigenvalues --    1.64526   1.65575   1.65873   1.66601   1.67387
 Alpha virt. eigenvalues --    1.68213   1.69311   1.69656   1.71112   1.71566
 Alpha virt. eigenvalues --    1.72214   1.73110   1.73395   1.74136   1.74910
 Alpha virt. eigenvalues --    1.75766   1.76158   1.76623   1.77342   1.77856
 Alpha virt. eigenvalues --    1.78958   1.79936   1.81137   1.81915   1.82965
 Alpha virt. eigenvalues --    1.83219   1.83490   1.83959   1.84365   1.85315
 Alpha virt. eigenvalues --    1.85837   1.86469   1.86702   1.87073   1.87545
 Alpha virt. eigenvalues --    1.87909   1.87998   1.88837   1.89637   1.89764
 Alpha virt. eigenvalues --    1.90351   1.90480   1.90984   1.92361   1.92762
 Alpha virt. eigenvalues --    1.93726   1.93989   1.94665   1.95671   1.95994
 Alpha virt. eigenvalues --    1.97529   1.98468   1.98916   1.99493   2.00253
 Alpha virt. eigenvalues --    2.00578   2.01081   2.01724   2.02785   2.03680
 Alpha virt. eigenvalues --    2.04335   2.04491   2.05399   2.06085   2.07085
 Alpha virt. eigenvalues --    2.07808   2.08913   2.09164   2.10011   2.11240
 Alpha virt. eigenvalues --    2.11924   2.12611   2.13097   2.13528   2.15023
 Alpha virt. eigenvalues --    2.15457   2.16454   2.17630   2.18338   2.20449
 Alpha virt. eigenvalues --    2.21040   2.21838   2.22791   2.24322   2.24760
 Alpha virt. eigenvalues --    2.25518   2.26587   2.27537   2.28863   2.29506
 Alpha virt. eigenvalues --    2.32414   2.33572   2.34677   2.36096   2.37333
 Alpha virt. eigenvalues --    2.38604   2.39553   2.40882   2.42029   2.42980
 Alpha virt. eigenvalues --    2.44083   2.44165   2.45812   2.46232   2.47205
 Alpha virt. eigenvalues --    2.47883   2.49585   2.51152   2.54155   2.54825
 Alpha virt. eigenvalues --    2.56601   2.57121   2.57691   2.58788   2.61521
 Alpha virt. eigenvalues --    2.62558   2.63717   2.65288   2.65950   2.66283
 Alpha virt. eigenvalues --    2.67519   2.68326   2.69621   2.71135   2.71384
 Alpha virt. eigenvalues --    2.71858   2.72399   2.72716   2.73064   2.73473
 Alpha virt. eigenvalues --    2.74012   2.74363   2.74492   2.75078   2.75344
 Alpha virt. eigenvalues --    2.75513   2.75836   2.76530   2.76744   2.77249
 Alpha virt. eigenvalues --    2.77492   2.78021   2.78627   2.79074   2.79290
 Alpha virt. eigenvalues --    2.80142   2.80908   2.82738   2.83131   2.83811
 Alpha virt. eigenvalues --    2.84739   2.85275   2.85655   2.86066   2.87430
 Alpha virt. eigenvalues --    2.87831   2.88650   2.89474   2.90944   2.91133
 Alpha virt. eigenvalues --    2.92040   2.92587   2.93160   2.94400   2.96085
 Alpha virt. eigenvalues --    2.97086   2.99437   3.01193   3.01845   3.03117
 Alpha virt. eigenvalues --    3.04511   3.05865   3.07991   3.10502   3.11562
 Alpha virt. eigenvalues --    3.12920   3.14588   3.15412   3.15765   3.18782
 Alpha virt. eigenvalues --    3.19396   3.20503   3.21352   3.21965   3.22985
 Alpha virt. eigenvalues --    3.25312   3.26121   3.27556   3.30743   3.33094
 Alpha virt. eigenvalues --    3.34780   3.35456   3.38062   3.38536   3.38993
 Alpha virt. eigenvalues --    3.40061   3.42062   3.42466   3.44298   3.45434
 Alpha virt. eigenvalues --    3.46084   3.47712   3.48656   3.48828   3.49179
 Alpha virt. eigenvalues --    3.51186   3.54289   3.55227   3.55566   3.56926
 Alpha virt. eigenvalues --    3.60166   3.61824   3.62922   3.64858   3.67909
 Alpha virt. eigenvalues --    3.70706   3.72834   3.82174   3.82950   3.85347
 Alpha virt. eigenvalues --    3.87758   3.96009   4.02372   4.05841   4.06081
 Alpha virt. eigenvalues --    4.06442   4.06924   4.08842   4.09094   4.09695
 Alpha virt. eigenvalues --    4.17853   4.21326   4.25174   4.29339   4.34990
 Alpha virt. eigenvalues --    4.42173   4.65469   4.74962   4.76979   4.77686
 Alpha virt. eigenvalues --    4.78264   4.80636   4.82251   4.84500   4.87889
 Alpha virt. eigenvalues --   23.40008  23.58590  23.70451  23.76661  23.81147
 Alpha virt. eigenvalues --   23.83453  23.86318  23.89244  23.91052  23.92381
 Alpha virt. eigenvalues --   23.93274  23.94819  23.97762  23.98562  23.99147
 Alpha virt. eigenvalues --   24.00610  24.01392  24.03834  24.06639  24.06740
 Alpha virt. eigenvalues --   24.08967  24.11094  24.11251  24.12923  24.13884
 Alpha virt. eigenvalues --   24.16712  24.18434  24.19627  24.21253  24.21684
  Beta  occ. eigenvalues --  -10.20577 -10.20141 -10.19903 -10.19875 -10.19808
  Beta  occ. eigenvalues --  -10.19521 -10.19418 -10.19416 -10.19214 -10.19160
  Beta  occ. eigenvalues --  -10.19153 -10.19098 -10.19088 -10.19005 -10.18963
  Beta  occ. eigenvalues --  -10.18888 -10.18848 -10.18618 -10.18568 -10.18483
  Beta  occ. eigenvalues --  -10.18473 -10.18395 -10.18381 -10.18301 -10.18248
  Beta  occ. eigenvalues --  -10.18200 -10.18200 -10.17054 -10.16673 -10.16537
  Beta  occ. eigenvalues --   -0.91932  -0.89349  -0.87121  -0.85312  -0.84292
  Beta  occ. eigenvalues --   -0.82206  -0.80817  -0.79235  -0.78857  -0.75894
  Beta  occ. eigenvalues --   -0.74868  -0.74320  -0.72590  -0.71890  -0.71280
  Beta  occ. eigenvalues --   -0.66187  -0.65083  -0.63234  -0.62686  -0.62196
  Beta  occ. eigenvalues --   -0.61016  -0.59866  -0.58492  -0.56578  -0.54334
  Beta  occ. eigenvalues --   -0.53284  -0.52079  -0.51194  -0.50330  -0.50105
  Beta  occ. eigenvalues --   -0.48993  -0.47608  -0.47210  -0.45565  -0.44751
  Beta  occ. eigenvalues --   -0.44396  -0.44137  -0.43930  -0.43327  -0.42838
  Beta  occ. eigenvalues --   -0.42670  -0.42246  -0.41191  -0.40809  -0.40643
  Beta  occ. eigenvalues --   -0.40084  -0.39754  -0.38398  -0.37850  -0.36832
  Beta  occ. eigenvalues --   -0.36582  -0.36143  -0.35272  -0.34767  -0.34176
  Beta  occ. eigenvalues --   -0.33607  -0.33124  -0.32636  -0.31671  -0.29366
  Beta  occ. eigenvalues --   -0.28928  -0.27581  -0.25289  -0.23651  -0.22988
  Beta  occ. eigenvalues --   -0.22206  -0.20994
  Beta virt. eigenvalues --   -0.09768  -0.08575  -0.05592  -0.03848  -0.03521
  Beta virt. eigenvalues --   -0.01070  -0.00071   0.00011   0.00560   0.00696
  Beta virt. eigenvalues --    0.00884   0.01599   0.01664   0.01881   0.02676
  Beta virt. eigenvalues --    0.02846   0.02990   0.03660   0.03870   0.04406
  Beta virt. eigenvalues --    0.04564   0.04729   0.05081   0.05355   0.05751
  Beta virt. eigenvalues --    0.06092   0.06598   0.06839   0.07118   0.07610
  Beta virt. eigenvalues --    0.07818   0.08226   0.08735   0.09162   0.09204
  Beta virt. eigenvalues --    0.09437   0.09628   0.10177   0.10478   0.10866
  Beta virt. eigenvalues --    0.11259   0.11549   0.11860   0.12111   0.12464
  Beta virt. eigenvalues --    0.12862   0.13116   0.13419   0.13653   0.14338
  Beta virt. eigenvalues --    0.14438   0.14743   0.14954   0.15402   0.15814
  Beta virt. eigenvalues --    0.16266   0.16361   0.16680   0.16805   0.16915
[...]
 027,0.00000727,-0.00000149,-0.00000804,0.00001616,0.00000433,0.0003219
 9,-0.00012534,-0.00021131,-0.00003216,-0.00003911,0.00001927,-0.000005
 69,0.00000526,0.00002035,-0.00001612,-0.00021501,-0.00001629,-0.000104
 03,0.00003836,0.00002661,0.00002609,-0.00001917,0.00000542,-0.00044579
 ,0.00048692,-0.00037554,0.00028516,0.00013641,0.00012239,-0.00001110,-
 0.00003706,-0.00000939,0.00006819,-0.00004175,0.00001454,0.00265264,-0
 .00248909,-0.00035505,-0.00908789,-0.00226510,-0.00563143,-0.00001254,
 0.00244174,0.00119764,0.00006985,-0.00044319,0.00010043,-0.27164735,-0
 .05649873,-0.10809373,-0.00885196,-0.00602248,-0.00449831,0.00172779,0
 .00185967,-0.00363860,-0.00005064,0.00070016,0.00054555,0.00000552,0.0
 0000120,-0.00002341,-0.00001197,0.00000634,-0.00000635,-0.00000399,0.0
 0000443,-0.00000092,-0.00000544,-0.00000009,-0.00000037,-0.00000537,-0
 .00000078,0.00000014,-0.00000163,-0.00000469,-0.00000096,-0.00000629,-
 0.00000682,-0.00000795,-0.00000221,-0.00000534,0.00000259,0.00000545,-
 0.00001854,-0.00000474,0.00001902,-0.00005304,-0.00007836,0.00068031,-
 0.00049653,0.00022752,0.28557073,0.00013855,-0.00005266,-0.00000966,0.
 00002736,-0.00004928,-0.00001696,0.00001108,0.00002557,-0.00000453,-0.
 00002551,0.00005141,0.00001789,0.00000419,-0.00000925,-0.00000138,0.00
 002876,0.00000728,-0.00000064,-0.00002906,-0.00000462,-0.00000111,0.00
 000771,0.00002366,0.00000372,0.00000778,-0.00001063,-0.00000230,-0.000
 00300,-0.00000601,-0.00000075,0.00001317,0.00000566,0.00000040,-0.0000
 0621,0.00000846,0.00000194,-0.00015287,0.00005660,-0.00005186,0.000077
 35,0.00003249,-0.00000333,-0.00003209,-0.00002305,0.00000264,0.0000713
 0,-0.00042933,0.00009455,-0.00012269,-0.00000241,-0.00000453,0.0000082
 1,-0.00004665,-0.00001558,-0.00141245,0.00029937,-0.00037029,-0.000202
 31,0.00005473,-0.00004983,0.00012149,0.00007150,0.00003623,-0.00005011
 ,-0.00002201,-0.00002257,-0.00160381,-0.00433976,0.00207279,-0.0249054
 8,-0.00220198,-0.01129996,-0.00142957,0.00070148,-0.00190475,0.0004639
 7,0.00018617,0.00017736,-0.05662356,-0.07018434,-0.01749905,0.01969551
 ,0.00913026,0.00859106,0.00103854,-0.00173457,0.00445707,0.00034842,-0
 .00122011,0.00017953,-0.00000507,0.00000284,0.00001315,0.00001017,-0.0
 0000087,-0.00000094,0.00000129,-0.00000087,0.00000019,0.00000016,0.000
 00144,0.00000041,-0.00000011,0.00000182,-0.00000006,-0.00000027,-0.000
 00027,0.00000025,-0.00001538,-0.00000610,0.00000362,0.00000362,-0.0000
 0108,0.00000206,-0.00000233,-0.00002903,0.00000036,-0.00002063,-0.0000
 1844,0.00005381,0.00076495,-0.00038124,0.00051370,0.06236828,0.0694669
 5,0.00020082,-0.00006362,-0.00004877,-0.00002793,-0.00002525,0.0000325
 9,0.00001974,0.00001196,-0.00001235,-0.00003912,0.00005687,-0.00003490
 ,0.00001936,0.00000631,-0.00000657,0.00000110,-0.00001318,0.00000056,0
 .00000161,-0.00000098,0.00000118,0.00000490,-0.00000280,-0.00000235,-0
 .00000714,0.00000215,0.00001150,-0.00000365,-0.00000961,-0.00000159,0.
 00000778,0.00000420,0.00000071,-0.00000108,0.00000427,0.00000184,-0.00
 032725,0.00015066,0.00020094,0.00004650,0.00005280,-0.00000290,0.00002
 234,-0.00002216,-0.00000627,0.00006071,0.00007223,0.00008060,0.0000173
 4,-0.00000949,-0.00003411,-0.00000133,0.00001165,-0.00002052,0.0001244
 1,0.00005896,0.00020236,0.00000415,0.00001452,0.00004045,-0.00003777,-
 0.00000006,0.00001129,0.00001357,-0.00001345,-0.00001264,-0.00233273,0
 .00216581,0.00277428,0.00499841,0.00367743,0.00436606,0.00155180,-0.00
 022308,-0.00205860,0.00008913,-0.00011405,-0.00003412,-0.10622631,-0.0
 1967522,-0.08353103,-0.01675562,-0.00430377,-0.00311465,-0.00306512,0.
 00492339,0.00321468,0.00093043,-0.00096215,-0.00050533,0.00000335,-0.0
 0002179,-0.00000754,0.00000967,-0.00000096,0.00000460,0.00000067,0.000
 00088,0.00000032,-0.00000151,-0.00000007,0.00000028,-0.00000146,0.0000
 0090,-0.00000097,-0.00000056,-0.00000155,0.00000026,0.00000072,-0.0000
 0171,0.00001445,-0.00000276,-0.00000191,-0.00000306,0.00000069,-0.0000
 0404,0.00000828,-0.00005500,-0.00003471,0.00010912,-0.00014163,-0.0001
 1039,0.00022397,0.11910367,0.01626182,0.08124800,-0.00009725,0.0000685
 3,0.00003606,0.00005181,0.00000760,-0.00000445,0.00001536,-0.00000285,
 0.00000756,0.00007144,-0.00002828,0.00002071,-0.00003639,-0.00000765,0
 .00000260,-0.00000649,0.00002204,0.00000165,0.00000056,0.00000112,0.00
 000287,-0.00000543,0.00000760,-0.00000132,0.00001103,-0.00001096,-0.00
 000773,-0.00000763,-0.00000348,0.00000663,0.00000743,0.00000101,-0.000
 00236,-0.00000754,0.00000301,0.00000020,0.00066596,0.00001809,-0.00031
 640,-0.00012327,-0.00018132,0.00003170,-0.00001555,0.00006738,-0.00000
 421,-0.00002323,0.00000120,0.00002294,0.00000466,0.00003042,-0.0000082
 5,0.00000203,-0.00001348,0.00000133,-0.00007844,0.00003521,0.00043137,
 -0.00012417,-0.00007947,-0.00010928,0.00006595,0.00002624,-0.00002197,
 -0.00003778,-0.00000089,0.00000213,-0.00012649,0.00031626,0.00004375,0
 .00020092,0.00101464,-0.00463423,0.00045964,0.00024113,0.00001757,-0.0
 0014471,0.00025771,0.00021542,0.00945287,0.01517991,-0.00313771,-0.098
 58285,-0.10546941,0.01001064,-0.00710313,-0.02510249,0.00639434,-0.002
 68957,-0.00122412,-0.00573356,-0.00003205,0.00004225,0.00001054,-0.000
 02680,0.00000613,0.00000207,-0.00000516,0.00000199,0.00000120,-0.00000
 198,0.00000042,0.00000074,-0.00000197,-0.00000111,0.00000040,-0.000001
 37,-0.00000171,-0.00000036,-0.00000161,-0.00000275,-0.00000287,0.00000
 187,-0.00000286,-0.00000227,0.00000061,-0.00000667,0.00000034,0.000006
 12,0.00007234,0.00002430,0.00001324,-0.00000868,-0.00007084,-0.0002149
 3,0.00038919,0.00207526,0.09915500,-0.00014852,0.00005493,0.00002732,-
 0.00004744,-0.00000166,0.00003079,0.00002532,-0.00000050,0.00000915,0.
 00001479,-0.00003837,0.00000103,-0.00004039,0.00000738,-0.00000549,-0.
 00001644,0.00000695,0.00000332,0.00000534,0.00000095,0.00000214,-0.000
 00016,0.00000219,-0.00000161,-0.00000581,-0.00001594,-0.00000356,-0.00
 001164,-0.00000887,-0.00000411,0.00001939,0.00000704,-0.00000147,-0.00
 000985,0.00001320,0.00000398,0.00021293,-0.00010388,-0.00003797,-0.000
 09982,-0.00005399,0.00000653,0.00000491,0.00003315,-0.00000017,0.00002
 305,0.00002400,-0.00002051,-0.00003785,-0.00001766,-0.00000177,0.00000
 762,0.00000109,-0.00000265,0.00011550,0.00000160,-0.00031658,0.0000785
 7,0.00004746,0.00010523,-0.00003517,0.00001097,0.00000997,0.00001270,-
 0.00001653,-0.00000373,0.00020861,0.00033926,-0.00026678,0.00188079,0.
 00066863,0.00426888,-0.00076325,-0.00049019,-0.00010481,0.00034689,-0.
 00029263,-0.00008199,-0.01014306,-0.01508385,0.00229440,-0.10502364,-0
 .27856819,0.04673098,-0.00069255,-0.00288148,0.00248078,-0.00162493,0.
 00196014,0.00062064,-0.00000216,0.00001610,-0.00000032,-0.00001635,0.0
 0000700,0.00000401,-0.00000506,0.00000525,0.00000065,-0.00000641,-0.00
 000053,0.00000065,-0.00000626,-0.00000162,0.00000059,-0.00000242,-0.00
 000581,-0.00000034,-0.00000166,-0.00000592,0.00000256,-0.00000770,-0.0
 0000707,0.00000365,0.00000704,-0.00000310,0.00000028,-0.00002253,-0.00
 010564,-0.00002281,0.00001153,0.00000723,0.00007704,0.00103499,0.00024
 748,-0.00142602,0.11429177,0.29424196,-0.00012316,0.00004589,0.0000393
 7,-0.00010369,0.00000985,0.00002019,0.00007568,0.00000775,0.00003141,-
 0.00002312,-0.00002843,0.00004901,-0.00004518,0.00002770,-0.00000199,-
 0.00000283,-0.00001110,0.00000344,-0.00000229,-0.00000076,-0.00000340,
 -0.00000075,0.00000185,0.00000100,0.00002109,0.00002166,-0.00000966,0.
 00003955,-0.00004157,-0.00001454,-0.00002756,-0.00000239,0.00000039,0.
 00001389,-0.00002410,-0.00000363,0.00013560,-0.00037415,-0.00027809,0.
 00008145,0.00007881,-0.00000694,0.00000470,-0.00003407,-0.00000296,0.0
 0000432,0.00007218,-0.00003049,0.00007411,-0.00003968,0.00002103,-0.00
 006545,0.00000352,-0.00000765,0.00038534,-0.00021420,-0.00050739,-0.00
 021385,-0.00013970,0.00000085,0.00006597,0.00008791,0.00007182,-0.0000
 8390,0.00000783,-0.00002972,-0.00060074,0.00008969,-0.00094152,-0.0047
 7487,0.00398075,0.00330421,0.00071062,0.00065785,0.00038249,0.00002166
 ,0.00030749,-0.00046078,0.00934457,0.01562157,0.00175092,0.00873849,0.
 04789805,-0.05415474,-0.00476937,-0.01253927,0.00639716,-0.00483260,0.
 00074201,0.00313044,0.00003048,-0.00001263,0.00002726,0.00001033,-0.00
 000084,0.00000195,-0.00000015,0.00000014,0.00000007,-0.00000065,-0.000
 00043,0.00000040,-0.00000044,-0.00000187,0.00000267,-0.00000015,0.0000
 0002,-0.00000034,0.00000099,0.00000128,0.00000477,-0.00000015,0.000001
 88,0.00000448,0.00000095,-0.00000581,0.00000030,0.00002933,0.00009889,
 0.00000716,-0.00006998,-0.00000795,0.00006548,0.00174056,-0.00168876,-
 0.00252812,-0.00743557,-0.05327085,0.04532292,-0.00017469,-0.00002887,
 0.00009945,0.00000044,-0.00003710,-0.00007765,0.00000157,0.00000599,0.
 00002125,0.00007373,-0.00005212,0.00009672,-0.00004525,-0.00003867,-0.
 00000814,0.00006000,0.00006062,0.00001358,-0.00006836,-0.00000689,-0.0
 0000582,0.00001144,0.00005229,0.00001092,0.00005104,-0.00002512,-0.000
 02098,-0.00000301,0.00001188,-0.00000329,-0.00000377,0.00000767,0.0000
 0192,-0.00001437,-0.00001092,-0.00000353,0.00073294,-0.00010035,-0.000
 52131,-0.00002561,0.00002632,-0.00001383,-0.00017040,0.00000398,-0.000
 01539,-0.00000418,0.00002015,-0.00002238,-0.00000139,0.00000922,0.0000
 1525,-0.00000331,-0.00000281,0.00000305,0.00073576,-0.00038971,0.00021
 690,-0.00024412,-0.00019981,0.00010146,0.00009087,-0.00001210,0.000031
 05,-0.00001190,0.00000839,-0.00000509,-0.00000449,-0.00324639,-0.00184
 445,-0.00045158,-0.00034877,0.00023300,-0.00001131,0.00011158,0.000405
 98,0.00005706,0.00008039,-0.00004347,-0.00236409,-0.00366366,-0.003851
 32,-0.00775710,0.01861492,-0.01738252,-0.10709542,0.07573685,-0.088402
 52,0.00849006,-0.01161057,0.01078353,-0.00004771,0.00001109,0.00012236
 ,-0.00000209,-0.00000068,-0.00000582,0.00000264,-0.00000404,0.00000098
 ,0.00000404,0.00000325,0.00000027,0.00000425,0.00000147,0.00000209,-0.
 00000002,0.00000361,0.00000018,-0.00000145,0.00000281,-0.00000188,0.00
 000155,0.00000245,-0.00000300,-0.00000732,-0.00002167,0.00000710,0.000
 01776,0.00001561,-0.00002554,0.00005542,-0.00004456,0.00001808,-0.0005
 8448,0.00093788,-0.00056686,-0.00020899,0.00053481,0.00192067,0.109671
 49,-0.00004719,-0.00012016,-0.00010251,0.00004326,0.00000089,-0.000015
 64,-0.00003886,0.00000332,-0.00000846,-0.00001527,-0.00000249,-0.00002
 858,0.00000876,-0.00001511,-0.00000079,0.00003041,0.00005149,0.0000115
 1,-0.00005431,-0.00001052,-0.00000939,0.00000309,0.00004875,0.00000757
 ,-0.00001472,-0.00007443,-0.00000015,-0.00007707,0.00004168,0.00000322
 ,0.00007671,0.00000304,-0.00000048,-0.00003506,0.00006804,0.00000813,0
 .00000121,0.00029164,0.00022513,-0.00007967,0.00005781,0.00000522,-0.0
 0011531,0.00001572,-0.00000513,0.00007198,0.00003522,0.00002445,-0.000
 12698,0.00002486,0.00000140,0.00009819,-0.00001358,-0.00000385,0.00104
 487,0.00007981,0.00070803,0.00013714,-0.00033525,-0.00005384,0.0000465
 2,-0.00012512,-0.00003300,0.00012523,-0.00005687,0.00002297,-0.0046748
 7,-0.00262461,0.00243177,-0.00031410,-0.00074188,-0.00036052,0.0000573
 3,0.00041831,-0.00045533,-0.00034976,-0.00029732,-0.00001334,-0.003155
 12,0.00163444,0.00055143,-0.00446777,0.00892257,-0.00555956,0.07283718
 ,-0.16634413,0.11864257,0.01409178,-0.01327141,0.01649593,0.00001615,0
 .00003611,0.00000944,-0.00000583,0.00000169,0.00000351,-0.00000074,0.0
 0000099,0.00000507,-0.00000271,0.00000148,0.00000294,-0.00000327,0.000
 00217,-0.00000108,-0.00000188,-0.00000396,0.00000278,-0.00000489,-0.00
 000605,0.00000054,-0.00000833,-0.00000692,0.00000530,-0.00000447,-0.00
 005394,-0.00001649,-0.00000118,-0.00001112,0.00003174,0.00003869,-0.00
 002358,0.00003289,-0.00041630,0.00037677,-0.00020938,0.00135722,0.0000
 5823,-0.00110960,-0.07726460,0.17163663,0.00045361,-0.00013374,-0.0002
 5187,0.00004708,0.00003390,0.00008498,-0.00005927,-0.00003743,-0.00004
 028,-0.00018765,0.00011745,-0.00016878,0.00011825,0.00006201,0.0000056
 1,-0.00014708,-0.00013430,-0.00004055,0.00013164,0.00000467,-0.0000146
 6,-0.00002015,-0.00012125,-0.00001306,-0.00010865,0.00006015,0.0000405
 2,-0.00000099,0.00000747,0.00000766,-0.00001586,-0.00002631,-0.0000003
 6,0.00004004,0.00001008,0.00000335,-0.00159404,0.00053019,0.00115595,-
 0.00004628,0.00037185,0.00013886,0.00033162,-0.00010701,0.00006390,-0.
 00003668,0.00002269,0.00003948,-0.00003763,0.00001769,-0.00002943,0.00
 003263,0.00000031,-0.00000039,-0.00040968,0.00023261,0.00004367,0.0004
 7265,0.00015998,-0.00017297,-0.00006308,-0.00011444,-0.00004639,0.0000
 7897,0.00003900,0.00002584,-0.00081841,0.00116401,0.00454726,0.0005411
 1,-0.00090391,0.00007793,0.00006767,0.00028539,-0.00070059,-0.00025965
 ,-0.00027103,0.00003780,-0.00455756,0.00003483,0.00280123,-0.00353368,
 0.01030105,-0.00340388,-0.08985998,0.11528100,-0.15527349,-0.00185968,
 0.00483564,-0.00236719,0.00007125,-0.00024480,-0.00029388,0.00002421,-
 0.00000452,0.00002067,0.00000178,0.00000433,0.00000063,-0.00000399,-0.
 00000761,0.00000063,-0.00000309,-0.00000159,-0.00000490,0.00000241,-0.
 00000223,0.00000067,0.00000189,-0.00000181,0.00000034,0.00000212,-0.00
 000102,0.00000563,0.00000247,0.00000748,-0.00001138,-0.00002652,0.0000
 0857,0.00004249,-0.00000123,-0.00001649,0.00002997,-0.00033674,0.00065
 747,-0.00026777,0.00171065,-0.00132750,-0.00173554,0.09763037,-0.13006
 282,0.15666362,-0.00280188,-0.00028683,0.00330118,-0.00049216,-0.00005
 666,-0.00002660,-0.00044900,0.00006189,0.00006132,0.00099364,0.0000666
 3,0.00037088,0.00005781,-0.00031400,-0.00005266,0.00006875,0.00061461,
 0.00005744,-0.00009974,-0.00011531,-0.00003795,-0.00011983,0.00014314,
 0.00003756,0.00008266,-0.00007526,-0.00003217,-0.00009700,0.00008023,0
 .00001582,0.00005012,-0.00003936,0.00001682,-0.00001742,0.00006758,-0.
 00000276,-0.00854107,0.00736900,0.01135086,0.00036416,-0.00074017,0.00
 023394,-0.00095963,-0.00013501,-0.00043629,0.00111907,0.00011280,0.000
 24738,0.00017323,-0.00017936,0.00004968,0.00005642,0.00009326,0.000020
 60,-0.00108486,-0.00269289,0.00209512,-0.00116934,0.00064159,-0.000508
 30,-0.00013236,-0.00007054,-0.00007704,0.00001278,0.00001090,0.0000156
 8,-0.01094678,0.00028358,-0.01068075,0.00213856,0.00328138,-0.00283160
 ,-0.00034727,-0.00106994,0.00005567,0.00060164,0.00057223,0.00019568,-
 0.00054081,0.00024679,-0.00022780,0.00446295,-0.00450225,0.00020490,-0
 .01276466,-0.00819474,-0.00763140,-0.17620461,-0.06963084,-0.14232190,
 0.00005242,-0.00010338,0.00024380,-0.00004456,0.00001776,-0.00005298,0
 .00000065,-0.00000576,-0.00000124,0.00000938,-0.00000278,0.00001068,0.
 00000637,0.00000528,-0.00000579,0.00000456,0.00000442,-0.00000004,0.00
 000506,0.00000345,0.00000107,0.00000378,0.00000769,-0.00001236,-0.0000
 0468,0.00000071,-0.00001254,0.00001245,0.00003150,0.00000139,-0.000121
 09,0.00012048,-0.00009379,-0.00021482,0.00010357,0.00028671,-0.0004817
 1,-0.00006548,-0.00027390,-0.00075564,0.00119456,0.00222512,0.20811443
 ,-0.00176888,0.00092304,0.00158620,-0.00071927,0.00026901,0.00025591,-
 0.00049935,-0.00023132,-0.00006352,0.00044891,-0.00031146,0.00050938,-
 0.00012192,-0.00004323,0.00000034,0.00001052,0.00004970,-0.00006049,0.
 00000177,-0.00005646,-0.00005436,-0.00006764,0.00003736,0.00002291,0.0
 0002325,-0.00004819,-0.00011503,-0.00012559,0.00023607,0.00002104,-0.0
 0002457,-0.00006963,-0.00001140,0.00004298,0.00004614,0.00000750,0.004
 80029,-0.00408098,-0.00741964,0.00053934,-0.00001950,-0.00001744,0.000
 10984,-0.00020266,0.00028398,0.00010872,-0.00007360,0.00011848,-0.0000
 9170,-0.00040230,-0.00020173,0.00020798,0.00006408,0.00003178,0.000579
 88,0.00158940,-0.00045099,0.00057749,-0.00020446,0.00005339,0.00006968
 ,0.00017188,0.00008313,-0.00007888,0.00000631,-0.00005303,0.01770013,0
 .00748397,0.01516942,0.00103297,-0.00369599,0.00275490,0.00098280,0.00
 068864,-0.00009016,-0.00015763,-0.00023364,-0.00002312,0.00082220,-0.0
 0082187,0.00071391,-0.00337491,-0.00331425,0.00180525,-0.01754584,-0.0
 0224048,-0.01779110,-0.07643797,-0.07994881,-0.04793119,-0.00004075,0.
 00002985,-0.00016507,0.00003565,-0.00000921,-0.00003119,-0.00000831,-0
 .00000329,-0.00000262,0.00000394,-0.00000638,0.00000588,0.00000270,-0.
 00001051,0.00000851,0.00000650,0.00000243,-0.00000089,0.00001109,0.000
 00308,0.00003264,-0.00001211,0.00000968,0.00000304,-0.00000489,0.00001
 586,0.00001008,-0.00003433,-0.00002350,0.00001378,0.00023166,-0.000226
 61,0.00015282,0.00008476,0.00002261,-0.00022540,-0.00131223,-0.0000587
 5,-0.00021641,0.00084616,0.00032679,-0.00073002,0.07314554,0.08436119,
 -0.00064554,0.00005536,0.00009301,0.00029940,0.00089816,-0.00009217,0.
 00025526,-0.00026373,0.00015886,0.00045378,-0.00036930,0.00089731,-0.0
 0052654,0.00001438,-0.00010662,-0.00011799,0.00001862,-0.00010250,-0.0
 0004252,0.00001468,-0.00007291,-0.00003721,0.00008549,0.00003254,0.000
 18987,-0.00000479,-0.00012529,0.00002520,0.,0.00002850,-0.00008389,-0.
 00003858,-0.00003550,0.00004528,-0.00005628,0.00000073,0.00925403,-0.0
 0892935,-0.01176090,0.00077902,0.00044337,-0.00045838,0.00021752,-0.00
 024046,0.00044305,-0.00065839,0.00041317,-0.00065827,0.00003674,0.0001
 6697,0.00002832,-0.00003876,-0.00009886,-0.00001501,0.00085636,0.00112
 205,-0.00060304,0.00075519,-0.00044743,0.00054761,0.00013305,0.0000021
 2,0.00005041,-0.00002918,0.00000769,-0.00002101,-0.00931443,-0.0102623
 6,-0.00428170,-0.00210852,0.00189475,0.00055928,-0.00083023,-0.0001164
 4,-0.00012335,-0.00047446,-0.00038473,-0.00021952,0.00130186,0.0003309
 3,0.00036587,-0.00261311,0.00339167,0.00076005,0.01175180,0.00807832,0
 .00727290,-0.15449243,-0.04690914,-0.15405790,-0.00005331,0.00012907,-
 0.00025673,0.00006483,-0.00000585,0.00006793,-0.00002568,0.00000844,0.
 00000060,-0.00001428,0.00000097,0.00000745,-0.00001448,-0.00001723,0.0
 0001317,-0.00001074,-0.00001006,-0.00000655,-0.00000162,-0.00001231,0.
 00000510,0.00001419,-0.00001388,0.00001668,0.00001059,0.00000529,-0.00
 000111,0.00001957,0.00002018,-0.00001371,-0.00017782,0.00022888,-0.000
 02291,0.00012000,-0.00019318,-0.00031414,0.00041841,0.00021646,0.00007
 632,0.00108863,-0.00118358,-0.00100130,0.14422057,0.05201054,0.1629248
 7\\0.00000004,-0.00000010,0.00000137,0.00000007,-0.00000015,-0.0000009
 2,0.00000018,-0.00000025,0.00000025,-0.00000021,-0.00000077,0.00000154
 ,0.,-0.00000071,0.00000080,-0.00000047,-0.00000080,0.00000164,-0.00000
 038,-0.00000112,0.00000131,-0.00000013,-0.00000120,0.00000098,0.000000
 34,-0.00000075,0.00000099,0.00000037,-0.00000056,-0.00000041,0.0000005
 5,-0.00000074,-0.00000020,0.00000027,-0.00000098,0.00000012,-0.0000014
 8,0.00000042,0.00000138,-0.00000086,-0.00000035,0.00000120,-0.00000071
 ,-0.00000059,0.00000126,0.00000071,0.00000033,-0.00000033,0.00000048,0
 .00000010,-0.00000115,0.00000064,-0.00000002,-0.00000066,0.00000040,0.
 00000026,-0.00000092,0.00000030,0.00000060,-0.00000141,0.00000078,0.00
 000037,-0.00000174,0.00000087,0.00000043,-0.00000175,-0.00000058,0.000
 00146,-0.00000060,-0.00000026,0.00000096,-0.00000013,0.00000024,0.0000
 0047,-0.00000114,0.00000072,0.00000078,-0.00000124,-0.00000065,0.00000
 081,-0.00000056,-0.00000027,0.00000078,0.00000048,-0.00000097,-0.00000
 061,-0.00000086,-0.00000074,0.00000172,0.00000135,-0.00000087,-0.00000
 011,0.00000148,-0.00000086,-0.00000079,0.00000212,-0.00000057,-0.00000
 137,0.00000219,-0.00000011,-0.00000150,0.00000166,0.00000043,-0.000001
 24,0.00000061,0.00000075,-0.00000076,-0.00000035,0.00000089,-0.0000001
 4,-0.00000127,0.00000102,0.00000027,-0.00000196,0.00000109,0.00000058,
 -0.00000227,0.00000084,0.00000073,-0.00000190,0.00000025,0.00000090,-0
 .00000111,-0.00000045,0.00000109,-0.00000025,-0.00000104,0.00000123,0.
 00000051,-0.00000129,0.00000115,0.00000084,0.00000065,0.00000023,-0.00
 000095\\\@


 MY GROUP MEETINGS AREN'T VERY STRUCTURED.
     -- PROF. M. S. GORDON, OCT. 5, 1984
 Job cpu time:       2 days  1 hours 55 minutes  1.6 seconds.
 Elapsed time:       0 days  2 hours 30 minutes  9.1 seconds.
 File lengths (MBytes):  RWF=   4298 Int=      0 D2E=      0 Chk=     63 Scr=      1
 Normal termination of Gaussian 16 at Thu Jul  4 04:22:22 2019.
