 Entering Gaussian System, Link 0=/share/apps/gaussian16/g16/g16
 Initial command:
 /share/apps/gaussian16/g16/l1.exe "/home/amen01//scratch/987/Gau-27081.inp" -scrdir="/home/amen01//scratch/987/"
 Entering Link 1 = /share/apps/gaussian16/g16/l1.exe PID=     27082.
  
 Copyright (c) 1988-2017, Gaussian, Inc.  All Rights Reserved.
  
 This is part of the Gaussian(R) 16 program.  It is based on
 the Gaussian(R) 09 system (copyright 2009, Gaussian, Inc.),
 the Gaussian(R) 03 system (copyright 2003, Gaussian, Inc.),
 the Gaussian(R) 98 system (copyright 1998, Gaussian, Inc.),
 the Gaussian(R) 94 system (copyright 1995, Gaussian, Inc.),
 the Gaussian 92(TM) system (copyright 1992, Gaussian, Inc.),
 the Gaussian 90(TM) system (copyright 1990, Gaussian, Inc.),
 the Gaussian 88(TM) system (copyright 1988, Gaussian, Inc.),
 the Gaussian 86(TM) system (copyright 1986, Carnegie Mellon
 University), and the Gaussian 82(TM) system (copyright 1983,
 Carnegie Mellon University). Gaussian is a federally registered
 trademark of Gaussian, Inc.
  
 This software contains proprietary and confidential information,
 including trade secrets, belonging to Gaussian, Inc.
  
 This software is provided under written license and may be
 used, copied, transmitted, or stored only in accord with that
 written license.
  
 The following legend is applicable only to US Government
 contracts under FAR:
  
                    RESTRICTED RIGHTS LEGEND
  
 Use, reproduction and disclosure by the US Government is
 subject to restrictions as set forth in subparagraphs (a)
 and (c) of the Commercial Computer Software - Restricted
 Rights clause in FAR 52.227-19.
  
 Gaussian, Inc.
 340 Quinnipiac St., Bldg. 40, Wallingford CT 06492
  
  
 ---------------------------------------------------------------
 Warning -- This program may not be used in any manner that
 competes with the business of Gaussian, Inc. or will provide
 assistance to any competitor of Gaussian, Inc.  The licensee
 of this program is prohibited from giving any competitor of
 Gaussian, Inc. access to this program.  By using this program,
 the user acknowledges that Gaussian, Inc. is engaged in the
 business of creating and licensing software in the field of
 computational chemistry and represents and warrants to the
 licensee that it is not a competitor of Gaussian, Inc. and that
 it will not use this program in any manner prohibited above.
 ---------------------------------------------------------------
  

 Cite this work as:
 Gaussian 16, Revision B.01,
 M. J. Frisch, G. W. Trucks, H. B. Schlegel, G. E. Scuseria, 
 M. A. Robb, J. R. Cheeseman, G. Scalmani, V. Barone, 
 G. A. Petersson, H. Nakatsuji, X. Li, M. Caricato, A. V. Marenich, 
 J. Bloino, B. G. Janesko, R. Gomperts, B. Mennucci, H. P. Hratchian, 
 J. V. Ortiz, A. F. Izmaylov, J. L. Sonnenberg, D. Williams-Young, 
 F. Ding, F. Lipparini, F. Egidi, J. Goings, B. Peng, A. Petrone, 
 T. Henderson, D. Ranasinghe, V. G. Zakrzewski, J. Gao, N. Rega, 
 G. Zheng, W. Liang, M. Hada, M. Ehara, K. Toyota, R. Fukuda, 
 J. Hasegawa, M. Ishida, T. Nakajima, Y. Honda, O. Kitao, H. Nakai, 
 T. Vreven, K. Throssell, J. A. Montgomery, Jr., J. E. Peralta, 
 F. Ogliaro, M. J. Bearpark, J. J. Heyd, E. N. Brothers, K. N. Kudin, 
 V. N. Staroverov, T. A. Keith, R. Kobayashi, J. Normand, 
 K. Raghavachari, A. P. Rendell, J. C. Burant, S. S. Iyengar, 
 J. Tomasi, M. Cossi, J. M. Millam, M. Klene, C. Adamo, R. Cammi, 
 J. W. Ochterski, R. L. Martin, K. Morokuma, O. Farkas, 
 J. B. Foresman, and D. J. Fox, Gaussian, Inc., Wallingford CT, 2016.
 
 ******************************************
 Gaussian 16:  ES64L-G16RevB.01 20-Dec-2017
                 3-Sep-2019 
 ******************************************
 %nprocshared=20
 Will use up to   20 processors via shared memory.
 %mem=180GB
 %chk=7-memb2-dirTSguess-2bcis.chk
 ---------------------------------------------------------------
 # opt=(ts,calcfc,noeigen) freq b3lyp/6-311+g(d,p) int=grid=fine
 ---------------------------------------------------------------
 1/5=1,10=4,11=1,18=20,26=3,38=1/1,3;
 2/9=110,12=2,17=6,18=5,40=1/2;
 3/5=4,6=6,7=111,11=2,25=1,30=1,71=2,74=-5,75=-4,140=1/1,2,3;
 4//1;
 5/5=2,38=5/2;
 8/6=4,10=90,11=11/1;
 11/6=1,8=1,9=11,15=111,16=1/1,2,10;
 10/6=1,13=1/2;
 6/7=2,8=2,9=2,10=2,28=1/1;
 7/10=1,18=20,25=1/1,2,3,16;
 1/5=1,10=4,11=1,18=20,26=3/3(2);
 2/9=110/2;
 99//99;
 2/9=110/2;
 3/5=4,6=6,7=111,11=2,25=1,30=1,71=1,74=-5,75=-4/1,2,3;
 4/5=5,16=3,69=1/1;
 5/5=2,38=5/2;
 7//1,2,3,16;
 1/5=1,11=1,18=20,26=3/3(-5);
 2/9=110/2;
 6/7=2,8=2,9=2,10=2,19=2,28=1/1;
 99/9=1/99;
 ------------------------
 7-memb2-dirTSguess-2bcis
 ------------------------
 Symbolic Z-matrix:
 Charge =  0 Multiplicity = 1
 C                    -0.69312  -0.8945    0.02397 
 C                    -0.49894   0.51916   0.15434 
 C                    -1.78679   1.08726   0.31866 
 C                    -2.09377  -1.13776   0.10999 
 C                    -2.75418   0.07235   0.31134 
 C                    -2.77574  -2.30408  -0.16823 
 C                    -4.20775  -2.17594  -0.17091 
 C                    -4.85704  -0.95424   0.014 
 C                    -4.11721   0.26223   0.2271 
 C                    -2.14039   2.42945   0.26273 
 C                    -3.57271   2.67883   0.27603 
 C                    -4.50723   1.65975   0.25767 
 C                     0.13138  -1.91138  -0.50094 
 C                    -0.55132  -3.22934  -0.6113 
 C                    -1.90178  -3.41502  -0.49597 
 C                     0.59634   1.36561  -0.02932 
 C                     0.27723   2.77995  -0.04166 
 C                    -1.03857   3.29155   0.09264 
 C                     1.96692   0.87688  -0.14688 
 C                     2.97468   1.90042  -0.25209 
 C                     2.62864   3.28734  -0.31373 
 C                     1.34487   3.71551  -0.21288 
 C                     2.39663  -0.4933   -0.07469 
 C                     3.8007   -0.74613   0.07228 
 C                     4.75735   0.2973   -0.07614 
 C                     4.35491   1.58078  -0.27043 
 C                     4.29995  -2.00719   0.48494 
 C                     3.43875  -3.02382   0.91472 
 C                     2.10592  -2.89564   0.6393 
 C                     1.64279  -1.82939  -0.30407 
 H                     0.06053  -4.08144  -0.89011 
 H                    -2.31391  -4.4023   -0.67844 
 H                    -4.81632  -3.05429  -0.36259 
 H                    -5.94024  -0.92895  -0.04214 
 H                    -5.55964   1.92381   0.22924 
 H                    -3.9257    3.70502   0.2623 
 H                    -1.17179   4.36742   0.03547 
 H                     1.1134    4.77463  -0.24824 
 H                     3.43695   4.0019   -0.4227 
 H                     5.07628   2.38125  -0.38901 
 H                     5.81099   0.04682  -0.01691 
 H                     5.37348  -2.12056   0.58788 
 H                     3.82195  -3.8748    1.46683 
 H                     1.38922  -3.63739   0.96893 
 H                     2.05819  -2.13973  -1.30348 
 H                     0.26356  -1.68111  -2.13982 
 
 Add virtual bond connecting atoms H46        and C13        Dist= 3.14D+00.

 GradGradGradGradGradGradGradGradGradGradGradGradGradGradGradGradGradGrad
 Berny optimization.
 Initialization pass.
                           ----------------------------
                           !    Initial Parameters    !
                           ! (Angstroms and Degrees)  !
 --------------------------                            --------------------------
 ! Name  Definition              Value          Derivative Info.                !
 --------------------------------------------------------------------------------
 ! R1    R(1,2)                  1.4329         calculate D2E/DX2 analytically  !
 ! R2    R(1,4)                  1.4242         calculate D2E/DX2 analytically  !
 ! R3    R(1,13)                 1.4104         calculate D2E/DX2 analytically  !
 ! R4    R(2,3)                  1.4171         calculate D2E/DX2 analytically  !
 ! R5    R(2,16)                 1.3964         calculate D2E/DX2 analytically  !
 ! R6    R(3,5)                  1.4021         calculate D2E/DX2 analytically  !
 ! R7    R(3,10)                 1.3891         calculate D2E/DX2 analytically  !
 ! R8    R(4,5)                  1.3932         calculate D2E/DX2 analytically  !
 ! R9    R(4,6)                  1.3794         calculate D2E/DX2 analytically  !
 ! R10   R(5,9)                  1.3788         calculate D2E/DX2 analytically  !
 ! R11   R(6,7)                  1.4377         calculate D2E/DX2 analytically  !
 ! R12   R(6,15)                 1.451          calculate D2E/DX2 analytically  !
 ! R13   R(7,8)                  1.3958         calculate D2E/DX2 analytically  !
 ! R14   R(7,33)                 1.0856         calculate D2E/DX2 analytically  !
 ! R15   R(8,9)                  1.4396         calculate D2E/DX2 analytically  !
 ! R16   R(8,34)                 1.085          calculate D2E/DX2 analytically  !
 ! R17   R(9,12)                 1.4512         calculate D2E/DX2 analytically  !
 ! R18   R(10,11)                1.4539         calculate D2E/DX2 analytically  !
 ! R19   R(10,18)                1.4093         calculate D2E/DX2 analytically  !
 ! R20   R(11,12)                1.3828         calculate D2E/DX2 analytically  !
 ! R21   R(11,36)                1.0853         calculate D2E/DX2 analytically  !
 ! R22   R(12,35)                1.0854         calculate D2E/DX2 analytically  !
 ! R23   R(13,14)                1.4884         calculate D2E/DX2 analytically  !
 ! R24   R(13,30)                1.5264         calculate D2E/DX2 analytically  !
 ! R25   R(13,46)                1.6602         calculate D2E/DX2 analytically  !
 ! R26   R(14,15)                1.368          calculate D2E/DX2 analytically  !
 ! R27   R(14,31)                1.0854         calculate D2E/DX2 analytically  !
 ! R28   R(15,32)                1.0853         calculate D2E/DX2 analytically  !
 ! R29   R(16,17)                1.4499         calculate D2E/DX2 analytically  !
 ! R30   R(16,19)                1.4599         calculate D2E/DX2 analytically  !
 ! R31   R(17,18)                1.4181         calculate D2E/DX2 analytically  !
 ! R32   R(17,22)                1.4298         calculate D2E/DX2 analytically  !
 ! R33   R(18,37)                1.0856         calculate D2E/DX2 analytically  !
 ! R34   R(19,20)                1.4402         calculate D2E/DX2 analytically  !
 ! R35   R(19,23)                1.4378         calculate D2E/DX2 analytically  !
 ! R36   R(20,21)                1.4308         calculate D2E/DX2 analytically  !
 ! R37   R(20,26)                1.4169         calculate D2E/DX2 analytically  !
 ! R38   R(21,22)                1.357          calculate D2E/DX2 analytically  !
 ! R39   R(21,39)                1.0844         calculate D2E/DX2 analytically  !
 ! R40   R(22,38)                1.0847         calculate D2E/DX2 analytically  !
 ! R41   R(23,24)                1.4342         calculate D2E/DX2 analytically  !
 ! R42   R(23,30)                1.5511         calculate D2E/DX2 analytically  !
 ! R43   R(24,25)                1.4234         calculate D2E/DX2 analytically  !
 ! R44   R(24,27)                1.4177         calculate D2E/DX2 analytically  !
 ! R45   R(25,26)                1.3591         calculate D2E/DX2 analytically  !
 ! R46   R(25,41)                1.0846         calculate D2E/DX2 analytically  !
 ! R47   R(26,40)                1.0841         calculate D2E/DX2 analytically  !
 ! R48   R(27,28)                1.4            calculate D2E/DX2 analytically  !
 ! R49   R(27,42)                1.0844         calculate D2E/DX2 analytically  !
 ! R50   R(28,29)                1.367          calculate D2E/DX2 analytically  !
 ! R51   R(28,43)                1.0844         calculate D2E/DX2 analytically  !
 ! R52   R(29,30)                1.4971         calculate D2E/DX2 analytically  !
 ! R53   R(29,44)                1.0828         calculate D2E/DX2 analytically  !
 ! R54   R(30,45)                1.1259         calculate D2E/DX2 analytically  !
 ! A1    A(2,1,4)              107.2351         calculate D2E/DX2 analytically  !
 ! A2    A(2,1,13)             131.7542         calculate D2E/DX2 analytically  !
 ! A3    A(4,1,13)             118.3088         calculate D2E/DX2 analytically  !
 ! A4    A(1,2,3)              106.4328         calculate D2E/DX2 analytically  !
 ! A5    A(1,2,16)             133.8185         calculate D2E/DX2 analytically  !
 ! A6    A(3,2,16)             119.017          calculate D2E/DX2 analytically  !
 ! A7    A(2,3,5)              109.6472         calculate D2E/DX2 analytically  !
 ! A8    A(2,3,10)             127.8784         calculate D2E/DX2 analytically  !
 ! A9    A(5,3,10)             121.571          calculate D2E/DX2 analytically  !
 ! A10   A(1,4,5)              109.0596         calculate D2E/DX2 analytically  !
 ! A11   A(1,4,6)              128.2028         calculate D2E/DX2 analytically  !
 ! A12   A(5,4,6)              121.9506         calculate D2E/DX2 analytically  !
 ! A13   A(3,5,4)              107.6026         calculate D2E/DX2 analytically  !
 ! A14   A(3,5,9)              125.6407         calculate D2E/DX2 analytically  !
 ! A15   A(4,5,9)              125.4086         calculate D2E/DX2 analytically  !
 ! A16   A(4,6,7)              114.6733         calculate D2E/DX2 analytically  !
 ! A17   A(4,6,15)             113.2744         calculate D2E/DX2 analytically  !
 ! A18   A(7,6,15)             131.8922         calculate D2E/DX2 analytically  !
 ! A19   A(6,7,8)              122.7565         calculate D2E/DX2 analytically  !
 ! A20   A(6,7,33)             119.1146         calculate D2E/DX2 analytically  !
 ! A21   A(8,7,33)             118.0847         calculate D2E/DX2 analytically  !
 ! A22   A(7,8,9)              121.3417         calculate D2E/DX2 analytically  !
 ! A23   A(7,8,34)             118.5524         calculate D2E/DX2 analytically  !
 ! A24   A(9,8,34)             120.0683         calculate D2E/DX2 analytically  !
 ! A25   A(5,9,8)              113.622          calculate D2E/DX2 analytically  !
 ! A26   A(5,9,12)             113.3919         calculate D2E/DX2 analytically  !
 ! A27   A(8,9,12)             132.7431         calculate D2E/DX2 analytically  !
 ! A28   A(3,10,11)            114.59           calculate D2E/DX2 analytically  !
 ! A29   A(3,10,18)            113.3846         calculate D2E/DX2 analytically  !
 ! A30   A(11,10,18)           131.7885         calculate D2E/DX2 analytically  !
 ! A31   A(10,11,12)           122.6322         calculate D2E/DX2 analytically  !
 ! A32   A(10,11,36)           118.8469         calculate D2E/DX2 analytically  !
 ! A33   A(12,11,36)           118.4803         calculate D2E/DX2 analytically  !
 ! A34   A(9,12,11)            121.8928         calculate D2E/DX2 analytically  !
 ! A35   A(9,12,35)            119.6237         calculate D2E/DX2 analytically  !
 ! A36   A(11,12,35)           118.4458         calculate D2E/DX2 analytically  !
 ! A37   A(1,13,14)            113.4457         calculate D2E/DX2 analytically  !
 ! A38   A(1,13,30)            119.479          calculate D2E/DX2 analytically  !
 ! A39   A(1,13,46)            108.2947         calculate D2E/DX2 analytically  !
 ! A40   A(14,13,30)           120.7512         calculate D2E/DX2 analytically  !
 ! A41   A(14,13,46)            94.9417         calculate D2E/DX2 analytically  !
 ! A42   A(30,13,46)            92.3518         calculate D2E/DX2 analytically  !
 ! A43   A(13,14,15)           124.5222         calculate D2E/DX2 analytically  !
 ! A44   A(13,14,31)           117.1059         calculate D2E/DX2 analytically  !
 ! A45   A(15,14,31)           118.1352         calculate D2E/DX2 analytically  !
 ! A46   A(6,15,14)            120.6439         calculate D2E/DX2 analytically  !
 ! A47   A(6,15,32)            120.3807         calculate D2E/DX2 analytically  !
 ! A48   A(14,15,32)           118.9572         calculate D2E/DX2 analytically  !
 ! A49   A(2,16,17)            114.8209         calculate D2E/DX2 analytically  !
 ! A50   A(2,16,19)            122.961          calculate D2E/DX2 analytically  !
 ! A51   A(17,16,19)           122.1744         calculate D2E/DX2 analytically  !
 ! A52   A(16,17,18)           123.7305         calculate D2E/DX2 analytically  !
 ! A53   A(16,17,22)           118.3549         calculate D2E/DX2 analytically  !
 ! A54   A(18,17,22)           117.9112         calculate D2E/DX2 analytically  !
 ! A55   A(10,18,17)           121.0748         calculate D2E/DX2 analytically  !
 ! A56   A(10,18,37)           121.1082         calculate D2E/DX2 analytically  !
 ! A57   A(17,18,37)           117.8            calculate D2E/DX2 analytically  !
 ! A58   A(16,19,20)           115.1436         calculate D2E/DX2 analytically  !
 ! A59   A(16,19,23)           126.5545         calculate D2E/DX2 analytically  !
 ! A60   A(20,19,23)           118.1513         calculate D2E/DX2 analytically  !
 ! A61   A(19,20,21)           121.5215         calculate D2E/DX2 analytically  !
 ! A62   A(19,20,26)           121.4826         calculate D2E/DX2 analytically  !
 ! A63   A(21,20,26)           116.9826         calculate D2E/DX2 analytically  !
 ! A64   A(20,21,22)           122.1027         calculate D2E/DX2 analytically  !
 ! A65   A(20,21,39)           117.5697         calculate D2E/DX2 analytically  !
 ! A66   A(22,21,39)           120.3132         calculate D2E/DX2 analytically  !
 ! A67   A(17,22,21)           120.5855         calculate D2E/DX2 analytically  !
 ! A68   A(17,22,38)           118.911          calculate D2E/DX2 analytically  !
 ! A69   A(21,22,38)           120.4989         calculate D2E/DX2 analytically  !
 ! A70   A(19,23,24)           117.7576         calculate D2E/DX2 analytically  !
 ! A71   A(19,23,30)           131.9271         calculate D2E/DX2 analytically  !
 ! A72   A(24,23,30)           109.8211         calculate D2E/DX2 analytically  !
 ! A73   A(23,24,25)           121.2027         calculate D2E/DX2 analytically  !
 ! A74   A(23,24,27)           122.1004         calculate D2E/DX2 analytically  !
 ! A75   A(25,24,27)           116.4713         calculate D2E/DX2 analytically  !
 ! A76   A(24,25,26)           120.544          calculate D2E/DX2 analytically  !
 ! A77   A(24,25,41)           118.5494         calculate D2E/DX2 analytically  !
 ! A78   A(26,25,41)           120.9012         calculate D2E/DX2 analytically  !
 ! A79   A(20,26,25)           119.9769         calculate D2E/DX2 analytically  !
 ! A80   A(20,26,40)           118.8853         calculate D2E/DX2 analytically  !
 ! A81   A(25,26,40)           121.0601         calculate D2E/DX2 analytically  !
 ! A82   A(24,27,28)           121.2437         calculate D2E/DX2 analytically  !
 ! A83   A(24,27,42)           117.986          calculate D2E/DX2 analytically  !
 ! A84   A(28,27,42)           120.2608         calculate D2E/DX2 analytically  !
 ! A85   A(27,28,29)           118.0233         calculate D2E/DX2 analytically  !
 ! A86   A(27,28,43)           120.5849         calculate D2E/DX2 analytically  !
 ! A87   A(29,28,43)           121.3802         calculate D2E/DX2 analytically  !
 ! A88   A(28,29,30)           119.693          calculate D2E/DX2 analytically  !
 ! A89   A(28,29,44)           121.3161         calculate D2E/DX2 analytically  !
 ! A90   A(30,29,44)           118.356          calculate D2E/DX2 analytically  !
 ! A91   A(13,30,23)           123.1316         calculate D2E/DX2 analytically  !
 ! A92   A(13,30,29)           110.4465         calculate D2E/DX2 analytically  !
 ! A93   A(13,30,45)           103.6521         calculate D2E/DX2 analytically  !
 ! A94   A(23,30,29)           111.7125         calculate D2E/DX2 analytically  !
 ! A95   A(23,30,45)           100.9164         calculate D2E/DX2 analytically  !
 ! A96   A(29,30,45)           104.4121         calculate D2E/DX2 analytically  !
 ! D1    D(4,1,2,3)              0.1496         calculate D2E/DX2 analytically  !
 ! D2    D(4,1,2,16)          -169.5624         calculate D2E/DX2 analytically  !
 ! D3    D(13,1,2,3)           160.6244         calculate D2E/DX2 analytically  !
 ! D4    D(13,1,2,16)           -9.0877         calculate D2E/DX2 analytically  !
 ! D5    D(2,1,4,5)             -1.0431         calculate D2E/DX2 analytically  !
 ! D6    D(2,1,4,6)            168.8151         calculate D2E/DX2 analytically  !
 ! D7    D(13,1,4,5)          -164.5916         calculate D2E/DX2 analytically  !
 ! D8    D(13,1,4,6)             5.2666         calculate D2E/DX2 analytically  !
 ! D9    D(2,1,13,14)         -171.8885         calculate D2E/DX2 analytically  !
 ! D10   D(2,1,13,30)           35.8148         calculate D2E/DX2 analytically  !
 ! D11   D(2,1,13,46)          -67.8676         calculate D2E/DX2 analytically  !
 ! D12   D(4,1,13,14)          -13.1471         calculate D2E/DX2 analytically  !
 ! D13   D(4,1,13,30)         -165.4437         calculate D2E/DX2 analytically  !
 ! D14   D(4,1,13,46)           90.8739         calculate D2E/DX2 analytically  !
 ! D15   D(1,2,3,5)              0.7925         calculate D2E/DX2 analytically  !
 ! D16   D(1,2,3,10)          -168.3248         calculate D2E/DX2 analytically  !
 ! D17   D(16,2,3,5)           172.3186         calculate D2E/DX2 analytically  !
 ! D18   D(16,2,3,10)            3.2013         calculate D2E/DX2 analytically  !
 ! D19   D(1,2,16,17)          168.2297         calculate D2E/DX2 analytically  !
 ! D20   D(1,2,16,19)          -14.1282         calculate D2E/DX2 analytically  !
 ! D21   D(3,2,16,17)           -0.4737         calculate D2E/DX2 analytically  !
 ! D22   D(3,2,16,19)          177.1684         calculate D2E/DX2 analytically  !
 ! D23   D(2,3,5,4)             -1.4448         calculate D2E/DX2 analytically  !
 ! D24   D(2,3,5,9)           -168.7236         calculate D2E/DX2 analytically  !
 ! D25   D(10,3,5,4)           168.4818         calculate D2E/DX2 analytically  !
 ! D26   D(10,3,5,9)             1.203          calculate D2E/DX2 analytically  !
 ! D27   D(2,3,10,11)          171.3588         calculate D2E/DX2 analytically  !
 ! D28   D(2,3,10,18)           -3.7195         calculate D2E/DX2 analytically  !
 ! D29   D(5,3,10,11)            3.4047         calculate D2E/DX2 analytically  !
 ! D30   D(5,3,10,18)         -171.6736         calculate D2E/DX2 analytically  !
 ! D31   D(1,4,5,3)              1.5292         calculate D2E/DX2 analytically  !
 ! D32   D(1,4,5,9)            168.8453         calculate D2E/DX2 analytically  !
 ! D33   D(6,4,5,3)           -169.0853         calculate D2E/DX2 analytically  !
 ! D34   D(6,4,5,9)             -1.7692         calculate D2E/DX2 analytically  !
 ! D35   D(1,4,6,7)           -171.3893         calculate D2E/DX2 analytically  !
 ! D36   D(1,4,6,15)             4.5679         calculate D2E/DX2 analytically  !
 ! D37   D(5,4,6,7)             -2.701          calculate D2E/DX2 analytically  !
 ! D38   D(5,4,6,15)           173.2561         calculate D2E/DX2 analytically  !
 ! D39   D(3,5,9,8)            170.0901         calculate D2E/DX2 analytically  !
 ! D40   D(3,5,9,12)            -4.9818         calculate D2E/DX2 analytically  !
 ! D41   D(4,5,9,8)              5.0136         calculate D2E/DX2 analytically  !
 ! D42   D(4,5,9,12)          -170.0583         calculate D2E/DX2 analytically  !
 ! D43   D(4,6,7,8)              3.6403         calculate D2E/DX2 analytically  !
 ! D44   D(4,6,7,33)          -178.8254         calculate D2E/DX2 analytically  !
 ! D45   D(15,6,7,8)          -171.3685         calculate D2E/DX2 analytically  !
 ! D46   D(15,6,7,33)            6.1658         calculate D2E/DX2 analytically  !
 ! D47   D(4,6,15,14)           -5.1102         calculate D2E/DX2 analytically  !
 ! D48   D(4,6,15,32)          176.4588         calculate D2E/DX2 analytically  !
 ! D49   D(7,6,15,14)          169.9527         calculate D2E/DX2 analytically  !
 ! D50   D(7,6,15,32)           -8.4784         calculate D2E/DX2 analytically  !
 ! D51   D(6,7,8,9)             -0.3007         calculate D2E/DX2 analytically  !
 ! D52   D(6,7,8,34)           177.4677         calculate D2E/DX2 analytically  !
 ! D53   D(33,7,8,9)          -177.859          calculate D2E/DX2 analytically  !
 ! D54   D(33,7,8,34)           -0.0906         calculate D2E/DX2 analytically  !
 ! D55   D(7,8,9,5)             -3.879          calculate D2E/DX2 analytically  !
 ! D56   D(7,8,9,12)           169.9578         calculate D2E/DX2 analytically  !
 ! D57   D(34,8,9,5)           178.386          calculate D2E/DX2 analytically  !
 ! D58   D(34,8,9,12)           -7.7771         calculate D2E/DX2 analytically  !
 ! D59   D(5,9,12,11)            4.1965         calculate D2E/DX2 analytically  !
 ! D60   D(5,9,12,35)         -178.0728         calculate D2E/DX2 analytically  !
 ! D61   D(8,9,12,11)         -169.6512         calculate D2E/DX2 analytically  !
 ! D62   D(8,9,12,35)            8.0795         calculate D2E/DX2 analytically  !
 ! D63   D(3,10,11,12)          -4.0172         calculate D2E/DX2 analytically  !
 ! D64   D(3,10,11,36)         178.3376         calculate D2E/DX2 analytically  !
 ! D65   D(18,10,11,12)        169.9201         calculate D2E/DX2 analytically  !
 ! D66   D(18,10,11,36)         -7.725          calculate D2E/DX2 analytically  !
 ! D67   D(3,10,18,17)           1.7049         calculate D2E/DX2 analytically  !
 ! D68   D(3,10,18,37)        -179.8268         calculate D2E/DX2 analytically  !
 ! D69   D(11,10,18,17)       -172.2892         calculate D2E/DX2 analytically  !
 ! D70   D(11,10,18,37)          6.1791         calculate D2E/DX2 analytically  !
 ! D71   D(10,11,12,9)           0.1611         calculate D2E/DX2 analytically  !
 ! D72   D(10,11,12,35)       -177.5954         calculate D2E/DX2 analytically  !
 ! D73   D(36,11,12,9)         177.8144         calculate D2E/DX2 analytically  !
 ! D74   D(36,11,12,35)          0.058          calculate D2E/DX2 analytically  !
 ! D75   D(1,13,14,15)          13.1505         calculate D2E/DX2 analytically  !
 ! D76   D(1,13,14,31)        -172.5599         calculate D2E/DX2 analytically  !
 ! D77   D(30,13,14,15)        165.0564         calculate D2E/DX2 analytically  !
 ! D78   D(30,13,14,31)        -20.6539         calculate D2E/DX2 analytically  !
 ! D79   D(46,13,14,15)        -99.2408         calculate D2E/DX2 analytically  !
 ! D80   D(46,13,14,31)         75.0489         calculate D2E/DX2 analytically  !
 ! D81   D(1,13,30,23)         -24.9596         calculate D2E/DX2 analytically  !
 ! D82   D(1,13,30,29)         110.668          calculate D2E/DX2 analytically  !
 ! D83   D(1,13,30,45)        -137.9917         calculate D2E/DX2 analytically  !
 ! D84   D(14,13,30,23)       -175.2047         calculate D2E/DX2 analytically  !
 ! D85   D(14,13,30,29)        -39.577          calculate D2E/DX2 analytically  !
 ! D86   D(14,13,30,45)         71.7633         calculate D2E/DX2 analytically  !
 ! D87   D(46,13,30,23)         87.6287         calculate D2E/DX2 analytically  !
 ! D88   D(46,13,30,29)       -136.7436         calculate D2E/DX2 analytically  !
 ! D89   D(46,13,30,45)        -25.4034         calculate D2E/DX2 analytically  !
 ! D90   D(13,14,15,6)          -3.7783         calculate D2E/DX2 analytically  !
 ! D91   D(13,14,15,32)        174.6748         calculate D2E/DX2 analytically  !
 ! D92   D(31,14,15,6)        -178.0139         calculate D2E/DX2 analytically  !
 ! D93   D(31,14,15,32)          0.4392         calculate D2E/DX2 analytically  !
 ! D94   D(2,16,17,18)          -1.238          calculate D2E/DX2 analytically  !
 ! D95   D(2,16,17,22)         179.4506         calculate D2E/DX2 analytically  !
 ! D96   D(19,16,17,18)       -178.9007         calculate D2E/DX2 analytically  !
 ! D97   D(19,16,17,22)          1.7879         calculate D2E/DX2 analytically  !
 ! D98   D(2,16,19,20)        -176.4464         calculate D2E/DX2 analytically  !
 ! D99   D(2,16,19,23)          -1.0217         calculate D2E/DX2 analytically  !
 ! D100  D(17,16,19,20)          1.0252         calculate D2E/DX2 analytically  !
 ! D101  D(17,16,19,23)        176.4498         calculate D2E/DX2 analytically  !
 ! D102  D(16,17,18,10)          0.5985         calculate D2E/DX2 analytically  !
 ! D103  D(16,17,18,37)       -177.919          calculate D2E/DX2 analytically  !
 ! D104  D(22,17,18,10)        179.9127         calculate D2E/DX2 analytically  !
 ! D105  D(22,17,18,37)          1.3952         calculate D2E/DX2 analytically  !
 ! D106  D(16,17,22,21)         -2.2761         calculate D2E/DX2 analytically  !
 ! D107  D(16,17,22,38)        178.4946         calculate D2E/DX2 analytically  !
 ! D108  D(18,17,22,21)        178.372          calculate D2E/DX2 analytically  !
 ! D109  D(18,17,22,38)         -0.8573         calculate D2E/DX2 analytically  !
 ! D110  D(16,19,20,21)         -3.4713         calculate D2E/DX2 analytically  !
 ! D111  D(16,19,20,26)        175.1597         calculate D2E/DX2 analytically  !
 ! D112  D(23,19,20,21)       -179.3036         calculate D2E/DX2 analytically  !
 ! D113  D(23,19,20,26)         -0.6726         calculate D2E/DX2 analytically  !
 ! D114  D(16,19,23,24)       -166.9544         calculate D2E/DX2 analytically  !
 ! D115  D(16,19,23,30)         22.0434         calculate D2E/DX2 analytically  !
 ! D116  D(20,19,23,24)          8.3478         calculate D2E/DX2 analytically  !
 ! D117  D(20,19,23,30)       -162.6544         calculate D2E/DX2 analytically  !
 ! D118  D(19,20,21,22)          3.1938         calculate D2E/DX2 analytically  !
 ! D119  D(19,20,21,39)       -178.1826         calculate D2E/DX2 analytically  !
 ! D120  D(26,20,21,22)       -175.4961         calculate D2E/DX2 analytically  !
 ! D121  D(26,20,21,39)          3.1275         calculate D2E/DX2 analytically  !
 ! D122  D(19,20,26,25)         -5.4758         calculate D2E/DX2 analytically  !
 ! D123  D(19,20,26,40)        177.6942         calculate D2E/DX2 analytically  !
 ! D124  D(21,20,26,25)        173.2147         calculate D2E/DX2 analytically  !
 ! D125  D(21,20,26,40)         -3.6153         calculate D2E/DX2 analytically  !
 ! D126  D(20,21,22,17)         -0.1324         calculate D2E/DX2 analytically  !
 ! D127  D(20,21,22,38)        179.0846         calculate D2E/DX2 analytically  !
 ! D128  D(39,21,22,17)       -178.719          calculate D2E/DX2 analytically  !
 ! D129  D(39,21,22,38)          0.498          calculate D2E/DX2 analytically  !
 ! D130  D(19,23,24,25)        -10.4965         calculate D2E/DX2 analytically  !
 ! D131  D(19,23,24,27)        163.8528         calculate D2E/DX2 analytically  !
 ! D132  D(30,23,24,25)        162.3987         calculate D2E/DX2 analytically  !
 ! D133  D(30,23,24,27)        -23.2521         calculate D2E/DX2 analytically  !
 ! D134  D(19,23,30,13)         -8.3508         calculate D2E/DX2 analytically  !
 ! D135  D(19,23,30,29)       -143.4969         calculate D2E/DX2 analytically  !
 ! D136  D(19,23,30,45)        106.0379         calculate D2E/DX2 analytically  !
 ! D137  D(24,23,30,13)       -179.891          calculate D2E/DX2 analytically  !
 ! D138  D(24,23,30,29)         44.9628         calculate D2E/DX2 analytically  !
 ! D139  D(24,23,30,45)        -65.5024         calculate D2E/DX2 analytically  !
 ! D140  D(23,24,25,26)          4.5711         calculate D2E/DX2 analytically  !
 ! D141  D(23,24,25,41)       -176.2657         calculate D2E/DX2 analytically  !
 ! D142  D(27,24,25,26)       -170.0823         calculate D2E/DX2 analytically  !
 ! D143  D(27,24,25,41)          9.0809         calculate D2E/DX2 analytically  !
 ! D144  D(23,24,27,28)         -7.3023         calculate D2E/DX2 analytically  !
 ! D145  D(23,24,27,42)       -179.1331         calculate D2E/DX2 analytically  !
 ! D146  D(25,24,27,28)        167.299          calculate D2E/DX2 analytically  !
 ! D147  D(25,24,27,42)         -4.5317         calculate D2E/DX2 analytically  !
 ! D148  D(24,25,26,20)          3.5224         calculate D2E/DX2 analytically  !
 ! D149  D(24,25,26,40)       -179.7178         calculate D2E/DX2 analytically  !
 ! D150  D(41,25,26,20)       -175.621          calculate D2E/DX2 analytically  !
 ! D151  D(41,25,26,40)          1.1388         calculate D2E/DX2 analytically  !
 ! D152  D(24,27,28,29)         14.9738         calculate D2E/DX2 analytically  !
 ! D153  D(24,27,28,43)       -163.8075         calculate D2E/DX2 analytically  !
 ! D154  D(42,27,28,29)       -173.3795         calculate D2E/DX2 analytically  !
 ! D155  D(42,27,28,43)          7.8392         calculate D2E/DX2 analytically  !
 ! D156  D(27,28,29,30)         10.8754         calculate D2E/DX2 analytically  !
 ! D157  D(27,28,29,44)       -178.4085         calculate D2E/DX2 analytically  !
 ! D158  D(43,28,29,30)       -170.3535         calculate D2E/DX2 analytically  !
 ! D159  D(43,28,29,44)          0.3626         calculate D2E/DX2 analytically  !
 ! D160  D(28,29,30,13)        177.7547         calculate D2E/DX2 analytically  !
 ! D161  D(28,29,30,23)        -41.3208         calculate D2E/DX2 analytically  !
 ! D162  D(28,29,30,45)         66.9068         calculate D2E/DX2 analytically  !
 ! D163  D(44,29,30,13)          6.7651         calculate D2E/DX2 analytically  !
 ! D164  D(44,29,30,23)        147.6896         calculate D2E/DX2 analytically  !
 ! D165  D(44,29,30,45)       -104.0828         calculate D2E/DX2 analytically  !
 --------------------------------------------------------------------------------
 Trust Radius=3.00D-01 FncErr=1.00D-07 GrdErr=1.00D-06 EigMax=2.50D+02 EigMin=1.00D-04
 Number of steps in this run=    276 maximum allowed number of steps=    276.
 Search for a saddle point of order  1.
 GradGradGradGradGradGradGradGradGradGradGradGradGradGradGradGradGradGrad

                          Input orientation:                          
 ---------------------------------------------------------------------
 Center     Atomic      Atomic             Coordinates (Angstroms)
 Number     Number       Type             X           Y           Z
 ---------------------------------------------------------------------
      1          6           0       -0.693120   -0.894499    0.023965
      2          6           0       -0.498938    0.519164    0.154341
      3          6           0       -1.786793    1.087257    0.318664
      4          6           0       -2.093768   -1.137761    0.109987
      5          6           0       -2.754182    0.072345    0.311337
      6          6           0       -2.775739   -2.304078   -0.168225
      7          6           0       -4.207755   -2.175940   -0.170911
      8          6           0       -4.857039   -0.954237    0.014000
      9          6           0       -4.117211    0.262234    0.227098
     10          6           0       -2.140392    2.429451    0.262726
     11          6           0       -3.572710    2.678825    0.276025
     12          6           0       -4.507229    1.659752    0.257669
     13          6           0        0.131376   -1.911381   -0.500936
     14          6           0       -0.551317   -3.229342   -0.611296
     15          6           0       -1.901778   -3.415021   -0.495969
     16          6           0        0.596341    1.365608   -0.029322
     17          6           0        0.277234    2.779952   -0.041662
     18          6           0       -1.038572    3.291545    0.092643
     19          6           0        1.966923    0.876876   -0.146877
     20          6           0        2.974675    1.900416   -0.252090
     21          6           0        2.628639    3.287339   -0.313725
     22          6           0        1.344865    3.715505   -0.212882
     23          6           0        2.396633   -0.493299   -0.074691
     24          6           0        3.800696   -0.746132    0.072275
     25          6           0        4.757345    0.297299   -0.076140
     26          6           0        4.354912    1.580778   -0.270433
     27          6           0        4.299950   -2.007194    0.484940
     28          6           0        3.438753   -3.023817    0.914722
     29          6           0        2.105919   -2.895637    0.639295
     30          6           0        1.642794   -1.829393   -0.304065
     31          1           0        0.060534   -4.081442   -0.890107
     32          1           0       -2.313907   -4.402302   -0.678437
     33          1           0       -4.816323   -3.054287   -0.362591
     34          1           0       -5.940244   -0.928945   -0.042137
     35          1           0       -5.559639    1.923810    0.229237
     36          1           0       -3.925695    3.705024    0.262300
     37          1           0       -1.171786    4.367423    0.035470
     38          1           0        1.113399    4.774628   -0.248243
     39          1           0        3.436946    4.001905   -0.422698
     40          1           0        5.076277    2.381248   -0.389007
     41          1           0        5.810990    0.046815   -0.016908
     42          1           0        5.373477   -2.120556    0.587880
     43          1           0        3.821945   -3.874802    1.466830
     44          1           0        1.389223   -3.637387    0.968932
     45          1           0        2.058186   -2.139728   -1.303480
     46          1           0        0.263556   -1.681106   -2.139817
 ---------------------------------------------------------------------
                    Distance matrix (angstroms):
                    1          2          3          4          5
     1  C    0.000000
     2  C    1.432881   0.000000
     3  C    2.282614   1.417146   0.000000
     4  C    1.424216   2.300185   2.255767   0.000000
     5  C    2.294634   2.304435   1.402120   1.393214   0.000000
     6  C    2.522132   3.641232   3.565982   1.379414   2.424424
     7  C    3.746028   4.596161   4.092578   2.371847   2.720335
     8  C    4.164359   4.602570   3.699585   2.771022   2.358874
     9  C    3.619902   3.628113   2.473842   2.463336   1.378768
    10  C    3.633214   2.520975   1.389117   3.570785   2.436196
    11  C    4.596109   3.758592   2.392573   4.096482   2.732210
    12  C    4.596329   4.168695   2.780691   3.697659   2.365569
    13  C    1.410448   2.595040   3.652800   2.433717   3.594635
    14  C    2.423872   3.826257   4.585221   2.697057   4.074924
    15  C    2.843276   4.227136   4.576828   2.364309   3.679682
    16  C    2.602620   1.396365   2.424438   3.677356   3.607573
    17  C    3.800985   2.398337   2.693559   4.581825   4.079856
    18  C    4.200835   2.825085   2.338762   4.553295   3.654366
    19  C    3.200435   2.509813   3.788321   4.540259   4.811036
    20  C    4.619575   3.760190   4.864007   5.920366   6.039793
    21  C    5.351251   4.202811   4.973562   6.485535   6.300925
    22  C    5.045950   3.708242   4.122804   5.956730   5.509048
    23  C    3.117253   3.076015   4.489314   4.540169   5.196140
    24  C    4.496524   4.482696   5.885750   5.907580   6.610104
    25  C    5.580141   5.266010   6.603457   7.002270   7.524877
    26  C    5.629946   4.986714   6.189599   7.008612   7.290613
    27  C    5.136276   5.433333   6.830206   6.463446   7.356317
    28  C    4.732845   5.351290   6.675518   5.900305   6.950017
    29  C    3.495397   4.322190   5.578481   4.583412   5.704126
    30  C    2.537346   3.211366   4.544965   3.822524   4.829982
    31  H    3.400019   4.750732   5.620426   3.782389   5.159461
    32  H    3.927467   5.311164   5.604223   3.365606   4.603907
    33  H    4.670644   5.628195   5.176345   3.362842   3.805579
    34  H    5.247653   5.634131   4.631026   3.855142   3.358350
    35  H    5.627434   5.252555   3.865512   4.625981   3.362328
    36  H    5.626896   4.680173   3.380944   5.179935   3.817225
    37  H    5.283661   3.908446   3.349317   5.582352   4.585605
    38  H    5.956224   4.568444   4.725379   6.735770   6.114146
    39  H    6.421193   5.287120   6.027623   7.568931   7.369553
    40  H    6.647331   5.903017   7.019754   8.002622   8.193754
    41  H    6.572000   6.329900   7.676030   7.994030   8.571497
    42  H    6.214887   6.453010   7.850606   7.546788   8.422834
    43  H    5.599096   6.300761   7.576164   6.657933   7.756325
    44  H    3.571071   4.637416   5.729938   4.372316   5.600210
    45  H    3.298847   3.966589   5.275286   4.498950   5.537128
    46  H    2.493177   3.268906   4.232245   3.303607   4.264914
                    6          7          8          9         10
     6  C    0.000000
     7  C    1.437740   0.000000
     8  C    2.487385   1.395822   0.000000
     9  C    2.922633   2.472105   1.439638   0.000000
    10  C    4.795381   5.066721   4.346422   2.933584   0.000000
    11  C    5.065752   4.916480   3.862292   2.477658   1.453925
    12  C    4.346423   3.871162   2.648524   1.451243   2.488851
    13  C    2.952325   4.359698   5.105445   4.827538   4.958521
    14  C    2.449587   3.830553   4.909821   5.060594   5.942307
    15  C    1.451006   2.637900   3.879316   4.353524   5.898339
    16  C    4.985661   5.970088   5.926459   4.847758   2.950722
    17  C    5.931612   6.685260   6.348860   5.071714   2.461792
    18  C    5.864878   6.325075   5.710827   4.321206   1.409305
    19  C    5.710671   6.888172   7.067200   6.126527   4.410023
    20  C    7.124048   8.258969   8.340000   7.294389   5.168058
    21  C    7.777687   8.752377   8.610096   7.412843   4.879746
    22  C    7.294981   8.095831   7.766697   6.477109   3.745284
    23  C    5.480976   6.816046   7.268844   6.564455   5.407487
    24  C    6.762731   8.138721   8.660432   7.983359   6.739223
    25  C    7.970132   9.300479   9.695919   8.879804   7.227702
    26  C    8.120883   9.351048   9.558621   8.588537   6.572175
    27  C    7.111972   8.534615   9.229353   8.721547   7.823759
    28  C    6.349072   7.769593   8.597362   8.268225   7.828799
    29  C    4.983233   6.406003   7.255537   6.990665   6.821255
    30  C    4.446033   5.862316   6.566193   6.150991   5.724640
    31  H    3.424118   4.729320   5.897402   6.129374   6.968847
    32  H    2.208200   2.966636   4.340062   5.082302   6.898460
    33  H    2.182791   1.085629   2.133937   3.440320   6.133760
    34  H    3.452677   2.138480   1.084954   2.194275   5.080417
    35  H    5.077707   4.335396   2.970375   2.200327   3.456594
    36  H    6.133275   5.903640   4.757916   3.448292   2.194173
    37  H    6.864625   7.216322   6.473146   5.056167   2.178435
    38  H    8.077121   8.753917   8.278574   6.924372   4.043278
    39  H    8.855938   9.832122   9.671827   8.454151   5.835162
    40  H    9.146321  10.344505  10.486117   9.454630   7.246198
    41  H    8.904016  10.263509  10.714938   9.933535   8.305397
    42  H    8.186275   9.611391  10.312764   9.791885   8.790137
    43  H    6.976390   8.369254   9.271741   9.037821   8.760304
    44  H    4.518600   5.895866   6.864909   6.788091   7.054320
    45  H    4.968163   6.367577   7.138731   6.800560   6.399879
    46  H    3.675947   4.910608   5.602478   5.345089   5.333653
                   11         12         13         14         15
    11  C    0.000000
    12  C    1.382813   0.000000
    13  C    5.949278   5.902976   0.000000
    14  C    6.694968   6.348825   1.488378   0.000000
    15  C    6.365764   5.754100   2.528769   1.368036   0.000000
    16  C    4.381639   5.120089   3.343242   4.771727   5.414127
    17  C    3.864353   4.922960   4.716017   6.092831   6.582718
    18  C    2.613601   3.836869   5.365776   6.576847   6.787460
    19  C    5.840668   6.533850   3.356928   4.839240   5.788704
    20  C    6.614611   7.503110   4.761940   6.235067   7.217558
    21  C    6.258979   7.341399   5.770447   7.257258   8.091942
    22  C    5.049384   6.220494   5.763452   7.210072   7.839976
    23  C    6.768931   7.239434   2.706295   4.057621   5.214429
    24  C    8.132586   8.651258   3.892337   5.057037   6.321715
    25  C    8.670957   9.370167   5.143764   6.395739   7.635542
    26  C    8.021940   8.878213   5.485122   6.879282   8.009684
    27  C    9.164125   9.542775   4.284640   5.121540   6.434718
    28  C    9.060280   9.246954   3.765680   4.276872   5.537541
    29  C    7.965765   8.039337   2.483487   2.955713   4.197644
    30  C    6.918238   7.093128   1.526389   2.620758   3.887806
    31  H    7.762830   7.425844   2.205819   1.085436   2.109533
    32  H    7.255201   6.514250   3.495083   2.118270   1.085297
    33  H    5.901100   4.764706   5.079872   4.275836   2.939811
    34  H    4.326944   2.974015   6.167678   5.886960   4.764005
    35  H    2.126058   1.085404   6.901412   7.234968   6.512218
    36  H    1.085298   2.126344   6.970392   7.761123   7.440850
    37  H    2.945109   4.301864   6.435009   7.649453   7.834651
    38  H    5.160123   6.445918   6.762465   8.183314   8.730579
    39  H    7.167568   8.310144   6.774944   8.260311   9.138826
    40  H    8.679620   9.632359   6.549140   7.949714   9.072013
    41  H    9.750237  10.447134   6.027174   7.180909   8.467621
    42  H   10.157046  10.584334   5.358068   6.145780   7.468581
    43  H    9.952335  10.073157   4.620327   4.884736   6.068359
    44  H    8.061975   7.958249   2.592641   2.535610   3.609165
    45  H    7.577617   7.744541   2.099718   2.911337   4.237896
    46  H    6.289851   6.298386   1.660250   2.323237   3.224495
                   16         17         18         19         20
    16  C    0.000000
    17  C    1.449948   0.000000
    18  C    2.529239   1.418136   0.000000
    19  C    1.459854   2.547119   3.862771   0.000000
    20  C    2.447880   2.845005   4.261482   1.440232   0.000000
    21  C    2.811436   2.420860   3.689660   2.505202   1.430767
    22  C    2.473054   1.429829   2.440053   2.906738   2.439747
    23  C    2.588174   3.899630   5.114067   1.437790   2.468901
    24  C    3.838966   4.986084   6.302521   2.458639   2.791369
    25  C    4.296211   5.122124   6.525845   2.850854   2.403925
    26  C    3.772438   4.256502   5.669940   2.492636   1.416884
    27  C    5.035571   6.275055   7.531955   3.762987   4.191537
    28  C    5.313904   6.677845   7.784989   4.302172   5.081819
    29  C    4.569911   6.001675   6.961887   3.856065   4.954940
    30  C    3.373215   4.814527   5.794058   2.730139   3.960819
    31  H    5.540613   6.917047   7.518961   5.363919   6.684453
    32  H    6.493049   7.661871   7.836857   6.817462   8.238636
    33  H    6.995961   7.751494   7.399204   7.843022   9.233685
    34  H    6.927632   7.239679   6.469706   8.111427   9.355487
    35  H    6.186641   5.905544   4.725400   7.608329   8.547908
    36  H    5.099678   4.314251   2.921511   6.548954   7.150966
    37  H    3.484446   2.150738   1.085600   4.697730   4.833420
    38  H    3.454952   2.172690   2.635663   3.991397   3.424246
    39  H    3.895362   3.409126   4.560751   3.464513   2.158485
    40  H    4.607681   4.828087   6.200968   3.462635   2.160249
    41  H    5.378841   6.171961   7.580025   3.934812   3.396444
    42  H    5.946033   7.098098   8.405383   4.596638   4.756891
    43  H    6.332842   7.689361   8.767528   5.350103   6.084874
    44  H    5.162861   6.590907   7.394063   4.685866   5.888278
    45  H    4.005977   5.382121   6.406075   3.232021   4.274124
    46  H    3.721210   4.929856   5.604166   3.662860   4.872472
                   21         22         23         24         25
    21  C    0.000000
    22  C    1.357045   0.000000
    23  C    3.795285   4.340431   0.000000
    24  C    4.218009   5.100846   1.434195   0.000000
    25  C    3.678067   4.831961   2.489580   1.423360   0.000000
    26  C    2.427806   3.690631   2.859190   2.416426   1.359051
    27  C    5.609209   6.478331   2.495532   1.417683   2.415514
    28  C    6.480436   7.146630   2.910064   2.455314   3.708140
    29  C    6.277792   6.709144   2.522998   2.795381   4.211502
    30  C    5.210847   5.553645   1.551139   2.443691   3.778253
    31  H    7.824724   7.930985   4.358558   5.102870   6.472708
    32  H    9.148353   8.916398   6.150935   7.163764   8.511852
    33  H    9.779881   9.154929   7.659522   8.931389  10.147428
    34  H    9.553877   8.641347   8.348315   9.743327  10.767694
    35  H    8.318769   7.146875   8.320880   9.734942  10.448873
    36  H    6.592842   5.291948   7.596796   8.918857   9.333934
    37  H    3.966327   2.611553   6.030951   7.132698   7.192563
    38  H    2.124210   1.084697   5.424746   6.148422   5.775330
    39  H    1.084362   2.121992   4.627118   4.787606   3.948121
    40  H    2.611053   3.966699   3.942373   3.408870   2.131302
    41  H    4.551533   5.783076   3.457296   2.162869   1.084628
    42  H    6.131261   7.136564   3.456670   2.151402   2.581969
    43  H    7.476003   8.159051   3.980247   3.425465   4.545564
    44  H    7.150748   7.447394   3.462559   3.870213   5.283765
    45  H    5.545997   5.998499   2.082114   2.621288   3.838089
    46  H    5.797730   5.831442   3.197757   4.275381   5.326067
                   26         27         28         29         30
    26  C    0.000000
    27  C    3.667036   0.000000
    28  C    4.842131   1.399963   0.000000
    29  C    5.091548   2.372115   1.367017   0.000000
    30  C    4.357291   2.777520   2.477410   1.497094   0.000000
    31  H    7.133471   4.915883   3.973455   2.815813   2.814021
    32  H    8.968660   7.129733   6.126294   4.851940   4.734501
    33  H   10.276374   9.215267   8.353367   6.996169   6.574495
    34  H   10.599107  10.310286   9.657621   8.311015   7.640804
    35  H    9.933059  10.617423  10.291742   9.063995   8.139164
    36  H    8.565318  10.016997   9.996902   8.949370   7.871379
    37  H    6.197044   8.412946   8.755603   7.991245   6.814519
    38  H    4.550668   7.528929   8.220432   7.784972   6.625441
    39  H    2.593781   6.138229   7.151885   7.104615   6.102220
    40  H    1.084057   4.541463   5.796199   6.142145   5.433739
    41  H    2.130136   2.598855   3.990517   4.776628   4.580008
    42  H    3.933707   1.084393   2.160061   3.358620   3.846861
    43  H    5.750260   2.163459   1.084359   2.142037   3.473970
    44  H    6.128669   3.371069   2.140089   1.082824   2.225682
    45  H    4.492694   2.870804   2.758260   2.085198   1.125917
    46  H    5.556409   4.825781   4.605970   3.548641   2.300928
                   31         32         33         34         35
    31  H    0.000000
    32  H    2.405353   0.000000
    33  H    5.011692   2.859893   0.000000
    34  H    6.831298   5.061562   2.425483   0.000000
    35  H    8.300743   7.167869   5.067961   2.890798   0.000000
    36  H    8.823101   8.319350   6.846312   5.062090   2.417352
    37  H    8.588284   8.872552   8.277855   7.127112   5.026136
    38  H    8.941504   9.805485   9.821741   9.073428   7.272179
    39  H    8.772635  10.186678  10.858633  10.601406   9.256459
    40  H    8.196044  10.035693  11.287572  11.508320  10.663685
    41  H    7.132512   9.286884  11.075925  11.791702  11.527138
    42  H    5.852938   8.118238  10.276540  11.393733  11.662699
    43  H    4.443654   6.521434   8.867903  10.308025  11.098183
    44  H    2.327794   4.124572   6.373520   7.879023   8.930887
    45  H    2.816335   4.962370   6.998612   8.187299   8.768855
    46  H    2.713781   4.022916   5.554217   6.591900   7.246891
                   36         37         38         39         40
    36  H    0.000000
    37  H    2.841521   0.000000
    38  H    5.176599   2.338457   0.000000
    39  H    7.400395   4.645851   2.454874   0.000000
    40  H    9.122066   6.569883   4.631683   2.305444   0.000000
    41  H   10.404974   8.211550   6.668815   4.630711   2.475447
    42  H   10.978068   9.232524   8.148063   6.500458   4.616154
    43  H   10.905530   9.742711   9.224442   8.109319   6.644971
    44  H    9.091682   8.456187   8.504093   8.030479   7.187651
    45  H    8.509972   7.387051   7.057936   6.355817   5.512201
    46  H    7.233974   6.586105   6.780618   6.731680   6.536845
                   41         42         43         44         45
    41  H    0.000000
    42  H    2.292310   0.000000
    43  H    4.640782   2.501436   0.000000
    44  H    5.839285   4.280217   2.494475   0.000000
    45  H    4.529876   3.816905   3.714289   2.802561   0.000000
    46  H    6.185990   5.809022   5.521081   3.841677   2.032361
                   46
    46  H    0.000000
 Stoichiometry    C30H16
 Framework group  C1[X(C30H16)]
 Deg. of freedom   132
 Full point group                 C1      NOp   1
 Largest Abelian subgroup         C1      NOp   1
 Largest concise Abelian subgroup C1      NOp   1
                         Standard orientation:                         
 ---------------------------------------------------------------------
 Center     Atomic      Atomic             Coordinates (Angstroms)
 Number     Number       Type             X           Y           Z
 ---------------------------------------------------------------------
      1          6           0        0.693120   -0.894499   -0.023965
      2          6           0        0.498938    0.519164   -0.154341
      3          6           0        1.786793    1.087257   -0.318664
      4          6           0        2.093768   -1.137761   -0.109987
      5          6           0        2.754182    0.072345   -0.311337
      6          6           0        2.775739   -2.304078    0.168225
      7          6           0        4.207755   -2.175940    0.170911
      8          6           0        4.857039   -0.954237   -0.014000
      9          6           0        4.117211    0.262234   -0.227098
     10          6           0        2.140392    2.429451   -0.262726
     11          6           0        3.572710    2.678825   -0.276025
     12          6           0        4.507229    1.659752   -0.257669
     13          6           0       -0.131376   -1.911381    0.500936
     14          6           0        0.551317   -3.229342    0.611296
     15          6           0        1.901778   -3.415021    0.495969
     16          6           0       -0.596341    1.365608    0.029322
     17          6           0       -0.277234    2.779952    0.041662
     18          6           0        1.038572    3.291545   -0.092643
     19          6           0       -1.966923    0.876876    0.146877
     20          6           0       -2.974675    1.900416    0.252090
     21          6           0       -2.628639    3.287339    0.313725
     22          6           0       -1.344865    3.715505    0.212882
     23          6           0       -2.396633   -0.493299    0.074691
     24          6           0       -3.800696   -0.746132   -0.072275
     25          6           0       -4.757345    0.297299    0.076140
     26          6           0       -4.354912    1.580778    0.270433
     27          6           0       -4.299950   -2.007194   -0.484940
     28          6           0       -3.438753   -3.023817   -0.914722
     29          6           0       -2.105919   -2.895637   -0.639295
     30          6           0       -1.642794   -1.829393    0.304065
     31          1           0       -0.060534   -4.081442    0.890107
     32          1           0        2.313907   -4.402302    0.678437
     33          1           0        4.816323   -3.054287    0.362591
     34          1           0        5.940244   -0.928945    0.042137
     35          1           0        5.559639    1.923810   -0.229237
     36          1           0        3.925695    3.705024   -0.262300
     37          1           0        1.171786    4.367423   -0.035470
     38          1           0       -1.113399    4.774628    0.248243
     39          1           0       -3.436946    4.001905    0.422698
     40          1           0       -5.076277    2.381248    0.389007
     41          1           0       -5.810990    0.046815    0.016908
     42          1           0       -5.373477   -2.120556   -0.587880
     43          1           0       -3.821945   -3.874802   -1.466830
     44          1           0       -1.389223   -3.637387   -0.968932
     45          1           0       -2.058186   -2.139728    1.303480
     46          1           0       -0.263556   -1.681106    2.139817
 ---------------------------------------------------------------------
 Rotational constants (GHZ):           0.2766816           0.1562342           0.1019306
 Standard basis: 6-311+G(d,p) (5D, 7F)
 There are   786 symmetry adapted cartesian basis functions of A   symmetry.
 There are   756 symmetry adapted basis functions of A   symmetry.
   756 basis functions,  1208 primitive gaussians,   786 cartesian basis functions
    98 alpha electrons       98 beta electrons
       nuclear repulsion energy      2627.2487448142 Hartrees.
 NAtoms=   46 NActive=   46 NUniq=   46 SFac= 1.00D+00 NAtFMM=   60 NAOKFM=F Big=F
 Integral buffers will be    131072 words long.
 Raffenetti 2 integral format.
 Two-electron integral symmetry is turned on.
 One-electron integrals computed using PRISM.
 NBasis=   756 RedAO= T EigKep=  1.27D-06  NBF=   756
 NBsUse=   735 1.00D-06 EigRej=  8.53D-07 NBFU=   735
 ExpMin= 4.38D-02 ExpMax= 4.56D+03 ExpMxC= 6.82D+02 IAcc=2 IRadAn=         4 AccDes= 0.00D+00
 Harris functional with IExCor=  402 and IRadAn=       4 diagonalized for initial guess.
 HarFok:  IExCor=  402 AccDes= 0.00D+00 IRadAn=         4 IDoV= 1 UseB2=F ITyADJ=14
 ICtDFT=  3500011 ScaDFX=  1.000000  1.000000  1.000000  1.000000
 FoFCou: FMM=F IPFlag=           0 FMFlag=      100000 FMFlg1=           0
         NFxFlg=           0 DoJE=T BraDBF=F KetDBF=T FulRan=T
         wScrn=  0.000000 ICntrl=       500 IOpCl=  0 I1Cent=   200000004 NGrid=           0
         NMat0=    1 NMatS0=      1 NMatT0=    0 NMatD0=    1 NMtDS0=    0 NMtDT0=    0
 Petite list used in FoFCou.
 Requested convergence on RMS density matrix=1.00D-08 within 128 cycles.
 Requested convergence on MAX density matrix=1.00D-06.
 Requested convergence on             energy=1.00D-06.
 No special actions if energy rises.
 SCF Done:  E(RB3LYP) =  -1152.95912163     A.U. after   20 cycles
            NFock= 20  Conv=0.88D-08     -V/T= 2.0046
 DoSCS=F DFT=T ScalE2(SS,OS)=  1.000000  1.000000
 Range of M.O.s used for correlation:     1   735
 NBasis=   756 NAE=    98 NBE=    98 NFC=     0 NFV=     0
 NROrb=    735 NOA=    98 NOB=    98 NVA=   637 NVB=   637

 **** Warning!!: The largest alpha MO coefficient is  0.13921927D+03


 **** Warning!!: The smallest alpha delta epsilon is  0.34753903D-01

 Symmetrizing basis deriv contribution to polar:
 IMax=3 JMax=2 DiffMx= 0.00D+00
 G2DrvN: will do    47 centers at a time, making    1 passes.
 Calling FoFCou, ICntrl=  3107 FMM=F I1Cent=   0 AccDes= 0.00D+00.
 End of G2Drv F.D. properties file   721 does not exist.
 End of G2Drv F.D. properties file   722 does not exist.
 End of G2Drv F.D. properties file   788 does not exist.
          IDoAtm=1111111111111111111111111111111111111111111111
          Differentiating once with respect to nuclear coordinates.
 CalDSu exits because no D1Ps are significant.
          There are   141 degrees of freedom in the 1st order CPHF.  IDoFFX=6 NUNeed=     0.
    136 vectors produced by pass  0 Test12= 6.24D-14 1.00D-09 XBig12= 3.46D-01 2.47D-01.
 AX will form   136 AO Fock derivatives at one time.
    135 vectors produced by pass  1 Test12= 6.24D-14 1.00D-09 XBig12= 1.04D-01 5.72D-02.
    135 vectors produced by pass  2 Test12= 6.24D-14 1.00D-09 XBig12= 1.62D-03 6.05D-03.
    135 vectors produced by pass  3 Test12= 6.24D-14 1.00D-09 XBig12= 9.78D-06 2.58D-04.
    135 vectors produced by pass  4 Test12= 6.24D-14 1.00D-09 XBig12= 3.04D-08 1.29D-05.
    135 vectors produced by pass  5 Test12= 6.24D-14 1.00D-09 XBig12= 1.26D-10 1.06D-06.
    109 vectors produced by pass  6 Test12= 6.24D-14 1.00D-09 XBig12= 1.86D-11 4.97D-07.
     83 vectors produced by pass  7 Test12= 6.24D-14 1.00D-09 XBig12= 3.03D-12 1.05D-07.
     49 vectors produced by pass  8 Test12= 6.24D-14 1.00D-09 XBig12= 2.07D-13 2.53D-08.
      8 vectors produced by pass  9 Test12= 6.24D-14 1.00D-09 XBig12= 1.21D-15 1.88D-09.
      2 vectors produced by pass 10 Test12= 6.24D-14 1.00D-09 XBig12= 4.88D-16 1.64D-09.
      2 vectors produced by pass 11 Test12= 6.24D-14 1.00D-09 XBig12= 8.80D-16 1.41D-09.
      2 vectors produced by pass 12 Test12= 6.24D-14 1.00D-09 XBig12= 8.44D-16 1.53D-09.
 InvSVY:  IOpt=1 It=  1 EMax= 7.77D-16
 Solved reduced A of dimension  1066 with   141 vectors.
 End of Minotr F.D. properties file   721 does not exist.
 End of Minotr F.D. properties file   722 does not exist.
 End of Minotr F.D. properties file   788 does not exist.

 **********************************************************************

            Population analysis using the SCF Density.

 **********************************************************************

 Orbital symmetries:
       Occupied  (A) (A) (A) (A) (A) (A) (A) (A) (A) (A) (A) (A)
                 (A) (A) (A) (A) (A) (A) (A) (A) (A) (A) (A) (A)
                 (A) (A) (A) (A) (A) (A) (A) (A) (A) (A) (A) (A)
                 (A) (A) (A) (A) (A) (A) (A) (A) (A) (A) (A) (A)
                 (A) (A) (A) (A) (A) (A) (A) (A) (A) (A) (A) (A)
                 (A) (A) (A) (A) (A) (A) (A) (A) (A) (A) (A) (A)
                 (A) (A) (A) (A) (A) (A) (A) (A) (A) (A) (A) (A)
                 (A) (A) (A) (A) (A) (A) (A) (A) (A) (A) (A) (A)
                 (A) (A)
       Virtual   (A) (A) (A) (A) (A) (A) (A) (A) (A) (A) (A) (A)
                 (A) (A) (A) (A) (A) (A) (A) (A) (A) (A) (A) (A)
                 (A) (A) (A) (A) (A) (A) (A) (A) (A) (A) (A) (A)
                 (A) (A) (A) (A) (A) (A) (A) (A) (A) (A) (A) (A)
                 (A) (A) (A) (A) (A) (A) (A) (A) (A) (A) (A) (A)
                 (A) (A) (A) (A) (A) (A) (A) (A) (A) (A) (A) (A)
                 (A) (A) (A) (A) (A) (A) (A) (A) (A) (A) (A) (A)
                 (A) (A) (A) (A) (A) (A) (A) (A) (A) (A) (A) (A)
                 (A) (A) (A) (A) (A) (A) (A) (A) (A) (A) (A) (A)
                 (A) (A) (A) (A) (A) (A) (A) (A) (A) (A) (A) (A)
                 (A) (A) (A) (A) (A) (A) (A) (A) (A) (A) (A) (A)
                 (A) (A) (A) (A) (A) (A) (A) (A) (A) (A) (A) (A)
                 (A) (A) (A) (A) (A) (A) (A) (A) (A) (A) (A) (A)
                 (A) (A) (A) (A) (A) (A) (A) (A) (A) (A) (A) (A)
                 (A) (A) (A) (A) (A) (A) (A) (A) (A) (A) (A) (A)
                 (A) (A) (A) (A) (A) (A) (A) (A) (A) (A) (A) (A)
                 (A) (A) (A) (A) (A) (A) (A) (A) (A) (A) (A) (A)
                 (A) (A) (A) (A) (A) (A) (A) (A) (A) (A) (A) (A)
                 (A) (A) (A) (A) (A) (A) (A) (A) (A) (A) (A) (A)
                 (A) (A) (A) (A) (A) (A) (A) (A) (A) (A) (A) (A)
                 (A) (A) (A) (A) (A) (A) (A) (A) (A) (A) (A) (A)
                 (A) (A) (A) (A) (A) (A) (A) (A) (A) (A) (A) (A)
                 (A) (A) (A) (A) (A) (A) (A) (A) (A) (A) (A) (A)
                 (A) (A) (A) (A) (A) (A) (A) (A) (A) (A) (A) (A)
                 (A) (A) (A) (A) (A) (A) (A) (A) (A) (A) (A) (A)
                 (A) (A) (A) (A) (A) (A) (A) (A) (A) (A) (A) (A)
                 (A) (A) (A) (A) (A) (A) (A) (A) (A) (A) (A) (A)
                 (A) (A) (A) (A) (A) (A) (A) (A) (A) (A) (A) (A)
                 (A) (A) (A) (A) (A) (A) (A) (A) (A) (A) (A) (A)
                 (A) (A) (A) (A) (A) (A) (A) (A) (A) (A) (A) (A)
                 (A) (A) (A) (A) (A) (A) (A) (A) (A) (A) (A) (A)
                 (A) (A) (A) (A) (A) (A) (A) (A) (A) (A) (A) (A)
                 (A) (A) (A) (A) (A) (A) (A) (A) (A) (A) (A) (A)
                 (A) (A) (A) (A) (A) (A) (A) (A) (A) (A) (A) (A)
                 (A) (A) (A) (A) (A) (A) (A) (A) (A) (A) (A) (A)
                 (A) (A) (A) (A) (A) (A) (A) (A) (A) (A) (A) (A)
                 (A) (A) (A) (A) (A) (A) (A) (A) (A) (A) (A) (A)
                 (A) (A) (A) (A) (A) (A) (A) (A) (A) (A) (A) (A)
                 (A) (A) (A) (A) (A) (A) (A) (A) (A) (A) (A) (A)
                 (A) (A) (A) (A) (A) (A) (A) (A) (A) (A) (A) (A)
                 (A) (A) (A) (A) (A) (A) (A) (A) (A) (A) (A) (A)
                 (A) (A) (A) (A) (A) (A) (A) (A) (A) (A) (A) (A)
                 (A) (A) (A) (A) (A) (A) (A) (A) (A) (A) (A) (A)
                 (A) (A) (A) (A) (A) (A) (A) (A) (A) (A) (A) (A)
                 (A) (A) (A) (A) (A) (A) (A) (A) (A) (A) (A) (A)
                 (A) (A) (A) (A) (A) (A) (A) (A) (A) (A) (A) (A)
                 (A) (A) (A) (A) (A) (A) (A) (A) (A) (A) (A) (A)
                 (A) (A) (A) (A) (A) (A) (A) (A) (A) (A) (A) (A)
                 (A) (A) (A) (A) (A) (A) (A) (A) (A) (A) (A) (A)
                 (A) (A) (A) (A) (A) (A) (A) (A) (A) (A) (A) (A)
                 (A) (A) (A) (A) (A) (A) (A) (A) (A) (A) (A) (A)
                 (A) (A) (A) (A) (A) (A) (A) (A) (A) (A) (A) (A)
                 (A) (A) (A) (A) (A) (A) (A) (A) (A) (A) (A) (A)
                 (A)
 The electronic state is 1-A.
 Alpha  occ. eigenvalues --  -10.22036 -10.21024 -10.20993 -10.20754 -10.20684
 Alpha  occ. eigenvalues --  -10.19932 -10.19872 -10.19820 -10.19680 -10.19626
 Alpha  occ. eigenvalues --  -10.19589 -10.19344 -10.19236 -10.19220 -10.19143
 Alpha  occ. eigenvalues --  -10.19046 -10.18984 -10.18841 -10.18830 -10.18652
 Alpha  occ. eigenvalues --  -10.18651 -10.18609 -10.18586 -10.18380 -10.18284
 Alpha  occ. eigenvalues --  -10.17683 -10.17301 -10.17062 -10.16219 -10.15953
 Alpha  occ. eigenvalues --   -0.91883  -0.89633  -0.87658  -0.85276  -0.84974
 Alpha  occ. eigenvalues --   -0.82598  -0.80829  -0.80314  -0.79027  -0.76208
 Alpha  occ. eigenvalues --   -0.75968  -0.74779  -0.72554  -0.71830  -0.70766
 Alpha  occ. eigenvalues --   -0.66790  -0.66335  -0.63952  -0.63108  -0.61935
 Alpha  occ. eigenvalues --   -0.60487  -0.59944  -0.58524  -0.56736  -0.55375
 Alpha  occ. eigenvalues --   -0.53777  -0.51687  -0.51476  -0.50863  -0.50618
 Alpha  occ. eigenvalues --   -0.49861  -0.47920  -0.47604  -0.46270  -0.45621
 Alpha  occ. eigenvalues --   -0.45086  -0.44426  -0.43856  -0.43700  -0.42859
 Alpha  occ. eigenvalues --   -0.42456  -0.42076  -0.41863  -0.41208  -0.40700
 Alpha  occ. eigenvalues --   -0.40458  -0.39866  -0.39348  -0.38357  -0.37344
 Alpha  occ. eigenvalues --   -0.36959  -0.36271  -0.35778  -0.34961  -0.34628
 Alpha  occ. eigenvalues --   -0.33723  -0.33158  -0.32635  -0.31991  -0.31837
 Alpha  occ. eigenvalues --   -0.29319  -0.28797  -0.27153  -0.25075  -0.23061
 Alpha  occ. eigenvalues --   -0.22829  -0.21244  -0.16667
 Alpha virt. eigenvalues --   -0.13191  -0.07378  -0.05325  -0.03850  -0.02537
 Alpha virt. eigenvalues --   -0.00740  -0.00495  -0.00222   0.00458   0.00759
 Alpha virt. eigenvalues --    0.01504   0.01564   0.01718   0.02692   0.02915
 Alpha virt. eigenvalues --    0.02943   0.03303   0.03377   0.03978   0.04522
 Alpha virt. eigenvalues --    0.04559   0.04824   0.05210   0.05499   0.06039
 Alpha virt. eigenvalues --    0.06403   0.06752   0.06878   0.07351   0.08101
 Alpha virt. eigenvalues --    0.08305   0.08575   0.08614   0.09106   0.09355
 Alpha virt. eigenvalues --    0.09724   0.10078   0.10279   0.10695   0.11327
 Alpha virt. eigenvalues --    0.11490   0.11698   0.11876   0.12046   0.12620
 Alpha virt. eigenvalues --    0.12745   0.12913   0.13931   0.14172   0.14536
 Alpha virt. eigenvalues --    0.14617   0.14967   0.15318   0.15516   0.15833
 Alpha virt. eigenvalues --    0.15944   0.16120   0.16170   0.16413   0.16683
 Alpha virt. eigenvalues --    0.16974   0.17179   0.17454   0.17598   0.17838
 Alpha virt. eigenvalues --    0.18156   0.18307   0.18463   0.18493   0.18796
 Alpha virt. eigenvalues --    0.19190   0.19363   0.19455   0.19745   0.20028
 Alpha virt. eigenvalues --    0.20158   0.20462   0.20640   0.20962   0.21258
 Alpha virt. eigenvalues --    0.21376   0.21626   0.21735   0.22043   0.22234
 Alpha virt. eigenvalues --    0.22599   0.22738   0.22856   0.23057   0.23293
 Alpha virt. eigenvalues --    0.23487   0.23654   0.23687   0.24027   0.24297
 Alpha virt. eigenvalues --    0.24609   0.24943   0.25076   0.25201   0.25405
 Alpha virt. eigenvalues --    0.25622   0.25858   0.26326   0.26728   0.26967
 Alpha virt. eigenvalues --    0.27155   0.27463   0.27621   0.27706   0.28009
 Alpha virt. eigenvalues --    0.28048   0.28153   0.28627   0.29022   0.29325
 Alpha virt. eigenvalues --    0.29752   0.30143   0.30267   0.30506   0.30685
 Alpha virt. eigenvalues --    0.30848   0.31310   0.31812   0.32046   0.32450
 Alpha virt. eigenvalues --    0.32811   0.33190   0.33573   0.33909   0.33970
 Alpha virt. eigenvalues --    0.34390   0.34689   0.34936   0.35156   0.35713
 Alpha virt. eigenvalues --    0.36103   0.36620   0.36878   0.37935   0.38407
 Alpha virt. eigenvalues --    0.38689   0.39204   0.39256   0.40057   0.40539
 Alpha virt. eigenvalues --    0.40953   0.41324   0.41916   0.42266   0.42891
 Alpha virt. eigenvalues --    0.43055   0.43912   0.44119   0.45312   0.45479
 Alpha virt. eigenvalues --    0.46145   0.47024   0.48153   0.48475   0.48775
 Alpha virt. eigenvalues --    0.48871   0.49640   0.50769   0.51442   0.51853
 Alpha virt. eigenvalues --    0.52272   0.52649   0.52992   0.53701   0.54002
 Alpha virt. eigenvalues --    0.54553   0.54682   0.54857   0.55530   0.55988
 Alpha virt. eigenvalues --    0.56309   0.56602   0.56843   0.57069   0.57566
 Alpha virt. eigenvalues --    0.57965   0.58286   0.58368   0.58834   0.58877
 Alpha virt. eigenvalues --    0.59750   0.60290   0.60549   0.60911   0.61306
 Alpha virt. eigenvalues --    0.61620   0.62173   0.62259   0.62593   0.62751
 Alpha virt. eigenvalues --    0.63182   0.63933   0.64585   0.64758   0.65738
 Alpha virt. eigenvalues --    0.66163   0.66243   0.66530   0.67076   0.67743
 Alpha virt. eigenvalues --    0.68088   0.68468   0.68608   0.69152   0.69498
 Alpha virt. eigenvalues --    0.69882   0.70578   0.70681   0.71034   0.71116
 Alpha virt. eigenvalues --    0.71412   0.72119   0.72246   0.72646   0.72784
 Alpha virt. eigenvalues --    0.73442   0.73514   0.73588   0.74121   0.74680
 Alpha virt. eigenvalues --    0.75005   0.75290   0.75412   0.75833   0.76337
 Alpha virt. eigenvalues --    0.76670   0.77205   0.77794   0.78629   0.78771
 Alpha virt. eigenvalues --    0.79190   0.80209   0.80927   0.82292   0.82502
 Alpha virt. eigenvalues --    0.83669   0.84023   0.84202   0.85292   0.85924
 Alpha virt. eigenvalues --    0.86296   0.87032   0.87989   0.88293   0.88376
 Alpha virt. eigenvalues --    0.88911   0.89295   0.90081   0.90265   0.91294
 Alpha virt. eigenvalues --    0.91555   0.91979   0.92575   0.92789   0.93060
 Alpha virt. eigenvalues --    0.93145   0.93961   0.94267   0.94798   0.95113
 Alpha virt. eigenvalues --    0.95360   0.95986   0.96022   0.97028   0.97081
 Alpha virt. eigenvalues --    0.97415   0.97573   0.98399   0.98738   0.99271
 Alpha virt. eigenvalues --    0.99789   1.00598   1.01034   1.01732   1.01978
 Alpha virt. eigenvalues --    1.02154   1.02881   1.02990   1.04388   1.04766
 Alpha virt. eigenvalues --    1.05583   1.05784   1.06738   1.07585   1.07712
 Alpha virt. eigenvalues --    1.08309   1.09506   1.10114   1.10834   1.11075
 Alpha virt. eigenvalues --    1.12349   1.13110   1.14173   1.15043   1.15449
 Alpha virt. eigenvalues --    1.16045   1.16365   1.17725   1.18369   1.19282
 Alpha virt. eigenvalues --    1.19577   1.20546   1.21448   1.22787   1.25082
 Alpha virt. eigenvalues --    1.25982   1.27233   1.27837   1.29769   1.31283
 Alpha virt. eigenvalues --    1.32690   1.32986   1.34785   1.36302   1.37417
 Alpha virt. eigenvalues --    1.38641   1.39520   1.40646   1.40803   1.41423
 Alpha virt. eigenvalues --    1.43159   1.43517   1.44020   1.45134   1.45921
 Alpha virt. eigenvalues --    1.46473   1.47304   1.48158   1.48481   1.49275
 Alpha virt. eigenvalues --    1.49463   1.49919   1.50537   1.51136   1.51682
 Alpha virt. eigenvalues --    1.51796   1.52137   1.53362   1.53814   1.54699
 Alpha virt. eigenvalues --    1.55139   1.56296   1.56463   1.57388   1.57967
 Alpha virt. eigenvalues --    1.58081   1.58568   1.59111   1.60410   1.60701
 Alpha virt. eigenvalues --    1.61499   1.62426   1.62918   1.63961   1.64769
 Alpha virt. eigenvalues --    1.65438   1.66161   1.66783   1.67920   1.68829
 Alpha virt. eigenvalues --    1.69049   1.70453   1.70797   1.71174   1.71967
 Alpha virt. eigenvalues --    1.72578   1.73003   1.73745   1.74221   1.74782
 Alpha virt. eigenvalues --    1.75391   1.75718   1.77133   1.77417   1.78083
 Alpha virt. eigenvalues --    1.78925   1.79927   1.80863   1.81275   1.81703
 Alpha virt. eigenvalues --    1.82653   1.83275   1.83765   1.84577   1.84926
 Alpha virt. eigenvalues --    1.85559   1.86847   1.87100   1.87755   1.88126
 Alpha virt. eigenvalues --    1.88534   1.88699   1.89295   1.89860   1.90371
 Alpha virt. eigenvalues --    1.91054   1.91211   1.92246   1.92835   1.93615
 Alpha virt. eigenvalues --    1.94321   1.95402   1.95971   1.96419   1.96978
 Alpha virt. eigenvalues --    1.97866   1.98428   1.99470   1.99596   2.00660
 Alpha virt. eigenvalues --    2.01594   2.02189   2.03075   2.03554   2.04744
 Alpha virt. eigenvalues --    2.05351   2.05663   2.05983   2.06657   2.07552
 Alpha virt. eigenvalues --    2.09344   2.10197   2.10803   2.11264   2.12010
 Alpha virt. eigenvalues --    2.12523   2.13131   2.13751   2.15198   2.15923
 Alpha virt. eigenvalues --    2.16391   2.17347   2.18250   2.18659   2.20001
 Alpha virt. eigenvalues --    2.21122   2.22199   2.22619   2.23227   2.24773
 Alpha virt. eigenvalues --    2.24893   2.26306   2.26874   2.28015   2.28430
 Alpha virt. eigenvalues --    2.30227   2.31706   2.32975   2.35249   2.36067
 Alpha virt. eigenvalues --    2.36587   2.38567   2.39431   2.40368   2.42043
 Alpha virt. eigenvalues --    2.42494   2.43186   2.44570   2.45635   2.46492
 Alpha virt. eigenvalues --    2.47141   2.48393   2.49482   2.52099   2.53663
 Alpha virt. eigenvalues --    2.55398   2.56109   2.56395   2.57698   2.58337
 Alpha virt. eigenvalues --    2.59794   2.60235   2.61528   2.63351   2.64242
 Alpha virt. eigenvalues --    2.65238   2.66932   2.68264   2.69700   2.69823
 Alpha virt. eigenvalues --    2.70630   2.71138   2.71767   2.72099   2.72488
 Alpha virt. eigenvalues --    2.72923   2.73172   2.73547   2.73915   2.74944
 Alpha virt. eigenvalues --    2.75545   2.75585   2.76276   2.76784   2.76917
 Alpha virt. eigenvalues --    2.77506   2.77774   2.78021   2.78478   2.79213
 Alpha virt. eigenvalues --    2.79998   2.80718   2.81671   2.82271   2.82575
 Alpha virt. eigenvalues --    2.83428   2.84354   2.85001   2.85390   2.86421
 Alpha virt. eigenvalues --    2.87078   2.87969   2.88674   2.88772   2.90327
 Alpha virt. eigenvalues --    2.90927   2.92049   2.93773   2.94683   2.96393
 Alpha virt. eigenvalues --    2.98034   2.99624   3.00136   3.02193   3.02768
 Alpha virt. eigenvalues --    3.03338   3.04325   3.06661   3.07725   3.08381
 Alpha virt. eigenvalues --    3.11746   3.13204   3.14062   3.14800   3.15508
 Alpha virt. eigenvalues --    3.19221   3.20111   3.20468   3.21575   3.22247
 Alpha virt. eigenvalues --    3.23529   3.25021   3.25599   3.26554   3.28010
 Alpha virt. eigenvalues --    3.29151   3.32170   3.33641   3.34360   3.36546
 Alpha virt. eigenvalues --    3.38359   3.39445   3.40088   3.41829   3.42299
 Alpha virt. eigenvalues --    3.42991   3.44073   3.44846   3.47162   3.48391
 Alpha virt. eigenvalues --    3.49506   3.51045   3.51751   3.54441   3.55707
 Alpha virt. eigenvalues --    3.58373   3.59669   3.61207   3.62115   3.63090
 Alpha virt. eigenvalues --    3.65975   3.69443   3.71269   3.79821   3.82995
 Alpha virt. eigenvalues --    3.84337   3.85952   3.93182   3.97450   4.04699
 Alpha virt. eigenvalues --    4.05591   4.06051   4.06440   4.07941   4.08571
 Alpha virt. eigenvalues --    4.09749   4.12406   4.20797   4.23829   4.28470
 Alpha virt. eigenvalues --    4.31763   4.40440   4.49951   4.59464   4.70270
 Alpha virt. eigenvalues --    4.72682   4.74750   4.79545   4.79928   4.81622
 Alpha virt. eigenvalues --    4.84038   4.89448  23.40579  23.60640  23.70912
 Alpha virt. eigenvalues --   23.78538  23.80116  23.82745  23.84208  23.86094
 Alpha virt. eigenvalues --   23.87724  23.90192  23.92436  23.93611  23.94641
 Alpha virt. eigenvalues --   23.96977  23.97895  23.98673  24.00037  24.03143
 Alpha virt. eigenvalues --   24.03905  24.05538  24.09817  24.11077  24.11765
 Alpha virt. eigenvalues --   24.12701  24.15760  24.16880  24.17076  24.19920
 Alpha virt. eigenvalues --   24.20967  24.21667
          Condensed to atoms (all electrons):
               1          2          3          4          5          6
     1  C   15.187444   0.462684  -0.580185  -0.220590  -1.313752  -1.473243
     2  C    0.462684   9.449511   0.725746   0.227938   0.147354  -0.603389
     3  C   -0.580185   0.725746   9.649812  -0.493758   0.859832  -0.446269
     4  C   -0.220590   0.227938  -0.493758   8.352350  -0.392043   2.105459
     5  C   -1.313752   0.147354   0.859832  -0.392043   8.925629  -0.273143
     6  C   -1.473243  -0.603389  -0.446269   2.105459  -0.273143  15.313766
     7  C   -0.889722   0.366585  -0.371357  -1.409823   1.698632  -2.961879
     8  C   -0.236479  -0.199639  -2.384680   1.848133  -1.778395  -1.021982
     9  C   -0.082123  -0.493988  -0.812971  -0.551984   1.110648   0.001896
    10  C   -1.440868  -0.188743   1.079937  -0.097103   0.090990  -0.380545
    11  C   -0.234990  -1.104555  -0.504900  -0.634162   0.583890   0.021873
    12  C    0.512223  -0.380701   1.308429  -0.882384  -0.941914   0.282843
    13  C   -0.254531  -1.726914  -2.023323  -0.280021  -0.446169   1.254203
    14  C   -3.088353  -1.544036  -0.602144   0.523481  -0.519667  -0.696646
    15  C    2.373094   0.435819   0.940194  -1.175515  -0.684763  -4.590686
    16  C    0.505363   0.817171   0.602633   0.061664  -0.207203  -0.350760
    17  C   -0.690174   0.299133   0.442183  -0.082681  -0.134239   0.124525
    18  C    0.150178   0.513733   0.311754  -0.044595  -0.791979  -0.070950
    19  C    0.867539   0.138119  -0.257549  -0.049914  -0.256088   0.033467
    20  C   -1.227580   0.378492  -0.076902   0.041775   0.143501  -0.062189
    21  C    0.020617  -0.367897  -0.178736   0.005311   0.047894   0.013732
    22  C    0.662731  -0.518956  -1.032340   0.024638   0.253725   0.053366
    23  C   -0.895857  -0.231375  -0.403391  -0.196215  -0.216766  -0.366088
    24  C   -0.769327  -0.308862   0.177672  -0.104907   0.031086   0.019719
    25  C   -0.160086   0.156309  -0.023295  -0.051306  -0.007918  -0.000071
    26  C    0.148459   0.268529  -0.223242  -0.020371   0.049229  -0.005452
    27  C   -0.930827  -0.136530  -0.073349  -0.013899   0.017670  -0.008329
    28  C    0.928407  -0.027079   0.076847   0.117598  -0.007239   0.116859
    29  C   -0.345747   0.577996  -0.032036  -0.157907   0.077245  -0.051460
    30  C   -1.352523  -0.795683  -0.260972  -0.743415  -0.195281  -0.438295
    31  H    0.063762   0.004347   0.002721   0.002478  -0.000319  -0.055992
    32  H   -0.019545  -0.000141   0.001416   0.036079  -0.010547  -0.046430
    33  H   -0.011884   0.002341  -0.001409   0.034363  -0.007158  -0.105193
    34  H   -0.003963   0.002548  -0.009300  -0.008535   0.036115  -0.037305
    35  H    0.005346  -0.002090  -0.002436  -0.008753   0.023973   0.010749
    36  H    0.006034  -0.007292   0.042088  -0.004327  -0.002439   0.000155
    37  H   -0.002566  -0.012963   0.021227   0.002636  -0.002701  -0.000123
    38  H   -0.001413  -0.011200   0.004465  -0.000085   0.000876   0.000037
[...]
 9,-0.01663650,0.00625230,-0.10260940,0.09296139,-0.03735434,-0.0071171
 0,0.02753386,-0.01200045,-0.00494493,-0.00044715,0.00004494,-0.0000248
 1,-0.00003420,-0.00005638,-0.00002955,-0.00000892,-0.00000788,-0.00000
 817,-0.00000395,-0.00000202,-0.00000347,0.00000100,0.00000077,-0.00000
 357,0.00000366,-0.00000171,-0.00000150,0.00000298,-0.00000031,-0.00000
 133,0.00000379,-0.00000269,0.00000114,0.00000366,0.00000171,0.00000271
 ,0.00000876,-0.00000035,0.00002794,-0.00009201,0.00002658,-0.00004015,
 0.00000883,-0.00000613,0.00070878,0.00067347,0.00016352,0.10345893,-0.
 00002828,-0.00001768,0.00001190,0.00004719,0.00004120,-0.00002235,0.00
 001026,0.00001521,-0.00000763,-0.00001576,-0.00001735,0.00003743,-0.00
 001892,-0.00001390,0.00000391,0.00005121,-0.00001149,-0.00000415,-0.00
 005366,0.00002460,-0.00000427,0.00000656,-0.00005210,-0.00000742,0.000
 04847,0.00001215,-0.00000295,0.00000315,-0.00001329,0.00000269,-0.0000
 2062,0.00000940,-0.00000154,0.00000921,0.00001508,0.00000079,-0.000202
 58,-0.00001505,0.00002432,0.00003483,-0.00006826,-0.00002716,-0.000037
 87,0.00004729,0.00000243,-0.00010020,-0.00004936,-0.00000279,0.0000414
 8,-0.00001095,0.00001014,-0.00000551,-0.00000663,-0.00000117,0.0001494
 8,-0.00013087,-0.00028440,0.00004518,0.00011602,0.00004591,0.00004821,
 -0.00000332,0.00000861,-0.00002078,-0.00001911,-0.00000347,-0.00006377
 ,0.00060006,-0.00024631,-0.00374767,-0.00001092,0.00320221,0.00074877,
 -0.00090282,0.00001980,-0.00042624,-0.00017241,-0.00019624,0.01172613,
 -0.01690002,0.00779239,0.09416568,-0.25651942,0.08835777,-0.00221401,0
 .00159473,0.00055159,-0.00047456,0.00143857,0.00125645,-0.00001854,0.0
 0001294,-0.00001063,0.00000844,0.00000586,0.00001204,0.00000373,0.0000
 0600,0.00000157,0.00000620,-0.00000134,0.00000200,0.00000624,-0.000000
 78,0.00000105,0.00000241,-0.00000606,0.00000055,0.00000165,-0.00000576
 ,0.00000249,0.00000624,-0.00000656,0.00000078,-0.00000491,-0.00000141,
 0.00000179,0.00003306,-0.00010364,0.00003419,-0.00004374,0.00001448,0.
 00005962,-0.00022693,0.00034068,-0.00174166,-0.10009599,0.27060016,-0.
 00021614,-0.00007398,0.00012393,0.00013181,-0.00011086,-0.00006620,-0.
 00019405,0.00004791,-0.00000201,0.00011310,0.00003502,0.00005085,0.000
 03833,0.00009701,0.00001684,-0.00014202,0.00001416,-0.00000355,0.00008
 692,-0.00003391,-0.00000412,-0.00001662,0.00009137,0.00000372,-0.00007
 531,-0.00004907,-0.00000687,0.00001567,-0.00003644,-0.00000603,-0.0000
 1213,-0.00000096,0.00000141,0.00001759,-0.00000478,0.00000017,0.000341
 74,0.00053588,-0.00001730,-0.00007788,-0.00014733,-0.00007536,0.000094
 05,0.00005435,-0.00001529,-0.00024638,-0.00006457,-0.00001846,-0.00008
 796,-0.00002330,0.00004246,0.00002617,0.00002198,0.00000027,0.00006520
 ,-0.00050689,-0.00061707,0.00074021,0.00002365,0.00009810,-0.00002953,
 0.00011918,0.00003868,0.00009718,-0.00008924,-0.00002287,0.00079822,0.
 00086214,-0.00063661,0.00168394,0.00337312,0.00591808,-0.00075379,-0.0
 0040247,0.00031142,-0.00033476,0.00066293,-0.00050020,-0.00584826,0.00
 317717,0.00197088,-0.03414730,0.09026342,-0.07268753,-0.00366494,0.003
 48106,0.00191400,-0.00137727,-0.00053295,0.00694254,-0.00009282,0.0000
 5137,0.00003193,-0.00000773,-0.00000853,0.00001435,-0.00000398,-0.0000
 0437,0.00000086,-0.00000295,0.00000266,0.00000015,-0.00000357,0.000002
 28,0.00000137,0.00000029,0.00000281,0.00000104,0.00000170,0.00000075,0
 .00000685,0.00000119,0.00000286,0.00000131,0.00000471,-0.00001037,-0.0
 0000210,-0.00003639,0.00006857,-0.00001909,0.00002457,0.00001687,0.000
 10947,0.00009871,-0.00136036,-0.00334722,0.04234943,-0.09767601,0.0643
 0242,-0.00006260,0.00001646,0.00006528,0.00000238,0.00003915,-0.000024
 78,-0.00002592,-0.00007454,-0.00000575,0.00024558,-0.00003973,0.000067
 53,0.00004804,0.00010148,0.00008618,0.00008414,-0.00030288,0.00004932,
 -0.00014881,0.00002257,0.00001996,-0.00000408,-0.00013576,-0.00001243,
 0.00004194,0.00007391,-0.00000834,-0.00004268,0.00000582,-0.00000439,0
 .00009357,-0.00000816,0.00000136,-0.00004067,-0.00006975,-0.00001464,0
 .00036127,0.00024009,-0.00121746,-0.00195697,0.00031357,-0.00115058,-0
 .00082073,0.00024044,0.00010048,0.00009725,-0.00013434,-0.00007072,-0.
 00009837,0.00006289,0.00000203,0.00005193,0.00000530,-0.00000318,0.000
 46238,0.00049933,0.00041726,0.00004030,0.00007262,0.00010947,-0.000004
 12,0.00007194,-0.00002397,0.00007269,-0.00000693,-0.00000871,-0.001303
 63,0.00176666,-0.00178992,0.00011863,0.00071002,-0.00021763,-0.0000648
 2,-0.00031395,0.00010572,-0.00007963,0.00014792,-0.00001268,-0.0055083
 6,0.00201438,-0.00123427,-0.01391461,-0.02529085,0.00829509,-0.1573281
 4,-0.13259708,0.04058450,0.00920616,0.01142351,-0.00280605,-0.00247860
 ,-0.00006338,-0.00224259,-0.00001327,0.00000647,-0.00013849,-0.0000028
 3,0.00000654,0.00000242,0.00000785,-0.00000612,-0.00000489,0.00000454,
 -0.00000633,-0.00000059,-0.00000022,-0.00000247,-0.00000033,-0.0000011
 2,-0.00000347,0.00000316,-0.00000101,-0.00000216,0.00000489,-0.0000057
 9,0.00001983,-0.00000636,0.00000215,-0.00001371,-0.00000502,0.00006685
 ,0.00004703,-0.00000710,-0.00071737,-0.00125621,0.00018876,0.00103573,
 0.00042627,0.00041154,0.17259835,0.00025975,0.00036643,0.00004058,0.00
 004584,-0.00026066,0.00003621,-0.00014335,0.00011291,-0.00000719,-0.00
 002528,-0.00002185,-0.00007492,0.00007493,-0.00000529,-0.00001481,-0.0
 0009396,0.00006633,0.00011609,0.00009346,0.00004648,-0.00000885,-0.000
 02275,0.00008859,-0.00000570,-0.00002756,-0.00006599,0.00001954,0.0000
 5516,-0.00009040,0.00000535,-0.00008915,0.00003421,-0.00000129,0.00005
 554,0.00004117,0.00000547,-0.00043492,-0.00115012,-0.00136581,-0.00085
 653,-0.00014000,-0.00106554,0.00015230,0.00026128,-0.00007372,-0.00003
 697,0.00004649,0.00003647,0.00007929,0.00003279,-0.00001878,-0.0000029
 0,0.00003337,0.00000919,-0.00091689,-0.00024662,0.00015505,0.00011251,
 -0.00015785,-0.00020690,-0.00000995,-0.00003532,-0.00005176,-0.0000818
 7,-0.00005969,0.00001313,0.00230491,-0.00134287,0.00365722,0.00023794,
 -0.00001380,-0.00047212,0.00008201,0.00006543,-0.00028612,-0.00004087,
 -0.00013721,0.00010657,0.00089816,0.00179217,0.00220782,0.00454946,0.0
 0657225,0.00014762,-0.13140602,-0.21701916,0.06506358,-0.01389207,-0.0
 1555977,0.00639680,-0.00145489,0.00132593,-0.00066371,-0.00000570,-0.0
 0000573,0.00000668,0.00000175,-0.00000463,0.00000079,-0.00000688,0.000
 00862,0.00000686,-0.00000288,0.00000580,-0.00000146,0.00000223,0.00000
 091,0.00000096,0.00000640,-0.00000056,-0.00000260,0.00000771,-0.000003
 62,0.00000405,0.00000630,-0.00003346,-0.00000425,-0.00000460,-0.000006
 12,0.00002054,-0.00002608,-0.00001473,0.00001186,0.00024798,0.00009636
 ,-0.00007458,-0.00034417,0.00011121,-0.00173020,0.14176329,0.22614463,
 -0.00093066,0.00006953,0.00053367,-0.00005378,0.00017196,0.00007607,-0
 .00003225,-0.00008454,-0.00006557,0.00126809,0.00009678,-0.00032798,-0
 .00017026,0.00049941,-0.00003030,0.00039171,-0.00077468,-0.00023233,-0
 .00026729,0.00002626,-0.00009852,-0.00000993,-0.00033914,-0.00002176,0
 .00039424,0.00005849,0.00005813,0.00016683,0.00009962,0.00003276,-0.00
 002361,-0.00003639,-0.00000519,-0.00001721,0.00009541,0.00001759,0.003
 53773,-0.00074841,-0.00003553,0.00031404,0.00132802,0.00046738,-0.0009
 0501,-0.00005326,0.00019111,-0.00033462,-0.00000436,0.00003609,0.00011
 346,-0.00005795,0.00000849,-0.00024327,0.00004151,0.00001824,0.0012814
 7,0.00033434,0.00007532,-0.00066215,0.00010084,-0.00004731,0.00006455,
 0.00004473,-0.00016557,0.00001872,-0.00003843,0.00001514,-0.00206095,0
 .00069934,0.00187623,-0.00112541,0.00011783,-0.00084538,0.00028361,0.0
 0026697,-0.00055137,0.00011263,-0.00044404,0.00025068,-0.00161863,0.00
 064363,0.00592568,-0.00093163,-0.00179404,0.00596602,0.04010330,0.0615
 9977,-0.05499070,0.00333525,0.01176763,0.00471335,-0.00195265,-0.00069
 379,-0.00119405,-0.00001374,0.00000506,0.00016263,-0.00000314,0.000012
 75,-0.00000523,0.00001067,-0.00001728,0.00002629,0.00000387,-0.0000040
 6,-0.00000253,-0.00000523,-0.00000318,0.00000069,-0.00000283,-0.000004
 87,-0.00001544,0.00000050,-0.00000276,0.00001784,-0.00000722,0.0000355
 6,-0.00001552,0.00002166,-0.00000059,0.00002656,0.00003297,0.00000234,
 -0.00001847,-0.00023147,-0.00021158,0.00012890,0.00017832,-0.00139810,
 -0.00335057,-0.03966599,-0.07103715,0.04732821,0.00666354,-0.01659088,
 -0.00508834,0.00060715,0.00723111,0.00072592,0.00127534,-0.00157233,-0
 .00020741,-0.00049493,-0.00070610,-0.00400807,0.00149872,0.00022894,0.
 00005464,0.00138086,-0.00288584,0.00012011,-0.00056894,0.00042914,0.00
 028648,0.00056074,0.00010907,-0.00009711,-0.00086839,-0.00124223,0.000
 24797,0.00156421,0.00214637,0.00006552,-0.00026944,-0.00025312,-0.0000
 0377,0.00030478,0.00050982,0.00009676,-0.03926971,0.00922098,0.0744320
 8,0.00754277,0.00621891,-0.00367962,-0.00572523,0.00377045,-0.00128595
 ,-0.00151995,-0.00304204,0.00041900,-0.00036174,0.00258681,0.00010146,
 -0.00143867,-0.00067068,0.00006644,0.00018393,0.00623750,-0.00225266,-
 0.00136873,-0.00139562,0.00043298,-0.00018597,-0.00011404,0.00008992,-
 0.00013822,-0.00100930,-0.00001327,-0.00493473,-0.02084238,-0.01374586
 ,0.00257059,-0.00074421,-0.00001626,0.00063004,0.00023319,-0.00011767,
 0.00034589,-0.00100616,0.00001762,-0.00367798,-0.00292535,0.00291273,0
 .01030950,0.00308878,0.00060576,-0.01150322,0.01538445,-0.02191307,-0.
 01207842,0.00650921,0.07152837,0.00023845,-0.00026197,0.00041670,0.000
 12491,-0.00013114,0.00041434,-0.00008159,-0.00001598,-0.00003333,-0.00
 001858,0.00000736,0.00000812,-0.00002474,-0.00000768,-0.00000199,0.000
 00799,0.00001396,0.00000427,0.00002631,-0.00004078,-0.00001306,-0.0000
 4969,-0.00003188,-0.00001900,0.00003182,0.00000641,-0.00000631,0.00002
 608,-0.00001509,0.00000129,0.00000771,0.00005077,0.00017745,0.00006683
 ,-0.00011236,-0.00016035,0.00027356,0.00013080,0.00004500,-0.00022979,
 -0.00060934,-0.00160851,0.02754311,0.00485248,-0.00006365,-0.00089076,
 0.00013088,0.00008909,-0.00069634,-0.00011596,0.00034147,0.00006424,-0
 .00409740,-0.00054293,0.00029711,0.00064546,-0.00107325,-0.00026840,-0
 .00069483,0.00272997,0.00035474,0.00056494,-0.00046527,-0.00031435,0.0
 0040337,0.00098878,0.00009366,-0.00104260,-0.00032904,-0.00000443,-0.0
 0019680,-0.00080878,0.00002815,-0.00004761,-0.00014938,0.00000905,-0.0
 0006849,-0.00007472,0.00000683,0.00117261,0.00550595,-0.00102900,-0.00
 380945,-0.00001267,0.00012191,0.00338132,-0.00141431,0.00126667,0.0020
 5953,-0.00071284,0.00022766,-0.00098698,0.00099517,0.00001855,0.001219
 16,-0.00011216,-0.00009224,-0.00296425,0.00061042,-0.00032208,0.001343
 69,0.00020776,0.00055140,-0.00063737,0.00037894,-0.00014788,0.00062103
 ,0.00021464,-0.00003089,-0.00246594,-0.01386671,-0.01519772,0.00092595
 ,0.00100365,-0.00048831,-0.00011643,-0.00246169,0.00006085,-0.00193264
 ,0.00100743,0.00003901,-0.00095267,-0.00185295,0.00098893,0.00372268,0
 .00113329,0.00074001,-0.00365577,0.00224040,0.00980229,0.00211995,-0.0
 1703260,0.00534862,-0.00005099,0.00012778,-0.00096509,-0.00000347,0.00
 002097,-0.00005193,0.00003055,-0.00000053,0.00000341,-0.00000397,-0.00
 000341,0.00003198,0.00000738,-0.00000911,-0.00000475,0.00000515,-0.000
 01010,0.00000408,0.00001094,-0.00001938,0.00000646,-0.00000820,-0.0000
 2296,0.00002322,-0.00000944,0.00001922,-0.00002679,-0.00000649,0.00005
 165,0.00001754,0.00004858,0.00004225,0.00007802,-0.00000083,-0.0000715
 4,-0.00000799,-0.00025016,-0.00004106,-0.00034252,-0.00002319,-0.00089
 553,-0.00085491,-0.00394395,0.03733794,0.01449277,-0.02274348,-0.00901
 171,-0.00137519,0.01610521,0.00030661,0.00607613,-0.00046409,0.0001259
 5,-0.00535822,-0.00097985,0.00189667,-0.00080761,-0.00303675,-0.000289
 15,0.00691271,-0.00328173,0.00002247,-0.00435211,0.00164833,-0.0002105
 2,0.00241158,-0.00331455,-0.00027393,0.00164940,0.00160338,-0.00012520
 ,-0.00026757,0.00079002,0.00007575,0.00028469,-0.00031018,-0.00000335,
 -0.00036025,0.00032514,0.00001774,-0.01076703,0.00130798,0.03837566,0.
 00906903,0.01108983,-0.00633465,-0.00798788,0.00178909,0.00071832,0.00
 031817,-0.00640134,-0.00001722,-0.00201840,0.00469351,0.00039541,0.000
 94357,-0.00222658,-0.00015246,0.00099585,0.01082179,-0.00292877,-0.003
 40145,-0.00351806,0.00071184,-0.00262728,0.00056655,0.00022456,0.00197
 694,0.00048456,-0.00013461,-0.01241869,-0.03617775,-0.01478591,0.00468
 675,-0.00308754,0.00383735,-0.00103205,0.00097047,-0.00045624,0.001004
 31,-0.00083186,-0.00004970,-0.00458544,-0.00783443,0.00375353,0.019544
 15,0.01015882,0.00032081,-0.02623372,0.02876924,-0.03215610,0.01780282
 ,0.00588250,0.05194819,0.00023423,0.00100026,-0.00075272,-0.00022162,0
 .00019643,0.00028835,0.00014085,0.00014624,0.00001304,0.00002139,-0.00
 008678,0.00008448,0.00009454,-0.00007000,-0.00000860,0.00000967,-0.000
 10194,-0.00000699,0.00002997,-0.00011319,-0.00006982,-0.00010713,-0.00
 013029,0.00002361,-0.00005923,0.00008214,-0.00005818,0.00000883,0.0000
 6808,-0.00001095,-0.00009317,-0.00004183,0.00003489,-0.00001698,-0.000
 05336,-0.00001362,0.00032347,-0.00000870,-0.00025815,0.00016292,0.0001
 4699,-0.00265343,-0.06165109,0.00078008,-0.00107898,-0.02222429,0.0364
 3829,0.02139038,0.00044495,-0.01953325,-0.00126888,-0.00659667,0.00107
 879,-0.00030078,0.00452289,0.00150747,0.00004702,0.00050695,0.00282491
 ,0.00004150,-0.00832037,0.00548261,0.00024535,0.00460699,-0.00234809,-
 0.00019830,-0.00212591,0.00345247,0.00035335,-0.00156309,-0.00066733,-
 0.00000790,-0.00078942,-0.00216044,0.00003569,0.00015576,0.00019173,-0
 .00001682,-0.00008866,-0.00075303,-0.00005165,0.03179822,-0.00616112,-
 0.08063883,-0.02080876,-0.02286457,0.01740385,0.01309451,-0.00426080,0
 .00048817,0.00332061,0.00593761,-0.00040247,0.00157786,-0.00430189,-0.
 00028328,0.00027487,0.00207578,0.00007377,-0.00146786,-0.00672353,0.00
 244611,0.00222667,0.00216960,-0.00014044,0.00169908,-0.00013596,-0.000
 19662,-0.00105861,-0.00001154,0.00007017,0.00568326,0.01817537,0.00595
 789,-0.00296114,0.00219546,-0.00093502,0.00055779,-0.00094492,0.000271
 04,-0.00039628,0.00111129,-0.00012264,0.00216861,0.00622031,-0.0030448
 2,-0.01351653,-0.00649060,0.00296429,0.01629642,-0.01557044,0.01178658
 ,-0.01214314,-0.00993653,-0.08610688,0.00000907,0.00018625,-0.00057239
 ,0.00025245,-0.00008006,-0.00082418,-0.00000579,-0.00009868,0.00000318
 ,0.00001797,0.00005070,-0.00005401,-0.00004140,0.00002669,0.00002266,-
 0.00001111,0.00005838,0.00000267,-0.00003894,0.00007800,0.00006075,0.0
 0007937,0.00010423,-0.00002616,0.00001295,-0.00003982,0.00001928,-0.00
 002105,-0.00003746,0.00001584,0.00012192,0.00008634,-0.00004973,0.0000
 9082,-0.00002955,-0.00011640,-0.00012380,0.00005968,0.00018449,0.00021
 241,-0.00050134,0.00124379,0.02102382,0.00482024,0.05654736,-0.0164533
 9,0.00768566,-0.00632842,-0.01426138,0.00049293,0.00119697,-0.00048653
 ,0.00043631,-0.00078131,0.00039331,-0.00184108,0.00009019,-0.00022442,
 0.00152797,-0.00083631,-0.00009506,0.00137710,-0.00057301,0.00055872,-
 0.00038278,0.00017632,-0.00006870,0.00020761,0.00013929,0.00000897,-0.
 00104087,0.00023229,0.00004926,-0.00000019,0.00050527,-0.00001450,0.00
 048194,0.00010474,-0.00002677,-0.00014407,-0.00057448,-0.00000026,-0.0
 0532705,-0.01993205,0.01522808,-0.00247753,-0.00184846,0.01119147,-0.0
 0280089,-0.00088702,0.00020043,0.00078175,-0.00021714,0.00042531,0.000
 12310,0.00014076,0.00005746,-0.00022270,0.00011162,0.00000951,-0.00096
 519,0.00277201,-0.00020951,-0.00126471,-0.00043139,0.00017777,0.000147
 07,-0.00009258,0.00004895,-0.00020362,-0.00012960,-0.00000755,-0.00386
 205,-0.00349423,-0.00299557,0.00286023,-0.00239743,0.00028416,0.000445
 18,0.00093763,-0.00024566,0.00080050,-0.00077352,0.00001408,-0.0001989
 4,0.00315224,-0.00078548,-0.00289725,-0.00082230,0.00033792,0.00158598
 ,0.00082652,0.00051853,-0.00132380,0.00694741,0.00226817,0.00036203,0.
 00000322,-0.00051093,0.00011042,0.00008289,-0.00078699,0.00000454,0.00
 000589,-0.00001412,-0.00001292,0.00000102,0.00001735,-0.00001069,-0.00
 000501,-0.00001528,-0.00000433,0.00001094,-0.00001648,0.00000139,0.000
 00467,0.00000828,-0.00000002,0.00000778,-0.00002553,0.00001058,0.00000
 103,0.00000497,0.00002097,-0.00002803,-0.00000634,-0.00001623,0.000002
 92,0.00000983,0.00000272,0.00006473,0.00003115,-0.00009776,0.00009591,
 0.00020057,0.00025351,0.00001766,0.00048571,-0.00394359,-0.01300022,-0
 .00461236,0.00931879,0.03552063,0.01880725,-0.03265309,-0.01026884,0.0
 0140773,0.01379427,0.00091818,0.00340567,-0.00169039,0.00010724,-0.001
 58996,-0.00151156,-0.00068838,0.00149486,-0.00101618,-0.00023203,0.004
 98822,-0.00487180,-0.00072652,-0.00204442,0.00145936,0.00011177,0.0011
 3904,-0.00088207,-0.00006001,-0.00044084,-0.00111081,-0.00007572,0.001
 98231,0.00312787,-0.00001756,-0.00059608,-0.00005063,0.00001974,0.0005
 9564,0.00085126,0.00010223,-0.02635661,0.00974802,0.02361796,0.0169627
 0,0.01892370,-0.01195383,-0.01055426,0.00398824,0.00078580,-0.00570191
 ,-0.00462036,0.00010411,0.00001640,0.00302579,0.00033177,-0.00231474,-
 0.00107710,0.00010626,0.00213986,0.00200598,-0.00289499,-0.00066182,-0
 .00027781,0.00007218,0.00084246,-0.00091556,0.00012053,-0.00106272,-0.
 00158187,0.00004746,-0.00248612,-0.01005027,-0.00451255,0.00243077,0.0
 0108991,0.00181690,0.00099374,0.00105651,-0.00023789,0.00067526,-0.001
 40432,0.00001402,-0.00489625,-0.00230507,0.00188533,0.00811023,0.00257
 157,0.00384343,-0.00927029,0.01063428,-0.01225206,-0.01450934,0.001197
 56,0.00585989,0.00033618,0.00003048,0.00020642,-0.00014111,0.00000774,
 0.00060228,-0.00006869,0.00001674,-0.00003051,-0.00003144,0.00002479,0
 .00001606,-0.00001045,0.00001530,-0.00002223,0.00002156,-0.00000886,-0
 .00000278,0.00002862,-0.00005366,-0.00004666,-0.00002959,-0.00005069,-
 0.00004081,0.00001653,-0.00005289,0.00000515,-0.00000085,-0.00010056,-
 0.00002527,-0.00002233,0.00010747,0.00013719,0.00004113,-0.00019723,-0
 .00044744,0.00001981,0.00020254,-0.00024649,-0.00000101,-0.00104795,-0
 .00328028,-0.03734821,0.00077190,-0.03133428,0.05368302,-0.00712058,0.
 03856526\\-0.00000326,0.00000610,-0.00000202,-0.00000011,-0.00000333,-
 0.00000338,-0.00000398,-0.00000212,0.00000075,0.00000145,-0.00000221,0
 .00000190,0.00000105,-0.00000079,0.00000029,0.00000130,0.00000098,0.00
 000053,0.00000256,-0.00000461,-0.00000024,-0.00000122,-0.00000094,0.00
 000183,0.00000199,-0.00000373,0.00000393,-0.00000145,-0.00000472,0.000
 00342,-0.00000071,-0.00000074,0.00000640,-0.00000289,-0.00000460,0.000
 00484,0.00001715,0.00000389,-0.00005901,-0.00000094,-0.00000400,0.0000
 0830,0.00000233,-0.00000194,0.00000090,-0.00000115,0.00000016,0.000004
 78,-0.00000067,-0.00000163,0.00000428,-0.00000225,0.00000063,0.0000058
 0,-0.00000064,-0.00000108,-0.00000441,0.00000056,0.00000194,-0.0000018
 3,-0.00000033,0.00000221,0.00000219,-0.00000302,0.00000112,0.00000300,
 -0.00000086,0.00000775,0.00000338,0.00000060,0.00000413,0.00000085,0.0
 0000063,0.00000081,-0.00000186,-0.00000267,0.00000470,-0.00000120,0.00
 000165,0.00000595,-0.00000356,-0.00000202,-0.00000115,-0.00000489,0.00
 001150,-0.00001101,-0.00001347,0.00001009,-0.00000876,-0.00004111,0.00
 000042,0.00000094,-0.00001012,0.00000235,-0.00000104,-0.00000438,0.000
 00188,-0.00000316,0.00000022,0.00000044,-0.00000359,0.00000289,-0.0000
 0133,-0.00000399,0.00000566,-0.00000208,-0.00000268,0.00000672,-0.0000
 0292,-0.00000091,0.00000564,-0.00000322,0.00000066,0.00000452,-0.00000
 274,0.00000224,0.00000170,-0.00000186,0.00000342,-0.00000060,-0.000000
 01,0.00000383,-0.00000297,0.00000162,0.00000322,-0.00000488,0.00000333
 ,0.00000132,-0.00000692,0.00000508,0.00000031,-0.00000371,-0.00000543,
 0.00001445,0.00005389,-0.00002022,0.00000194,0.00003194\\\@


 ...THOSE SCIENCES ARE VAIN AND FULL OF ERRORS WHICH 
 ARE NOT BORN FROM EXPERIMENT, THE MOTHER OF CERTAINTY...

                          -- LEONARDO DA VINCI, 1452-1519
 Job cpu time:       1 days  0 hours 29 minutes 27.6 seconds.
 Elapsed time:       0 days  1 hours 13 minutes 41.1 seconds.
 File lengths (MBytes):  RWF=   2279 Int=      0 D2E=      0 Chk=     47 Scr=      1
 Normal termination of Gaussian 16 at Tue Sep  3 17:43:04 2019.
