 Entering Gaussian System, Link 0=/share/apps/gaussian16/g16/g16
 Initial command:
 /share/apps/gaussian16/g16/l1.exe "/home/amen01//scratch/697/Gau-44545.inp" -scrdir="/home/amen01//scratch/697/"
 Entering Link 1 = /share/apps/gaussian16/g16/l1.exe PID=     44546.
  
 Copyright (c) 1988-2017, Gaussian, Inc.  All Rights Reserved.
  
 This is part of the Gaussian(R) 16 program.  It is based on
 the Gaussian(R) 09 system (copyright 2009, Gaussian, Inc.),
 the Gaussian(R) 03 system (copyright 2003, Gaussian, Inc.),
 the Gaussian(R) 98 system (copyright 1998, Gaussian, Inc.),
 the Gaussian(R) 94 system (copyright 1995, Gaussian, Inc.),
 the Gaussian 92(TM) system (copyright 1992, Gaussian, Inc.),
 the Gaussian 90(TM) system (copyright 1990, Gaussian, Inc.),
 the Gaussian 88(TM) system (copyright 1988, Gaussian, Inc.),
 the Gaussian 86(TM) system (copyright 1986, Carnegie Mellon
 University), and the Gaussian 82(TM) system (copyright 1983,
 Carnegie Mellon University). Gaussian is a federally registered
 trademark of Gaussian, Inc.
  
 This software contains proprietary and confidential information,
 including trade secrets, belonging to Gaussian, Inc.
  
 This software is provided under written license and may be
 used, copied, transmitted, or stored only in accord with that
 written license.
  
 The following legend is applicable only to US Government
 contracts under FAR:
  
                    RESTRICTED RIGHTS LEGEND
  
 Use, reproduction and disclosure by the US Government is
 subject to restrictions as set forth in subparagraphs (a)
 and (c) of the Commercial Computer Software - Restricted
 Rights clause in FAR 52.227-19.
  
 Gaussian, Inc.
 340 Quinnipiac St., Bldg. 40, Wallingford CT 06492
  
  
 ---------------------------------------------------------------
 Warning -- This program may not be used in any manner that
 competes with the business of Gaussian, Inc. or will provide
 assistance to any competitor of Gaussian, Inc.  The licensee
 of this program is prohibited from giving any competitor of
 Gaussian, Inc. access to this program.  By using this program,
 the user acknowledges that Gaussian, Inc. is engaged in the
 business of creating and licensing software in the field of
 computational chemistry and represents and warrants to the
 licensee that it is not a competitor of Gaussian, Inc. and that
 it will not use this program in any manner prohibited above.
 ---------------------------------------------------------------
  

 Cite this work as:
 Gaussian 16, Revision B.01,
 M. J. Frisch, G. W. Trucks, H. B. Schlegel, G. E. Scuseria, 
 M. A. Robb, J. R. Cheeseman, G. Scalmani, V. Barone, 
 G. A. Petersson, H. Nakatsuji, X. Li, M. Caricato, A. V. Marenich, 
 J. Bloino, B. G. Janesko, R. Gomperts, B. Mennucci, H. P. Hratchian, 
 J. V. Ortiz, A. F. Izmaylov, J. L. Sonnenberg, D. Williams-Young, 
 F. Ding, F. Lipparini, F. Egidi, J. Goings, B. Peng, A. Petrone, 
 T. Henderson, D. Ranasinghe, V. G. Zakrzewski, J. Gao, N. Rega, 
 G. Zheng, W. Liang, M. Hada, M. Ehara, K. Toyota, R. Fukuda, 
 J. Hasegawa, M. Ishida, T. Nakajima, Y. Honda, O. Kitao, H. Nakai, 
 T. Vreven, K. Throssell, J. A. Montgomery, Jr., J. E. Peralta, 
 F. Ogliaro, M. J. Bearpark, J. J. Heyd, E. N. Brothers, K. N. Kudin, 
 V. N. Staroverov, T. A. Keith, R. Kobayashi, J. Normand, 
 K. Raghavachari, A. P. Rendell, J. C. Burant, S. S. Iyengar, 
 J. Tomasi, M. Cossi, J. M. Millam, M. Klene, C. Adamo, R. Cammi, 
 J. W. Ochterski, R. L. Martin, K. Morokuma, O. Farkas, 
 J. B. Foresman, and D. J. Fox, Gaussian, Inc., Wallingford CT, 2016.
 
 ******************************************
 Gaussian 16:  ES64L-G16RevB.01 20-Dec-2017
                 9-Jul-2019 
 ******************************************
 %nprocshared=20
 Will use up to   20 processors via shared memory.
 %mem=100GB
 %chk=7-memb2-haddTSguess-2a.chk
 ----------------------------------------------------------------
 # opt=(ts,calcfc,noeigen) freq ub3lyp/6-311+g(d,p) int=grid=fine
 ----------------------------------------------------------------
 1/5=1,10=4,11=1,18=20,26=3,38=1/1,3;
 2/9=110,12=2,17=6,18=5,40=1/2;
 3/5=4,6=6,7=111,11=2,25=1,30=1,71=2,74=-5,75=-4,116=2,140=1/1,2,3;
 4//1;
 5/5=2,38=5/2;
 8/6=4,10=90,11=11/1;
 11/6=1,8=1,9=11,15=111,16=1/1,2,10;
 10/6=1,13=1/2;
 6/7=2,8=2,9=2,10=2,28=1/1;
 7/10=1,18=20,25=1/1,2,3,16;
 1/5=1,10=4,11=1,18=20,26=3/3(2);
 2/9=110/2;
 99//99;
 2/9=110/2;
 3/5=4,6=6,7=111,11=2,25=1,30=1,71=1,74=-5,75=-4,116=2/1,2,3;
 4/5=5,16=3,69=1/1;
 5/5=2,38=5/2;
 7//1,2,3,16;
 1/5=1,11=1,18=20,26=3/3(-5);
 2/9=110/2;
 6/7=2,8=2,9=2,10=2,19=2,28=1/1;
 99/9=1/99;
 ----------------------
 7-memb2-haddTSguess-2a
 ----------------------
 Symbolic Z-matrix:
 Charge =  0 Multiplicity = 2
 C                     0.69688  -0.8106   -0.68802 
 C                     0.47511   0.61786  -0.42615 
 C                     1.755     1.19789  -0.25591 
 C                     2.06713  -1.03765  -0.51862 
 C                     2.72273   0.18717  -0.28119 
 C                     2.7362   -2.27095  -0.30132 
 C                     4.14693  -2.12882   0.0748 
 C                     4.75455  -0.91271   0.26927 
 C                     4.02192   0.34318   0.13543 
 C                     2.05518   2.49765   0.13871 
 C                     3.44722   2.72539   0.46281 
 C                     4.37947   1.69877   0.47459 
 C                    -0.2042   -1.91254  -0.75168 
 C                     0.49199  -3.29947  -0.79211 
 C                     1.94733  -3.39326  -0.36525 
 C                    -0.63425   1.41202  -0.13362 
 C                    -0.37177   2.83331   0.05726 
 C                     0.92852   3.34871   0.21891 
 C                    -1.99462   0.90352  -0.04316 
 C                    -3.04194   1.8441   -0.2206 
 C                    -2.75795   3.25332  -0.17415 
 C                    -1.5016    3.72299   0.03633 
 C                    -2.32579  -0.46782   0.22449 
 C                    -3.66707  -0.89531   0.02272 
 C                    -4.66266   0.05255  -0.3447 
 C                    -4.37173   1.3873   -0.40317 
 C                    -4.04809  -2.24274   0.28807 
 C                    -3.16953  -3.11917   0.91205 
 C                    -1.88828  -2.69955   1.23896 
 C                    -1.35786  -1.45728   0.75688 
 H                    -1.03161  -1.86572  -1.45113 
 H                    -0.10505  -4.03249  -0.23582 
 H                     2.34308  -4.38141  -0.15152 
 H                     4.72998  -3.03205   0.22422 
 H                     5.79846  -0.8919    0.56583 
 H                     5.39671   1.92526   0.77798 
 H                     3.76722   3.72238   0.74768 
 H                     1.04134   4.41088   0.41381 
 H                    -1.32413   4.78747   0.14708 
 H                    -3.5923    3.9416   -0.25908 
 H                    -5.15451   2.11448  -0.59149 
 H                    -5.67635  -0.2969   -0.5106 
 H                    -5.06918  -2.54357   0.0815 
 H                    -3.50868  -4.10766   1.20316 
 H                    -1.2425   -3.34098   1.82807 
 H                    -0.57785  -1.03052   1.37742 
 H                     0.43245  -3.64597  -1.83691 
 

 GradGradGradGradGradGradGradGradGradGradGradGradGradGradGradGradGradGrad
 Berny optimization.
 Initialization pass.
                           ----------------------------
                           !    Initial Parameters    !
                           ! (Angstroms and Degrees)  !
 --------------------------                            --------------------------
 ! Name  Definition              Value          Derivative Info.                !
 --------------------------------------------------------------------------------
 ! R1    R(1,2)                  1.4691         calculate D2E/DX2 analytically  !
 ! R2    R(1,4)                  1.3992         calculate D2E/DX2 analytically  !
 ! R3    R(1,13)                 1.4249         calculate D2E/DX2 analytically  !
 ! R4    R(2,3)                  1.4155         calculate D2E/DX2 analytically  !
 ! R5    R(2,16)                 1.3953         calculate D2E/DX2 analytically  !
 ! R6    R(3,5)                  1.3995         calculate D2E/DX2 analytically  !
 ! R7    R(3,10)                 1.3911         calculate D2E/DX2 analytically  !
 ! R8    R(4,5)                  1.4094         calculate D2E/DX2 analytically  !
 ! R9    R(4,6)                  1.4198         calculate D2E/DX2 analytically  !
 ! R10   R(5,9)                  1.3732         calculate D2E/DX2 analytically  !
 ! R11   R(6,7)                  1.4669         calculate D2E/DX2 analytically  !
 ! R12   R(6,15)                 1.3733         calculate D2E/DX2 analytically  !
 ! R13   R(7,8)                  1.3733         calculate D2E/DX2 analytically  !
 ! R14   R(7,34)                 1.0854         calculate D2E/DX2 analytically  !
 ! R15   R(8,9)                  1.4601         calculate D2E/DX2 analytically  !
 ! R16   R(8,35)                 1.0854         calculate D2E/DX2 analytically  !
 ! R17   R(9,12)                 1.4424         calculate D2E/DX2 analytically  !
 ! R18   R(10,11)                1.4473         calculate D2E/DX2 analytically  !
 ! R19   R(10,18)                1.4142         calculate D2E/DX2 analytically  !
 ! R20   R(11,12)                1.3868         calculate D2E/DX2 analytically  !
 ! R21   R(11,37)                1.0851         calculate D2E/DX2 analytically  !
 ! R22   R(12,36)                1.0854         calculate D2E/DX2 analytically  !
 ! R23   R(13,14)                1.5524         calculate D2E/DX2 analytically  !
 ! R24   R(13,31)                1.0844         calculate D2E/DX2 analytically  !
 ! R25   R(14,15)                1.5195         calculate D2E/DX2 analytically  !
 ! R26   R(14,32)                1.0969         calculate D2E/DX2 analytically  !
 ! R27   R(14,47)                1.1024         calculate D2E/DX2 analytically  !
 ! R28   R(15,33)                1.0857         calculate D2E/DX2 analytically  !
 ! R29   R(16,17)                1.4579         calculate D2E/DX2 analytically  !
 ! R30   R(16,19)                1.4551         calculate D2E/DX2 analytically  !
 ! R31   R(17,18)                1.408          calculate D2E/DX2 analytically  !
 ! R32   R(17,22)                1.4382         calculate D2E/DX2 analytically  !
 ! R33   R(18,38)                1.0858         calculate D2E/DX2 analytically  !
 ! R34   R(19,20)                1.4188         calculate D2E/DX2 analytically  !
 ! R35   R(19,23)                1.4359         calculate D2E/DX2 analytically  !
 ! R36   R(20,21)                1.4383         calculate D2E/DX2 analytically  !
 ! R37   R(20,26)                1.4179         calculate D2E/DX2 analytically  !
 ! R38   R(21,22)                1.3577         calculate D2E/DX2 analytically  !
 ! R39   R(21,40)                1.0849         calculate D2E/DX2 analytically  !
 ! R40   R(22,39)                1.0848         calculate D2E/DX2 analytically  !
 ! R41   R(23,24)                1.4221         calculate D2E/DX2 analytically  !
 ! R42   R(23,30)                1.483          calculate D2E/DX2 analytically  !
 ! R43   R(24,25)                1.4229         calculate D2E/DX2 analytically  !
 ! R44   R(24,27)                1.4252         calculate D2E/DX2 analytically  !
 ! R45   R(25,26)                1.3673         calculate D2E/DX2 analytically  !
 ! R46   R(25,42)                1.085          calculate D2E/DX2 analytically  !
 ! R47   R(26,41)                1.0849         calculate D2E/DX2 analytically  !
 ! R48   R(27,28)                1.389          calculate D2E/DX2 analytically  !
 ! R49   R(27,43)                1.0843         calculate D2E/DX2 analytically  !
 ! R50   R(28,29)                1.3873         calculate D2E/DX2 analytically  !
 ! R51   R(28,44)                1.0848         calculate D2E/DX2 analytically  !
 ! R52   R(29,30)                1.4342         calculate D2E/DX2 analytically  !
 ! R53   R(29,45)                1.0842         calculate D2E/DX2 analytically  !
 ! R54   R(30,46)                1.0843         calculate D2E/DX2 analytically  !
 ! A1    A(2,1,4)              106.5012         calculate D2E/DX2 analytically  !
 ! A2    A(2,1,13)             131.6413         calculate D2E/DX2 analytically  !
 ! A3    A(4,1,13)             119.9478         calculate D2E/DX2 analytically  !
 ! A4    A(1,2,3)              106.4621         calculate D2E/DX2 analytically  !
 ! A5    A(1,2,16)             135.2999         calculate D2E/DX2 analytically  !
 ! A6    A(3,2,16)             117.417          calculate D2E/DX2 analytically  !
 ! A7    A(2,3,5)              109.0951         calculate D2E/DX2 analytically  !
 ! A8    A(2,3,10)             127.7415         calculate D2E/DX2 analytically  !
 ! A9    A(5,3,10)             122.0506         calculate D2E/DX2 analytically  !
 ! A10   A(1,4,5)              109.5668         calculate D2E/DX2 analytically  !
 ! A11   A(1,4,6)              128.386          calculate D2E/DX2 analytically  !
 ! A12   A(5,4,6)              120.6568         calculate D2E/DX2 analytically  !
 ! A13   A(3,5,4)              107.9992         calculate D2E/DX2 analytically  !
 ! A14   A(3,5,9)              124.5177         calculate D2E/DX2 analytically  !
 ! A15   A(4,5,9)              126.1509         calculate D2E/DX2 analytically  !
 ! A16   A(4,6,7)              114.0958         calculate D2E/DX2 analytically  !
 ! A17   A(4,6,15)             115.598          calculate D2E/DX2 analytically  !
 ! A18   A(7,6,15)             130.057          calculate D2E/DX2 analytically  !
 ! A19   A(6,7,8)              123.2042         calculate D2E/DX2 analytically  !
 ! A20   A(6,7,34)             118.1166         calculate D2E/DX2 analytically  !
 ! A21   A(8,7,34)             118.6684         calculate D2E/DX2 analytically  !
 ! A22   A(7,8,9)              121.7819         calculate D2E/DX2 analytically  !
 ! A23   A(7,8,35)             118.7641         calculate D2E/DX2 analytically  !
 ! A24   A(9,8,35)             119.4154         calculate D2E/DX2 analytically  !
 ! A25   A(5,9,8)              113.879          calculate D2E/DX2 analytically  !
 ! A26   A(5,9,12)             114.3697         calculate D2E/DX2 analytically  !
 ! A27   A(8,9,12)             131.4856         calculate D2E/DX2 analytically  !
 ! A28   A(3,10,11)            114.7142         calculate D2E/DX2 analytically  !
 ! A29   A(3,10,18)            113.9817         calculate D2E/DX2 analytically  !
 ! A30   A(11,10,18)           131.2109         calculate D2E/DX2 analytically  !
 ! A31   A(10,11,12)           122.1394         calculate D2E/DX2 analytically  !
 ! A32   A(10,11,37)           119.1434         calculate D2E/DX2 analytically  !
 ! A33   A(12,11,37)           118.6643         calculate D2E/DX2 analytically  !
 ! A34   A(9,12,11)            121.8096         calculate D2E/DX2 analytically  !
 ! A35   A(9,12,36)            119.6138         calculate D2E/DX2 analytically  !
 ! A36   A(11,12,36)           118.5496         calculate D2E/DX2 analytically  !
 ! A37   A(1,13,14)            114.1101         calculate D2E/DX2 analytically  !
 ! A38   A(1,13,31)            118.5505         calculate D2E/DX2 analytically  !
 ! A39   A(14,13,31)           111.3424         calculate D2E/DX2 analytically  !
 ! A40   A(13,14,15)           118.5123         calculate D2E/DX2 analytically  !
 ! A41   A(13,14,32)           109.8602         calculate D2E/DX2 analytically  !
 ! A42   A(13,14,47)           106.337          calculate D2E/DX2 analytically  !
 ! A43   A(15,14,32)           109.7295         calculate D2E/DX2 analytically  !
 ! A44   A(15,14,47)           107.3718         calculate D2E/DX2 analytically  !
 ! A45   A(32,14,47)           103.9578         calculate D2E/DX2 analytically  !
 ! A46   A(6,15,14)            120.8499         calculate D2E/DX2 analytically  !
 ! A47   A(6,15,33)            121.685          calculate D2E/DX2 analytically  !
 ! A48   A(14,15,33)           117.4255         calculate D2E/DX2 analytically  !
 ! A49   A(2,16,17)            116.0516         calculate D2E/DX2 analytically  !
 ! A50   A(2,16,19)            123.878          calculate D2E/DX2 analytically  !
 ! A51   A(17,16,19)           120.0571         calculate D2E/DX2 analytically  !
 ! A52   A(16,17,18)           122.558          calculate D2E/DX2 analytically  !
 ! A53   A(16,17,22)           117.37           calculate D2E/DX2 analytically  !
 ! A54   A(18,17,22)           120.0468         calculate D2E/DX2 analytically  !
 ! A55   A(10,18,17)           120.5909         calculate D2E/DX2 analytically  !
 ! A56   A(10,18,38)           121.0709         calculate D2E/DX2 analytically  !
 ! A57   A(17,18,38)           118.3364         calculate D2E/DX2 analytically  !
 ! A58   A(16,19,20)           116.7859         calculate D2E/DX2 analytically  !
 ! A59   A(16,19,23)           124.1209         calculate D2E/DX2 analytically  !
 ! A60   A(20,19,23)           119.0898         calculate D2E/DX2 analytically  !
 ! A61   A(19,20,21)           119.9829         calculate D2E/DX2 analytically  !
 ! A62   A(19,20,26)           119.6585         calculate D2E/DX2 analytically  !
 ! A63   A(21,20,26)           120.3316         calculate D2E/DX2 analytically  !
 ! A64   A(20,21,22)           121.7801         calculate D2E/DX2 analytically  !
 ! A65   A(20,21,40)           117.8529         calculate D2E/DX2 analytically  !
 ! A66   A(22,21,40)           120.2851         calculate D2E/DX2 analytically  !
 ! A67   A(17,22,21)           121.0109         calculate D2E/DX2 analytically  !
 ! A68   A(17,22,39)           118.4886         calculate D2E/DX2 analytically  !
 ! A69   A(21,22,39)           120.4413         calculate D2E/DX2 analytically  !
 ! A70   A(19,23,24)           118.5647         calculate D2E/DX2 analytically  !
 ! A71   A(19,23,30)           123.6117         calculate D2E/DX2 analytically  !
 ! A72   A(24,23,30)           117.7713         calculate D2E/DX2 analytically  !
 ! A73   A(23,24,25)           119.7554         calculate D2E/DX2 analytically  !
 ! A74   A(23,24,27)           120.6591         calculate D2E/DX2 analytically  !
 ! A75   A(25,24,27)           119.3945         calculate D2E/DX2 analytically  !
 ! A76   A(24,25,26)           120.8268         calculate D2E/DX2 analytically  !
 ! A77   A(24,25,42)           118.5965         calculate D2E/DX2 analytically  !
 ! A78   A(26,25,42)           120.4409         calculate D2E/DX2 analytically  !
 ! A79   A(20,26,25)           120.5668         calculate D2E/DX2 analytically  !
 ! A80   A(20,26,41)           118.8882         calculate D2E/DX2 analytically  !
 ! A81   A(25,26,41)           120.5449         calculate D2E/DX2 analytically  !
 ! A82   A(24,27,28)           120.7361         calculate D2E/DX2 analytically  !
 ! A83   A(24,27,43)           118.5927         calculate D2E/DX2 analytically  !
 ! A84   A(28,27,43)           120.4074         calculate D2E/DX2 analytically  !
 ! A85   A(27,28,29)           119.9454         calculate D2E/DX2 analytically  !
 ! A86   A(27,28,44)           119.8504         calculate D2E/DX2 analytically  !
 ! A87   A(29,28,44)           120.0733         calculate D2E/DX2 analytically  !
 ! A88   A(28,29,30)           121.6242         calculate D2E/DX2 analytically  !
 ! A89   A(28,29,45)           119.9466         calculate D2E/DX2 analytically  !
 ! A90   A(30,29,45)           118.3457         calculate D2E/DX2 analytically  !
 ! A91   A(23,30,29)           117.2054         calculate D2E/DX2 analytically  !
 ! A92   A(23,30,46)           114.3549         calculate D2E/DX2 analytically  !
 ! A93   A(29,30,46)           114.4941         calculate D2E/DX2 analytically  !
 ! D1    D(4,1,2,3)              6.2457         calculate D2E/DX2 analytically  !
 ! D2    D(4,1,2,16)          -162.6309         calculate D2E/DX2 analytically  !
 ! D3    D(13,1,2,3)           170.0037         calculate D2E/DX2 analytically  !
 ! D4    D(13,1,2,16)            1.1272         calculate D2E/DX2 analytically  !
 ! D5    D(2,1,4,5)             -5.0488         calculate D2E/DX2 analytically  !
 ! D6    D(2,1,4,6)            161.3467         calculate D2E/DX2 analytically  !
 ! D7    D(13,1,4,5)          -171.0896         calculate D2E/DX2 analytically  !
 ! D8    D(13,1,4,6)            -4.6942         calculate D2E/DX2 analytically  !
 ! D9    D(2,1,13,14)         -169.012          calculate D2E/DX2 analytically  !
 ! D10   D(2,1,13,31)           56.7672         calculate D2E/DX2 analytically  !
 ! D11   D(4,1,13,14)           -7.041          calculate D2E/DX2 analytically  !
 ! D12   D(4,1,13,31)         -141.2618         calculate D2E/DX2 analytically  !
 ! D13   D(1,2,3,5)             -5.2012         calculate D2E/DX2 analytically  !
 ! D14   D(1,2,3,10)          -173.1896         calculate D2E/DX2 analytically  !
 ! D15   D(16,2,3,5)           166.0053         calculate D2E/DX2 analytically  !
 ! D16   D(16,2,3,10)           -1.9831         calculate D2E/DX2 analytically  !
 ! D17   D(1,2,16,17)          179.9003         calculate D2E/DX2 analytically  !
 ! D18   D(1,2,16,19)           -1.4284         calculate D2E/DX2 analytically  !
 ! D19   D(3,2,16,17)           11.9305         calculate D2E/DX2 analytically  !
 ! D20   D(3,2,16,19)         -169.3983         calculate D2E/DX2 analytically  !
 ! D21   D(2,3,5,4)              2.1882         calculate D2E/DX2 analytically  !
 ! D22   D(2,3,5,9)           -165.2985         calculate D2E/DX2 analytically  !
 ! D23   D(10,3,5,4)           170.9923         calculate D2E/DX2 analytically  !
 ! D24   D(10,3,5,9)             3.5057         calculate D2E/DX2 analytically  !
 ! D25   D(2,3,10,11)          169.0193         calculate D2E/DX2 analytically  !
 ! D26   D(2,3,10,18)           -7.8698         calculate D2E/DX2 analytically  !
 ! D27   D(5,3,10,11)            2.4356         calculate D2E/DX2 analytically  !
 ! D28   D(5,3,10,18)         -174.4536         calculate D2E/DX2 analytically  !
 ! D29   D(1,4,5,3)              1.9129         calculate D2E/DX2 analytically  !
 ! D30   D(1,4,5,9)            169.1399         calculate D2E/DX2 analytically  !
 ! D31   D(6,4,5,3)           -165.7108         calculate D2E/DX2 analytically  !
 ! D32   D(6,4,5,9)              1.5162         calculate D2E/DX2 analytically  !
 ! D33   D(1,4,6,7)           -169.5122         calculate D2E/DX2 analytically  !
 ! D34   D(1,4,6,15)             5.338          calculate D2E/DX2 analytically  !
 ! D35   D(5,4,6,7)             -4.4426         calculate D2E/DX2 analytically  !
 ! D36   D(5,4,6,15)           170.4076         calculate D2E/DX2 analytically  !
 ! D37   D(3,5,9,8)            168.0458         calculate D2E/DX2 analytically  !
 ! D38   D(3,5,9,12)            -6.7251         calculate D2E/DX2 analytically  !
 ! D39   D(4,5,9,8)              2.8311         calculate D2E/DX2 analytically  !
 ! D40   D(4,5,9,12)          -171.9398         calculate D2E/DX2 analytically  !
 ! D41   D(4,6,7,8)              3.2268         calculate D2E/DX2 analytically  !
 ! D42   D(4,6,7,34)          -177.9883         calculate D2E/DX2 analytically  !
 ! D43   D(15,6,7,8)          -170.7022         calculate D2E/DX2 analytically  !
 ! D44   D(15,6,7,34)            8.0827         calculate D2E/DX2 analytically  !
 ! D45   D(4,6,15,14)            6.3588         calculate D2E/DX2 analytically  !
 ! D46   D(4,6,15,33)         -175.9905         calculate D2E/DX2 analytically  !
 ! D47   D(7,6,15,14)         -179.7866         calculate D2E/DX2 analytically  !
 ! D48   D(7,6,15,33)           -2.136          calculate D2E/DX2 analytically  !
 ! D49   D(6,7,8,9)              1.0761         calculate D2E/DX2 analytically  !
 ! D50   D(6,7,8,35)           178.7999         calculate D2E/DX2 analytically  !
 ! D51   D(34,7,8,9)          -177.7024         calculate D2E/DX2 analytically  !
 ! D52   D(34,7,8,35)            0.0214         calculate D2E/DX2 analytically  !
 ! D53   D(7,8,9,5)             -4.0408         calculate D2E/DX2 analytically  !
 ! D54   D(7,8,9,12)           169.5965         calculate D2E/DX2 analytically  !
 ! D55   D(35,8,9,5)           178.2498         calculate D2E/DX2 analytically  !
 ! D56   D(35,8,9,12)           -8.1129         calculate D2E/DX2 analytically  !
 ! D57   D(5,9,12,11)            4.2519         calculate D2E/DX2 analytically  !
 ! D58   D(5,9,12,36)         -177.6659         calculate D2E/DX2 analytically  !
 ! D59   D(8,9,12,11)         -169.3608         calculate D2E/DX2 analytically  !
 ! D60   D(8,9,12,36)            8.7213         calculate D2E/DX2 analytically  !
 ! D61   D(3,10,11,12)          -4.6915         calculate D2E/DX2 analytically  !
 ! D62   D(3,10,11,37)         177.9905         calculate D2E/DX2 analytically  !
 ! D63   D(18,10,11,12)        171.5295         calculate D2E/DX2 analytically  !
 ! D64   D(18,10,11,37)         -5.7886         calculate D2E/DX2 analytically  !
 ! D65   D(3,10,18,17)           6.9784         calculate D2E/DX2 analytically  !
 ! D66   D(3,10,18,38)        -173.5174         calculate D2E/DX2 analytically  !
 ! D67   D(11,10,18,17)       -169.2644         calculate D2E/DX2 analytically  !
 ! D68   D(11,10,18,38)         10.2398         calculate D2E/DX2 analytically  !
 ! D69   D(10,11,12,9)           1.3595         calculate D2E/DX2 analytically  !
 ! D70   D(10,11,12,36)       -176.7423         calculate D2E/DX2 analytically  !
 ! D71   D(37,11,12,9)         178.6899         calculate D2E/DX2 analytically  !
 ! D72   D(37,11,12,36)          0.5881         calculate D2E/DX2 analytically  !
 ! D73   D(1,13,14,15)          17.3705         calculate D2E/DX2 analytically  !
 ! D74   D(1,13,14,32)         144.577          calculate D2E/DX2 analytically  !
 ! D75   D(1,13,14,47)        -103.5142         calculate D2E/DX2 analytically  !
 ! D76   D(31,13,14,15)        154.8497         calculate D2E/DX2 analytically  !
 ! D77   D(31,13,14,32)        -77.9438         calculate D2E/DX2 analytically  !
 ! D78   D(31,13,14,47)         33.965          calculate D2E/DX2 analytically  !
 ! D79   D(13,14,15,6)         -17.7416         calculate D2E/DX2 analytically  !
 ! D80   D(13,14,15,33)        164.5106         calculate D2E/DX2 analytically  !
 ! D81   D(32,14,15,6)        -145.01           calculate D2E/DX2 analytically  !
 ! D82   D(32,14,15,33)         37.2422         calculate D2E/DX2 analytically  !
 ! D83   D(47,14,15,6)         102.6134         calculate D2E/DX2 analytically  !
 ! D84   D(47,14,15,33)        -75.1343         calculate D2E/DX2 analytically  !
 ! D85   D(2,16,17,18)         -12.8784         calculate D2E/DX2 analytically  !
 ! D86   D(2,16,17,22)         165.2935         calculate D2E/DX2 analytically  !
 ! D87   D(19,16,17,18)        168.3962         calculate D2E/DX2 analytically  !
 ! D88   D(19,16,17,22)        -13.432          calculate D2E/DX2 analytically  !
 ! D89   D(2,16,19,20)        -157.9146         calculate D2E/DX2 analytically  !
 ! D90   D(2,16,19,23)          22.7593         calculate D2E/DX2 analytically  !
 ! D91   D(17,16,19,20)         20.7062         calculate D2E/DX2 analytically  !
 ! D92   D(17,16,19,23)       -158.6199         calculate D2E/DX2 analytically  !
 ! D93   D(16,17,18,10)          3.0006         calculate D2E/DX2 analytically  !
 ! D94   D(16,17,18,38)       -176.5169         calculate D2E/DX2 analytically  !
 ! D95   D(22,17,18,10)       -175.1238         calculate D2E/DX2 analytically  !
 ! D96   D(22,17,18,38)          5.3587         calculate D2E/DX2 analytically  !
 ! D97   D(16,17,22,21)         -0.9966         calculate D2E/DX2 analytically  !
 ! D98   D(16,17,22,39)       -178.2115         calculate D2E/DX2 analytically  !
 ! D99   D(18,17,22,21)        177.2234         calculate D2E/DX2 analytically  !
 ! D100  D(18,17,22,39)          0.0084         calculate D2E/DX2 analytically  !
 ! D101  D(16,19,20,21)        -14.0234         calculate D2E/DX2 analytically  !
 ! D102  D(16,19,20,26)        167.8603         calculate D2E/DX2 analytically  !
 ! D103  D(23,19,20,21)        165.3382         calculate D2E/DX2 analytically  !
 ! D104  D(23,19,20,26)        -12.7782         calculate D2E/DX2 analytically  !
 ! D105  D(16,19,23,24)       -167.4596         calculate D2E/DX2 analytically  !
 ! D106  D(16,19,23,30)         15.2313         calculate D2E/DX2 analytically  !
 ! D107  D(20,19,23,24)         13.2288         calculate D2E/DX2 analytically  !
 ! D108  D(20,19,23,30)       -164.0803         calculate D2E/DX2 analytically  !
 ! D109  D(19,20,21,22)          0.0383         calculate D2E/DX2 analytically  !
 ! D110  D(19,20,21,40)       -176.6784         calculate D2E/DX2 analytically  !
 ! D111  D(26,20,21,22)        178.1418         calculate D2E/DX2 analytically  !
 ! D112  D(26,20,21,40)          1.4251         calculate D2E/DX2 analytically  !
 ! D113  D(19,20,26,25)          3.2011         calculate D2E/DX2 analytically  !
 ! D114  D(19,20,26,41)       -176.712          calculate D2E/DX2 analytically  !
 ! D115  D(21,20,26,25)       -174.9086         calculate D2E/DX2 analytically  !
 ! D116  D(21,20,26,41)          5.1783         calculate D2E/DX2 analytically  !
 ! D117  D(20,21,22,17)          7.7928         calculate D2E/DX2 analytically  !
 ! D118  D(20,21,22,39)       -175.0465         calculate D2E/DX2 analytically  !
 ! D119  D(40,21,22,17)       -175.569          calculate D2E/DX2 analytically  !
 ! D120  D(40,21,22,39)          1.5918         calculate D2E/DX2 analytically  !
 ! D121  D(19,23,24,25)         -4.3799         calculate D2E/DX2 analytically  !
 ! D122  D(19,23,24,27)       -179.3283         calculate D2E/DX2 analytically  !
 ! D123  D(30,23,24,25)        173.0875         calculate D2E/DX2 analytically  !
 ! D124  D(30,23,24,27)         -1.8609         calculate D2E/DX2 analytically  !
 ! D125  D(19,23,30,29)        167.1319         calculate D2E/DX2 analytically  !
 ! D126  D(19,23,30,46)         29.0239         calculate D2E/DX2 analytically  !
 ! D127  D(24,23,30,29)        -10.1971         calculate D2E/DX2 analytically  !
 ! D128  D(24,23,30,46)       -148.3051         calculate D2E/DX2 analytically  !
 ! D129  D(23,24,25,26)         -5.2599         calculate D2E/DX2 analytically  !
 ! D130  D(23,24,25,42)        178.957          calculate D2E/DX2 analytically  !
 ! D131  D(27,24,25,26)        169.7526         calculate D2E/DX2 analytically  !
 ! D132  D(27,24,25,42)         -6.0304         calculate D2E/DX2 analytically  !
 ! D133  D(23,24,27,28)          8.5159         calculate D2E/DX2 analytically  !
 ! D134  D(23,24,27,43)       -177.3605         calculate D2E/DX2 analytically  !
 ! D135  D(25,24,27,28)       -166.4505         calculate D2E/DX2 analytically  !
 ! D136  D(25,24,27,43)          7.673          calculate D2E/DX2 analytically  !
 ! D137  D(24,25,26,20)          5.9113         calculate D2E/DX2 analytically  !
 ! D138  D(24,25,26,41)       -174.177          calculate D2E/DX2 analytically  !
 ! D139  D(42,25,26,20)       -178.3834         calculate D2E/DX2 analytically  !
 ! D140  D(42,25,26,41)          1.5283         calculate D2E/DX2 analytically  !
 ! D141  D(24,27,28,29)         -2.3957         calculate D2E/DX2 analytically  !
 ! D142  D(24,27,28,44)        173.4491         calculate D2E/DX2 analytically  !
 ! D143  D(43,27,28,29)       -176.4125         calculate D2E/DX2 analytically  !
 ! D144  D(43,27,28,44)         -0.5678         calculate D2E/DX2 analytically  !
 ! D145  D(27,28,29,30)        -10.5564         calculate D2E/DX2 analytically  !
 ! D146  D(27,28,29,45)        172.8213         calculate D2E/DX2 analytically  !
 ! D147  D(44,28,29,30)        173.6082         calculate D2E/DX2 analytically  !
 ! D148  D(44,28,29,45)         -3.0142         calculate D2E/DX2 analytically  !
 ! D149  D(28,29,30,23)         16.7164         calculate D2E/DX2 analytically  !
 ! D150  D(28,29,30,46)        154.7676         calculate D2E/DX2 analytically  !
 ! D151  D(45,29,30,23)       -166.609          calculate D2E/DX2 analytically  !
 ! D152  D(45,29,30,46)        -28.5578         calculate D2E/DX2 analytically  !
 --------------------------------------------------------------------------------
 Trust Radius=3.00D-01 FncErr=1.00D-07 GrdErr=1.00D-06 EigMax=2.50D+02 EigMin=1.00D-04
 Number of steps in this run=    282 maximum allowed number of steps=    282.
 Search for a saddle point of order  1.
 GradGradGradGradGradGradGradGradGradGradGradGradGradGradGradGradGradGrad

                          Input orientation:                          
 ---------------------------------------------------------------------
 Center     Atomic      Atomic             Coordinates (Angstroms)
 Number     Number       Type             X           Y           Z
 ---------------------------------------------------------------------
      1          6           0        0.696883   -0.810599   -0.688016
      2          6           0        0.475110    0.617864   -0.426154
      3          6           0        1.754995    1.197886   -0.255914
      4          6           0        2.067131   -1.037653   -0.518620
      5          6           0        2.722729    0.187172   -0.281190
      6          6           0        2.736198   -2.270950   -0.301319
      7          6           0        4.146925   -2.128817    0.074802
      8          6           0        4.754553   -0.912710    0.269267
      9          6           0        4.021916    0.343175    0.135428
     10          6           0        2.055175    2.497646    0.138710
     11          6           0        3.447218    2.725392    0.462810
     12          6           0        4.379471    1.698769    0.474590
     13          6           0       -0.204197   -1.912539   -0.751678
     14          6           0        0.491993   -3.299467   -0.792110
     15          6           0        1.947329   -3.393261   -0.365254
     16          6           0       -0.634245    1.412015   -0.133618
     17          6           0       -0.371770    2.833314    0.057260
     18          6           0        0.928523    3.348712    0.218909
     19          6           0       -1.994620    0.903515   -0.043158
     20          6           0       -3.041942    1.844100   -0.220596
     21          6           0       -2.757954    3.253317   -0.174147
     22          6           0       -1.501601    3.722993    0.036325
     23          6           0       -2.325792   -0.467824    0.224488
     24          6           0       -3.667070   -0.895314    0.022721
     25          6           0       -4.662657    0.052550   -0.344696
     26          6           0       -4.371733    1.387295   -0.403168
     27          6           0       -4.048092   -2.242739    0.288069
     28          6           0       -3.169526   -3.119168    0.912046
     29          6           0       -1.888277   -2.699550    1.238964
     30          6           0       -1.357858   -1.457277    0.756878
     31          1           0       -1.031608   -1.865724   -1.451125
     32          1           0       -0.105047   -4.032485   -0.235818
     33          1           0        2.343083   -4.381408   -0.151520
     34          1           0        4.729980   -3.032053    0.224216
     35          1           0        5.798459   -0.891904    0.565833
     36          1           0        5.396711    1.925256    0.777981
     37          1           0        3.767223    3.722384    0.747679
     38          1           0        1.041341    4.410880    0.413813
     39          1           0       -1.324128    4.787471    0.147084
     40          1           0       -3.592295    3.941595   -0.259079
     41          1           0       -5.154505    2.114478   -0.591489
     42          1           0       -5.676346   -0.296904   -0.510599
     43          1           0       -5.069180   -2.543565    0.081502
     44          1           0       -3.508680   -4.107660    1.203157
     45          1           0       -1.242502   -3.340976    1.828072
     46          1           0       -0.577848   -1.030517    1.377421
     47          1           0        0.432449   -3.645970   -1.836907
 ---------------------------------------------------------------------
                    Distance matrix (angstroms):
                    1          2          3          4          5
     1  C    0.000000
     2  C    1.469102   0.000000
     3  C    2.310914   1.415455   0.000000
     4  C    1.399224   2.298656   2.272461   0.000000
     5  C    2.294582   2.293099   1.399532   1.409389   0.000000
     6  C    2.537906   3.670606   3.605225   1.419821   2.458241
     7  C    3.771257   4.612747   4.110676   2.422464   2.742056
     8  C    4.170312   4.597815   3.705102   2.803322   2.375090
     9  C    3.614568   3.601480   2.454101   2.481058   1.373242
    10  C    3.670547   2.519773   1.391119   3.595909   2.441359
    11  C    4.625146   3.750381   2.390284   4.126542   2.742441
    12  C    4.605435   4.150148   2.769909   3.717713   2.366627
    13  C    1.424875   2.640145   3.709307   2.445132   3.632773
    14  C    2.499456   3.934424   4.702006   2.769776   4.170596
    15  C    2.887548   4.273203   4.596475   2.363633   3.664398
    16  C    2.649391   1.395321   2.401932   3.666951   3.576492
    17  C    3.869827   2.420561   2.701080   4.611319   4.085650
    18  C    4.263336   2.842397   2.352566   4.591359   3.669415
    19  C    3.255490   2.515522   3.767165   4.526811   4.777362
    20  C    4.609200   3.730357   4.840397   5.873325   5.998376
    21  C    5.358673   4.178735   4.959656   6.466261   6.280970
    22  C    5.090330   3.709865   4.131221   5.975581   5.517953
    23  C    3.175960   3.073614   4.433757   4.491624   5.115886
    24  C    4.422263   4.432703   5.818755   5.761456   6.487963
    25  C    5.439445   5.169416   6.519658   6.819739   7.386886
    26  C    5.531975   4.907590   6.131424   6.881328   7.196288
    27  C    5.051589   5.399307   6.768282   6.284818   7.216131
    28  C    4.778997   5.388837   6.652217   5.813956   6.861076
    29  C    3.736902   4.400392   5.540586   4.636405   5.648487
    30  C    2.593814   3.010905   4.214913   3.678795   4.520286
    31  H    2.164095   3.080418   4.310382   3.340277   4.436009
    32  H    3.350839   4.690262   5.551301   3.710438   5.079752
    33  H    3.968435   5.343919   5.611173   3.375146   4.586161
    34  H    4.693921   5.643474   5.193596   3.408842   3.827258
    35  H    5.254029   5.621520   4.625159   3.888456   3.367784
    36  H    5.632267   5.232721   3.854880   4.641778   3.360500
    37  H    5.660048   4.674819   3.380732   5.210737   3.827174
    38  H    5.347572   3.925956   3.358745   5.622116   4.598892
    39  H    6.010014   4.577279   4.746422   6.773173   6.141923
    40  H    6.415948   5.255367   6.010113   7.542505   7.346816
    41  H    6.542487   5.827500   6.978104   7.879928   8.115517
    42  H    6.396359   6.219674   7.584464   7.778831   8.416140
    43  H    6.069828   6.402460   7.789844   7.318118   8.264522
    44  H    5.668678   6.391855   7.614721   6.593870   7.712284
    45  H    4.061369   4.868690   5.824882   4.665397   5.711381
    46  H    2.437075   2.660595   3.616036   3.254372   3.889417
    47  H    3.070701   4.491361   5.264182   3.348639   4.728490
                    6          7          8          9         10
     6  C    0.000000
     7  C    1.466908   0.000000
     8  C    2.498828   1.373297   0.000000
     9  C    2.945754   2.475893   1.460109   0.000000
    10  C    4.837037   5.077762   4.351346   2.917161   0.000000
    11  C    5.104202   4.919704   3.870707   2.472330   1.447305
    12  C    4.365896   3.855428   2.646255   1.442398   2.480599
    13  C    2.996198   4.434198   5.160541   4.871882   5.034609
    14  C    2.516978   3.934525   4.999255   5.156503   6.075894
    15  C    1.373311   2.575013   3.799507   4.302970   5.913408
    16  C    4.995222   5.953194   5.882670   4.784834   2.913029
    17  C    5.986782   6.711308   6.352703   5.050879   2.451401
    18  C    5.926122   6.354699   5.727195   4.313850   1.414245
    19  C    5.703027   6.850367   6.996257   6.045211   4.356050
    20  C    7.094156   8.218950   8.284039   7.230326   5.151391
    21  C    7.792266   8.758236   8.601753   7.384538   4.882123
    22  C    7.348489   8.133327   7.789959   6.476282   3.763325
    23  C    5.399211   6.684113   7.094450   6.399926   5.290959
    24  C    6.557379   7.910927   8.425249   7.788906   6.653549
    25  C    7.755230   9.085322   9.486439   8.702689   7.165294
    26  C    7.994737   9.228165   9.435639   8.475471   6.544590
    27  C    6.809902   8.198583   8.902578   8.475570   7.729387
    28  C    6.088457   7.430493   8.250615   8.019214   7.710003
    29  C    4.893050   6.172898   6.946963   6.738423   6.616058
    30  C    4.306175   5.587381   6.155963   5.706995   5.260451
    31  H    3.960129   5.405079   6.111272   5.738858   5.576271
    32  H    3.343646   4.669015   5.796880   6.026280   6.888355
    33  H    2.151979   2.894691   4.245482   5.022201   6.891191
    34  H    2.197870   1.085409   2.119964   3.449841   6.143245
    35  H    3.468597   2.120997   1.085414   2.206077   5.067905
    36  H    5.084424   4.300225   2.953846   2.192240   3.449951
    37  H    6.171180   5.901990   4.763171   3.443657   2.191332
    38  H    6.930426   7.247566   6.492261   5.050500   2.182660
    39  H    8.155282   8.818882   8.334108   6.952128   4.082041
    40  H    8.868333   9.841591   9.670227   8.430924   5.842700
    41  H    9.032130  10.245296  10.396836   9.374040   7.256686
    42  H    8.643584  10.009758  10.478123   9.740808   8.246668
    43  H    7.819514   9.225435   9.959954   9.538564   8.727744
    44  H    6.680977   7.987321   8.908472   8.812483   8.701701
    45  H    4.637814   5.795620   6.655150   6.644705   6.915065
    46  H    3.916598   5.022605   5.447604   4.958569   4.573308
    47  H    3.091273   4.444515   5.530575   5.717312   6.654346
                   11         12         13         14         15
    11  C    0.000000
    12  C    1.386791   0.000000
    13  C    6.026460   5.962826   0.000000
    14  C    6.826940   6.457505   1.552380   0.000000
    15  C    6.353997   5.705210   2.640251   1.519541   0.000000
    16  C    4.328860   5.058606   3.408753   4.888771   5.459749
    17  C    3.841977   4.902616   4.817217   6.251281   6.657851
    18  C    2.606116   3.833631   5.468625   6.738769   6.843494
    19  C    5.760976   6.444341   3.411418   4.940570   5.839948
    20  C    6.584293   7.455319   4.737846   6.266706   7.234895
    21  C    6.260078   7.333506   5.791484   7.340505   8.145748
    22  C    5.066350   6.235108   5.836388   7.346813   7.918172
    23  C    6.601596   7.051044   2.746137   4.122085   5.212057
    24  C    7.994766   8.466420   3.691332   4.872546   6.157251
    25  C    8.577075   9.227207   4.889282   6.164950   7.454257
    26  C    7.979750   8.800628   5.327168   6.765563   7.923743
    27  C    8.994028   9.305595   3.995702   4.784959   6.139675
    28  C    8.839796   8.966116   3.607923   4.042694   5.280987
    29  C    7.648524   7.695073   2.723631   3.186039   4.215047
    30  C    6.377300   6.554179   1.952931   3.035618   3.991425
    31  H    6.693383   6.759716   1.084448   2.193463   3.519453
    32  H    7.666523   7.311830   2.184059   1.096920   2.153511
    33  H    7.218249   6.442627   3.597796   2.237741   1.085697
    34  H    5.903438   4.750392   5.152842   4.366344   2.867245
    35  H    4.315528   2.955239   6.229720   5.983222   4.685607
    36  H    2.130745   1.085412   6.959791   7.336155   6.441416
    37  H    1.085148   2.131770   7.054970   7.899650   7.428529
    38  H    2.937944   4.301436   6.549455   7.823393   7.895086
    39  H    5.207456   6.494489   6.852164   8.341400   8.825491
    40  H    7.180182   8.313699   6.781795   8.330577   9.192324
    41  H    8.687600   9.602397   6.383422   7.825215   8.990129
    42  H    9.660291  10.299163   5.710763   6.866079   8.229761
    43  H   10.021793  10.364792   4.975987   5.679897   7.081876
    44  H    9.778713   9.821830   4.422617   4.543088   5.721740
    45  H    7.788340   7.670562   3.126279   3.142539   3.871490
    46  H    5.580728   5.730543   2.334661   3.316558   3.872466
    47  H    7.414296   7.034788   2.141920   1.102366   2.127084
                   16         17         18         19         20
    16  C    0.000000
    17  C    1.457881   0.000000
    18  C    2.513427   1.408023   0.000000
    19  C    1.455120   2.523460   3.820004   0.000000
    20  C    2.447707   2.861043   4.268678   1.418826   0.000000
    21  C    2.811081   2.433891   3.708599   2.474148   1.438297
    22  C    2.474228   1.438223   2.465548   2.863362   2.443133
    23  C    2.554088   3.839750   5.015630   1.435925   2.460887
    24  C    3.813953   4.976230   6.258572   2.457074   2.820351
    25  C    4.256854   5.128931   6.514877   2.816645   2.419043
    26  C    3.747277   4.278162   5.685671   2.452410   1.417867
    27  C    5.018904   6.271757   7.485707   3.771654   4.239497
    28  C    5.296478   6.632506   7.688167   4.298232   5.092464
    29  C    4.512377   5.857372   6.749544   3.825862   4.909788
    30  C    3.090216   4.457691   5.349250   2.572715   3.832843
    31  H    3.554897   4.979113   5.815623   3.252453   4.395275
    32  H    5.471113   6.877226   7.467069   5.288828   6.569615
    33  H    6.513720   7.711435   7.867207   6.837969   8.231659
    34  H    6.975148   7.775491   7.427332   7.796180   9.185722
    35  H    6.868548   7.225484   6.466796   8.020379   9.287458
    36  H    6.121018   5.883824   4.722657   7.506664   8.497918
    37  H    5.048506   4.289334   2.911605   6.462993   7.129533
    38  H    3.478572   2.147726   1.085779   4.661276   4.864569
    39  H    3.456651   2.175726   2.673878   3.945994   3.427755
    40  H    3.894172   3.420547   4.584515   3.439348   2.168837
    41  H    4.597374   4.879770   6.259657   3.428115   2.161848
    42  H    5.337162   6.185407   7.579379   3.900591   3.407064
    43  H    5.946557   7.139823   8.408939   4.620695   4.842784
    44  H    6.365230   7.702623   8.732411   5.381222   6.137456
    45  H    5.177753   6.481960   7.214893   4.699243   5.858331
    46  H    2.872696   4.088335   4.773777   2.786713   4.109603
    47  H    5.442632   6.798217   7.307397   5.459488   6.695127
                   21         22         23         24         25
    21  C    0.000000
    22  C    1.357688   0.000000
    23  C    3.767302   4.275236   0.000000
    24  C    4.251634   5.100804   1.422141   0.000000
    25  C    3.728524   4.858971   2.460833   1.422897   0.000000
    26  C    2.477654   3.726432   2.832189   2.426569   1.367333
    27  C    5.664339   6.491375   2.474001   1.425181   2.458950
    28  C    6.477482   7.096762   2.866051   2.446217   3.724062
    29  C    6.179793   6.545603   2.490217   2.810448   4.216541
    30  C    5.001677   5.232118   1.483021   2.487418   3.796675
    31  H    5.551173   5.802341   2.537068   3.171684   4.253055
    32  H    7.754007   7.884914   4.224973   4.753598   6.121370
    33  H    9.182054   8.972079   6.103762   6.950191   8.293232
    34  H    9.784361   9.192309   7.507276   8.666989   9.902528
    35  H    9.536385   8.652660   8.142470   9.481098  10.543055
    36  H    8.316782   7.167191   8.103718   9.522508  10.293606
    37  H    6.606642   5.316628   7.413259   8.781652   9.258717
    38  H    4.015008   2.661248   5.930867   7.104772   7.218446
    39  H    2.124306   1.084840   5.350462   6.148080   5.814387
    40  H    1.084926   2.122746   4.613116   4.845688   4.034560
    41  H    2.685998   4.040443   3.916085   3.412999   2.134097
    42  H    4.608067   5.821271   3.434498   2.163265   1.084992
    43  H    6.245876   7.211062   3.443156   2.164740   2.662089
    44  H    7.526257   8.167557   3.950370   3.426030   4.586378
    45  H    7.056215   7.292266   3.464102   3.888327   5.285300
    46  H    5.050887   5.024710   2.168222   3.375912   4.563374
    47  H    7.780977   7.845455   4.685921   5.275451   6.470382
                   26         27         28         29         30
    26  C    0.000000
    27  C    3.709407   0.000000
    28  C    4.845957   1.389012   0.000000
    29  C    5.056328   2.403680   1.387283   0.000000
    30  C    4.303573   2.841495   2.463351   1.434222   0.000000
    31  H    4.778785   3.502301   3.424382   2.943761   2.269041
    32  H    6.899756   4.361795   3.397465   2.670507   3.030953
    33  H    8.856072   6.753833   5.754414   4.760935   4.803404
    34  H   10.137328   8.813719   7.929874   6.703849   6.310738
    35  H   10.467403   9.942659   9.246909   7.925061   7.181157
    36  H    9.854289  10.335207   9.942062   8.641319   7.554216
    37  H    8.545156   9.842412   9.744349   8.571305   7.286661
    38  H    6.253870   8.377875   8.641832   7.734452   6.348946
    39  H    4.599116   7.540803   8.155097   7.587223   6.274541
    40  H    2.674460   6.225200   7.169703   7.018021   5.930657
    41  H    1.084893   4.580733   5.795844   6.098661   5.384241
    42  H    2.133092   2.659954   4.034010   4.814888   4.647828
    43  H    4.021567   1.084337   2.151699   3.388539   3.925566
    44  H    5.789618   2.146225   1.084844   2.147036   3.442344
    45  H    6.093198   3.383647   2.145163   1.084205   2.170043
    46  H    4.838375   3.833897   3.360927   2.126515   1.084257
    47  H    7.104191   5.153623   4.561632   3.967677   3.837095
                   31         32         33         34         35
    31  H    0.000000
    32  H    2.651479   0.000000
    33  H    4.405244   2.474307   0.000000
    34  H    6.112527   4.958829   2.767528   0.000000
    35  H    7.187925   6.734781   4.962948   2.416317   0.000000
    36  H    7.788692   8.172625   7.068425   5.032504   2.853559
    37  H    7.687033   8.723516   8.276967   6.842758   5.044863
    38  H    6.868105   8.545562   8.906091   8.308986   7.125503
    39  H    6.848711   8.912037   9.879572   9.889546   9.119314
    40  H    6.457790   8.703298  10.223143  10.868560  10.593840
    41  H    5.794762   7.962957   9.929951  11.173862  11.416880
    42  H    4.991931   6.713378   9.006850  10.784833  11.540532
    43  H    4.371545   5.192320   7.640262   9.812366  11.003097
    44  H    4.267010   3.696081   6.012755   8.366049   9.867629
    45  H    3.601941   2.455938   4.225838   6.191795   7.560842
    46  H    2.983981   3.440624   4.700848   5.788702   6.429244
    47  H    2.336999   1.732565   2.651777   4.805611   6.492465
                   36         37         38         39         40
    36  H    0.000000
    37  H    2.426071   0.000000
    38  H    5.027941   2.831241   0.000000
    39  H    7.332120   5.236123   2.410064   0.000000
    40  H    9.270563   7.431293   4.705698   2.454599   0.000000
    41  H   10.641401   9.163840   6.683757   4.728866   2.426799
    42  H   11.367103  10.340161   8.255004   6.724970   4.729842
    43  H   11.401330  10.853015   9.263542   8.232485   6.659916
    44  H   10.764889  10.698402   9.689751   9.220136   8.181420
    45  H    8.539030   8.726720   8.204105   8.300845   7.931807
    46  H    6.692629   6.470416   5.758395   5.993300   6.040440
    47  H    7.906965   8.490786   8.387450   8.839950   8.732654
                   41         42         43         44         45
    41  H    0.000000
    42  H    2.468527   0.000000
    43  H    4.707182   2.401400   0.000000
    44  H    6.681654   4.707186   2.477834   0.000000
    45  H    7.135827   5.864702   4.281336   2.472627   0.000000
    46  H    5.891807   5.486118   4.913327   4.253111   2.446032
    47  H    8.120830   7.091735   5.929883   4.998764   4.041108
                   46         47
    46  H    0.000000
    47  H    4.265349   0.000000
 Stoichiometry    C30H17(2)
 Framework group  C1[X(C30H17)]
 Deg. of freedom   135
 Full point group                 C1      NOp   1
 Largest Abelian subgroup         C1      NOp   1
 Largest concise Abelian subgroup C1      NOp   1
                         Standard orientation:                         
 ---------------------------------------------------------------------
 Center     Atomic      Atomic             Coordinates (Angstroms)
 Number     Number       Type             X           Y           Z
 ---------------------------------------------------------------------
      1          6           0        0.696883   -0.810599   -0.688016
      2          6           0        0.475110    0.617864   -0.426154
      3          6           0        1.754995    1.197886   -0.255914
      4          6           0        2.067131   -1.037653   -0.518620
      5          6           0        2.722729    0.187172   -0.281190
      6          6           0        2.736198   -2.270950   -0.301319
      7          6           0        4.146925   -2.128817    0.074802
      8          6           0        4.754553   -0.912710    0.269267
      9          6           0        4.021916    0.343175    0.135428
     10          6           0        2.055175    2.497646    0.138710
     11          6           0        3.447218    2.725392    0.462810
     12          6           0        4.379471    1.698769    0.474590
     13          6           0       -0.204197   -1.912539   -0.751678
     14          6           0        0.491993   -3.299467   -0.792110
     15          6           0        1.947329   -3.393261   -0.365254
     16          6           0       -0.634245    1.412015   -0.133618
     17          6           0       -0.371770    2.833314    0.057260
     18          6           0        0.928523    3.348712    0.218909
     19          6           0       -1.994620    0.903515   -0.043158
     20          6           0       -3.041942    1.844100   -0.220596
     21          6           0       -2.757954    3.253317   -0.174147
     22          6           0       -1.501601    3.722993    0.036325
     23          6           0       -2.325792   -0.467824    0.224488
     24          6           0       -3.667070   -0.895314    0.022721
     25          6           0       -4.662657    0.052550   -0.344696
     26          6           0       -4.371733    1.387295   -0.403168
     27          6           0       -4.048092   -2.242739    0.288069
     28          6           0       -3.169526   -3.119168    0.912046
     29          6           0       -1.888277   -2.699550    1.238964
     30          6           0       -1.357858   -1.457277    0.756878
     31          1           0       -1.031608   -1.865724   -1.451125
     32          1           0       -0.105047   -4.032485   -0.235818
     33          1           0        2.343083   -4.381408   -0.151520
     34          1           0        4.729980   -3.032053    0.224216
     35          1           0        5.798459   -0.891904    0.565833
     36          1           0        5.396711    1.925256    0.777981
     37          1           0        3.767223    3.722384    0.747679
     38          1           0        1.041341    4.410880    0.413813
     39          1           0       -1.324128    4.787471    0.147084
     40          1           0       -3.592295    3.941595   -0.259079
     41          1           0       -5.154505    2.114478   -0.591489
     42          1           0       -5.676346   -0.296904   -0.510599
     43          1           0       -5.069180   -2.543565    0.081502
     44          1           0       -3.508680   -4.107660    1.203157
     45          1           0       -1.242502   -3.340976    1.828072
     46          1           0       -0.577848   -1.030517    1.377421
     47          1           0        0.432449   -3.645970   -1.836907
 ---------------------------------------------------------------------
 Rotational constants (GHZ):           0.2690311           0.1615806           0.1048571
 Standard basis: 6-311+G(d,p) (5D, 7F)
 There are   792 symmetry adapted cartesian basis functions of A   symmetry.
 There are   762 symmetry adapted basis functions of A   symmetry.
   762 basis functions,  1216 primitive gaussians,   792 cartesian basis functions
    99 alpha electrons       98 beta electrons
       nuclear repulsion energy      2658.6207334952 Hartrees.
 NAtoms=   47 NActive=   47 NUniq=   47 SFac= 1.00D+00 NAtFMM=   60 NAOKFM=F Big=F
 Integral buffers will be    131072 words long.
 Raffenetti 2 integral format.
 Two-electron integral symmetry is turned on.
 One-electron integrals computed using PRISM.
 NBasis=   762 RedAO= T EigKep=  1.07D-06  NBF=   762
 NBsUse=   743 1.00D-06 EigRej=  8.45D-07 NBFU=   743
 ExpMin= 4.38D-02 ExpMax= 4.56D+03 ExpMxC= 6.82D+02 IAcc=2 IRadAn=         4 AccDes= 0.00D+00
 Harris functional with IExCor=  402 and IRadAn=       4 diagonalized for initial guess.
 HarFok:  IExCor=  402 AccDes= 0.00D+00 IRadAn=         4 IDoV= 1 UseB2=F ITyADJ=14
 ICtDFT=  3500011 ScaDFX=  1.000000  1.000000  1.000000  1.000000
 FoFCou: FMM=F IPFlag=           0 FMFlag=      100000 FMFlg1=           0
         NFxFlg=           0 DoJE=T BraDBF=F KetDBF=T FulRan=T
         wScrn=  0.000000 ICntrl=       500 IOpCl=  0 I1Cent=   200000004 NGrid=           0
         NMat0=    1 NMatS0=      1 NMatT0=    0 NMatD0=    1 NMtDS0=    0 NMtDT0=    0
 Petite list used in FoFCou.
 Initial guess <Sx>= 0.0000 <Sy>= 0.0000 <Sz>= 0.5000 <S**2>= 0.7500 S= 0.5000
 Requested convergence on RMS density matrix=1.00D-08 within 128 cycles.
 Requested convergence on MAX density matrix=1.00D-06.
 Requested convergence on             energy=1.00D-06.
 No special actions if energy rises.
 Restarting incremental Fock formation.
 SCF Done:  E(UB3LYP) =  -1153.63374120     A.U. after   28 cycles
            NFock= 28  Conv=0.48D-08     -V/T= 2.0045
 <Sx>= 0.0000 <Sy>= 0.0000 <Sz>= 0.5000 <S**2>= 0.8797 S= 0.5629
 <L.S>=  0.00000000000    
 Annihilation of the first spin contaminant:
 S**2 before annihilation     0.8797,   after     0.7582
 DoSCS=F DFT=T ScalE2(SS,OS)=  1.000000  1.000000
 Range of M.O.s used for correlation:     1   743
 NBasis=   762 NAE=    99 NBE=    98 NFC=     0 NFV=     0
 NROrb=    743 NOA=    99 NOB=    98 NVA=   644 NVB=   645

 **** Warning!!: The largest alpha MO coefficient is  0.16865014D+03


 **** Warning!!: The smallest alpha delta epsilon is  0.53074207D-01


 **** Warning!!: The largest beta MO coefficient is  0.16261717D+03


 **** Warning!!: The smallest beta delta epsilon is  0.97222325D-01

 Symmetrizing basis deriv contribution to polar:
 IMax=3 JMax=2 DiffMx= 0.00D+00
 G2DrvN: will do    48 centers at a time, making    1 passes.
 Calling FoFCou, ICntrl=  3107 FMM=F I1Cent=   0 AccDes= 0.00D+00.
 End of G2Drv F.D. properties file   721 does not exist.
 End of G2Drv F.D. properties file   722 does not exist.
 End of G2Drv F.D. properties file   788 does not exist.
          IDoAtm=11111111111111111111111111111111111111111111111
          Differentiating once with respect to nuclear coordinates.
 CalDSu exits because no D1Ps are significant.
          There are   144 degrees of freedom in the 1st order CPHF.  IDoFFX=6 NUNeed=     0.
    138 vectors produced by pass  0 Test12= 1.27D-13 1.00D-09 XBig12= 6.76D-01 2.78D-01.
 AX will form   138 AO Fock derivatives at one time.
    138 vectors produced by pass  1 Test12= 1.27D-13 1.00D-09 XBig12= 1.61D-01 9.94D-02.
    138 vectors produced by pass  2 Test12= 1.27D-13 1.00D-09 XBig12= 4.43D-03 1.57D-02.
    138 vectors produced by pass  3 Test12= 1.27D-13 1.00D-09 XBig12= 8.05D-05 1.20D-03.
    138 vectors produced by pass  4 Test12= 1.27D-13 1.00D-09 XBig12= 5.95D-07 5.26D-05.
    138 vectors produced by pass  5 Test12= 1.27D-13 1.00D-09 XBig12= 4.64D-09 4.48D-06.
    138 vectors produced by pass  6 Test12= 1.27D-13 1.00D-09 XBig12= 1.80D-10 9.93D-07.
    121 vectors produced by pass  7 Test12= 1.27D-13 1.00D-09 XBig12= 3.23D-11 3.12D-07.
     90 vectors produced by pass  8 Test12= 1.27D-13 1.00D-09 XBig12= 6.26D-12 9.38D-08.
     64 vectors produced by pass  9 Test12= 1.27D-13 1.00D-09 XBig12= 4.13D-13 4.00D-08.
     11 vectors produced by pass 10 Test12= 1.27D-13 1.00D-09 XBig12= 4.30D-15 3.19D-09.
      8 vectors produced by pass 11 Test12= 1.27D-13 1.00D-09 XBig12= 6.83D-16 1.54D-09.
      5 vectors produced by pass 12 Test12= 1.27D-13 1.00D-09 XBig12= 6.27D-16 1.60D-09.
      4 vectors produced by pass 13 Test12= 1.27D-13 1.00D-09 XBig12= 8.22D-16 1.46D-09.
      1 vectors produced by pass 14 Test12= 1.27D-13 1.00D-09 XBig12= 6.64D-16 1.36D-09.
 InvSVY:  IOpt=1 It=  1 EMax= 8.88D-16
 Solved reduced A of dimension  1270 with   144 vectors.
 End of Minotr F.D. properties file   721 does not exist.
 End of Minotr F.D. properties file   722 does not exist.
 End of Minotr F.D. properties file   788 does not exist.

 **********************************************************************

            Population analysis using the SCF Density.

 **********************************************************************

 Orbital symmetries:
 Alpha Orbitals:
       Occupied  (A) (A) (A) (A) (A) (A) (A) (A) (A) (A) (A) (A)
                 (A) (A) (A) (A) (A) (A) (A) (A) (A) (A) (A) (A)
                 (A) (A) (A) (A) (A) (A) (A) (A) (A) (A) (A) (A)
                 (A) (A) (A) (A) (A) (A) (A) (A) (A) (A) (A) (A)
                 (A) (A) (A) (A) (A) (A) (A) (A) (A) (A) (A) (A)
                 (A) (A) (A) (A) (A) (A) (A) (A) (A) (A) (A) (A)
                 (A) (A) (A) (A) (A) (A) (A) (A) (A) (A) (A) (A)
                 (A) (A) (A) (A) (A) (A) (A) (A) (A) (A) (A) (A)
                 (A) (A) (A)
       Virtual   (A) (A) (A) (A) (A) (A) (A) (A) (A) (A) (A) (A)
                 (A) (A) (A) (A) (A) (A) (A) (A) (A) (A) (A) (A)
                 (A) (A) (A) (A) (A) (A) (A) (A) (A) (A) (A) (A)
                 (A) (A) (A) (A) (A) (A) (A) (A) (A) (A) (A) (A)
                 (A) (A) (A) (A) (A) (A) (A) (A) (A) (A) (A) (A)
                 (A) (A) (A) (A) (A) (A) (A) (A) (A) (A) (A) (A)
                 (A) (A) (A) (A) (A) (A) (A) (A) (A) (A) (A) (A)
                 (A) (A) (A) (A) (A) (A) (A) (A) (A) (A) (A) (A)
                 (A) (A) (A) (A) (A) (A) (A) (A) (A) (A) (A) (A)
                 (A) (A) (A) (A) (A) (A) (A) (A) (A) (A) (A) (A)
                 (A) (A) (A) (A) (A) (A) (A) (A) (A) (A) (A) (A)
                 (A) (A) (A) (A) (A) (A) (A) (A) (A) (A) (A) (A)
                 (A) (A) (A) (A) (A) (A) (A) (A) (A) (A) (A) (A)
                 (A) (A) (A) (A) (A) (A) (A) (A) (A) (A) (A) (A)
                 (A) (A) (A) (A) (A) (A) (A) (A) (A) (A) (A) (A)
                 (A) (A) (A) (A) (A) (A) (A) (A) (A) (A) (A) (A)
                 (A) (A) (A) (A) (A) (A) (A) (A) (A) (A) (A) (A)
                 (A) (A) (A) (A) (A) (A) (A) (A) (A) (A) (A) (A)
                 (A) (A) (A) (A) (A) (A) (A) (A) (A) (A) (A) (A)
                 (A) (A) (A) (A) (A) (A) (A) (A) (A) (A) (A) (A)
                 (A) (A) (A) (A) (A) (A) (A) (A) (A) (A) (A) (A)
                 (A) (A) (A) (A) (A) (A) (A) (A) (A) (A) (A) (A)
                 (A) (A) (A) (A) (A) (A) (A) (A) (A) (A) (A) (A)
                 (A) (A) (A) (A) (A) (A) (A) (A) (A) (A) (A) (A)
                 (A) (A) (A) (A) (A) (A) (A) (A) (A) (A) (A) (A)
                 (A) (A) (A) (A) (A) (A) (A) (A) (A) (A) (A) (A)
                 (A) (A) (A) (A) (A) (A) (A) (A) (A) (A) (A) (A)
                 (A) (A) (A) (A) (A) (A) (A) (A) (A) (A) (A) (A)
                 (A) (A) (A) (A) (A) (A) (A) (A) (A) (A) (A) (A)
                 (A) (A) (A) (A) (A) (A) (A) (A) (A) (A) (A) (A)
                 (A) (A) (A) (A) (A) (A) (A) (A) (A) (A) (A) (A)
                 (A) (A) (A) (A) (A) (A) (A) (A) (A) (A) (A) (A)
                 (A) (A) (A) (A) (A) (A) (A) (A) (A) (A) (A) (A)
                 (A) (A) (A) (A) (A) (A) (A) (A) (A) (A) (A) (A)
                 (A) (A) (A) (A) (A) (A) (A) (A) (A) (A) (A) (A)
                 (A) (A) (A) (A) (A) (A) (A) (A) (A) (A) (A) (A)
                 (A) (A) (A) (A) (A) (A) (A) (A) (A) (A) (A) (A)
                 (A) (A) (A) (A) (A) (A) (A) (A) (A) (A) (A) (A)
                 (A) (A) (A) (A) (A) (A) (A) (A) (A) (A) (A) (A)
                 (A) (A) (A) (A) (A) (A) (A) (A) (A) (A) (A) (A)
                 (A) (A) (A) (A) (A) (A) (A) (A) (A) (A) (A) (A)
                 (A) (A) (A) (A) (A) (A) (A) (A) (A) (A) (A) (A)
                 (A) (A) (A) (A) (A) (A) (A) (A) (A) (A) (A) (A)
                 (A) (A) (A) (A) (A) (A) (A) (A) (A) (A) (A) (A)
                 (A) (A) (A) (A) (A) (A) (A) (A) (A) (A) (A) (A)
                 (A) (A) (A) (A) (A) (A) (A) (A) (A) (A) (A) (A)
                 (A) (A) (A) (A) (A) (A) (A) (A) (A) (A) (A) (A)
                 (A) (A) (A) (A) (A) (A) (A) (A) (A) (A) (A) (A)
                 (A) (A) (A) (A) (A) (A) (A) (A) (A) (A) (A) (A)
                 (A) (A) (A) (A) (A) (A) (A) (A) (A) (A) (A) (A)
                 (A) (A) (A) (A) (A) (A) (A) (A) (A) (A) (A) (A)
                 (A) (A) (A) (A) (A) (A) (A) (A) (A) (A) (A) (A)
                 (A) (A) (A) (A) (A) (A) (A) (A) (A) (A) (A) (A)
                 (A) (A) (A) (A) (A) (A) (A) (A)
 Beta  Orbitals:
       Occupied  (A) (A) (A) (A) (A) (A) (A) (A) (A) (A) (A) (A)
                 (A) (A) (A) (A) (A) (A) (A) (A) (A) (A) (A) (A)
                 (A) (A) (A) (A) (A) (A) (A) (A) (A) (A) (A) (A)
                 (A) (A) (A) (A) (A) (A) (A) (A) (A) (A) (A) (A)
                 (A) (A) (A) (A) (A) (A) (A) (A) (A) (A) (A) (A)
                 (A) (A) (A) (A) (A) (A) (A) (A) (A) (A) (A) (A)
                 (A) (A) (A) (A) (A) (A) (A) (A) (A) (A) (A) (A)
                 (A) (A) (A) (A) (A) (A) (A) (A) (A) (A) (A) (A)
                 (A) (A)
       Virtual   (A) (A) (A) (A) (A) (A) (A) (A) (A) (A) (A) (A)
                 (A) (A) (A) (A) (A) (A) (A) (A) (A) (A) (A) (A)
                 (A) (A) (A) (A) (A) (A) (A) (A) (A) (A) (A) (A)
                 (A) (A) (A) (A) (A) (A) (A) (A) (A) (A) (A) (A)
                 (A) (A) (A) (A) (A) (A) (A) (A) (A) (A) (A) (A)
                 (A) (A) (A) (A) (A) (A) (A) (A) (A) (A) (A) (A)
                 (A) (A) (A) (A) (A) (A) (A) (A) (A) (A) (A) (A)
                 (A) (A) (A) (A) (A) (A) (A) (A) (A) (A) (A) (A)
                 (A) (A) (A) (A) (A) (A) (A) (A) (A) (A) (A) (A)
                 (A) (A) (A) (A) (A) (A) (A) (A) (A) (A) (A) (A)
                 (A) (A) (A) (A) (A) (A) (A) (A) (A) (A) (A) (A)
                 (A) (A) (A) (A) (A) (A) (A) (A) (A) (A) (A) (A)
                 (A) (A) (A) (A) (A) (A) (A) (A) (A) (A) (A) (A)
                 (A) (A) (A) (A) (A) (A) (A) (A) (A) (A) (A) (A)
                 (A) (A) (A) (A) (A) (A) (A) (A) (A) (A) (A) (A)
                 (A) (A) (A) (A) (A) (A) (A) (A) (A) (A) (A) (A)
                 (A) (A) (A) (A) (A) (A) (A) (A) (A) (A) (A) (A)
                 (A) (A) (A) (A) (A) (A) (A) (A) (A) (A) (A) (A)
                 (A) (A) (A) (A) (A) (A) (A) (A) (A) (A) (A) (A)
                 (A) (A) (A) (A) (A) (A) (A) (A) (A) (A) (A) (A)
                 (A) (A) (A) (A) (A) (A) (A) (A) (A) (A) (A) (A)
                 (A) (A) (A) (A) (A) (A) (A) (A) (A) (A) (A) (A)
                 (A) (A) (A) (A) (A) (A) (A) (A) (A) (A) (A) (A)
                 (A) (A) (A) (A) (A) (A) (A) (A) (A) (A) (A) (A)
                 (A) (A) (A) (A) (A) (A) (A) (A) (A) (A) (A) (A)
                 (A) (A) (A) (A) (A) (A) (A) (A) (A) (A) (A) (A)
                 (A) (A) (A) (A) (A) (A) (A) (A) (A) (A) (A) (A)
                 (A) (A) (A) (A) (A) (A) (A) (A) (A) (A) (A) (A)
                 (A) (A) (A) (A) (A) (A) (A) (A) (A) (A) (A) (A)
                 (A) (A) (A) (A) (A) (A) (A) (A) (A) (A) (A) (A)
                 (A) (A) (A) (A) (A) (A) (A) (A) (A) (A) (A) (A)
                 (A) (A) (A) (A) (A) (A) (A) (A) (A) (A) (A) (A)
                 (A) (A) (A) (A) (A) (A) (A) (A) (A) (A) (A) (A)
                 (A) (A) (A) (A) (A) (A) (A) (A) (A) (A) (A) (A)
                 (A) (A) (A) (A) (A) (A) (A) (A) (A) (A) (A) (A)
                 (A) (A) (A) (A) (A) (A) (A) (A) (A) (A) (A) (A)
                 (A) (A) (A) (A) (A) (A) (A) (A) (A) (A) (A) (A)
                 (A) (A) (A) (A) (A) (A) (A) (A) (A) (A) (A) (A)
                 (A) (A) (A) (A) (A) (A) (A) (A) (A) (A) (A) (A)
                 (A) (A) (A) (A) (A) (A) (A) (A) (A) (A) (A) (A)
                 (A) (A) (A) (A) (A) (A) (A) (A) (A) (A) (A) (A)
                 (A) (A) (A) (A) (A) (A) (A) (A) (A) (A) (A) (A)
                 (A) (A) (A) (A) (A) (A) (A) (A) (A) (A) (A) (A)
                 (A) (A) (A) (A) (A) (A) (A) (A) (A) (A) (A) (A)
                 (A) (A) (A) (A) (A) (A) (A) (A) (A) (A) (A) (A)
                 (A) (A) (A) (A) (A) (A) (A) (A) (A) (A) (A) (A)
                 (A) (A) (A) (A) (A) (A) (A) (A) (A) (A) (A) (A)
                 (A) (A) (A) (A) (A) (A) (A) (A) (A) (A) (A) (A)
                 (A) (A) (A) (A) (A) (A) (A) (A) (A) (A) (A) (A)
                 (A) (A) (A) (A) (A) (A) (A) (A) (A) (A) (A) (A)
                 (A) (A) (A) (A) (A) (A) (A) (A) (A) (A) (A) (A)
                 (A) (A) (A) (A) (A) (A) (A) (A) (A) (A) (A) (A)
                 (A) (A) (A) (A) (A) (A) (A) (A) (A) (A) (A) (A)
                 (A) (A) (A) (A) (A) (A) (A) (A) (A)
 The electronic state is 2-A.
 Alpha  occ. eigenvalues --  -10.20068 -10.19603 -10.19539 -10.19413 -10.19410
 Alpha  occ. eigenvalues --  -10.19331 -10.19295 -10.19164 -10.19069 -10.19037
 Alpha  occ. eigenvalues --  -10.18987 -10.18982 -10.18949 -10.18877 -10.18869
 Alpha  occ. eigenvalues --  -10.18861 -10.18856 -10.18851 -10.18346 -10.18320
 Alpha  occ. eigenvalues --  -10.18192 -10.18120 -10.18062 -10.18060 -10.18051
 Alpha  occ. eigenvalues --  -10.17883 -10.17714 -10.16910 -10.16607 -10.16385
 Alpha  occ. eigenvalues --   -0.91691  -0.88986  -0.86823  -0.84867  -0.84230
 Alpha  occ. eigenvalues --   -0.82030  -0.80390  -0.79444  -0.78623  -0.75673
 Alpha  occ. eigenvalues --   -0.75046  -0.74357  -0.72561  -0.71963  -0.70860
 Alpha  occ. eigenvalues --   -0.66293  -0.65250  -0.63422  -0.63282  -0.61871
 Alpha  occ. eigenvalues --   -0.61020  -0.59732  -0.58506  -0.56258  -0.54823
 Alpha  occ. eigenvalues --   -0.53159  -0.52967  -0.51318  -0.50285  -0.49722
 Alpha  occ. eigenvalues --   -0.49117  -0.47713  -0.46843  -0.46724  -0.45204
 Alpha  occ. eigenvalues --   -0.44443  -0.44077  -0.43954  -0.43610  -0.42941
 Alpha  occ. eigenvalues --   -0.42663  -0.42080  -0.41521  -0.41181  -0.40637
 Alpha  occ. eigenvalues --   -0.40177  -0.39910  -0.39582  -0.38587  -0.37792
 Alpha  occ. eigenvalues --   -0.37417  -0.35753  -0.35480  -0.35102  -0.34721
 Alpha  occ. eigenvalues --   -0.33871  -0.33778  -0.33303  -0.33173  -0.32086
 Alpha  occ. eigenvalues --   -0.30750  -0.29331  -0.28549  -0.26154  -0.25193
 Alpha  occ. eigenvalues --   -0.22864  -0.21371  -0.20195  -0.15933
 Alpha virt. eigenvalues --   -0.10626  -0.05402  -0.04322  -0.01764  -0.00763
 Alpha virt. eigenvalues --   -0.00198   0.00492   0.00714   0.00826   0.01477
 Alpha virt. eigenvalues --    0.01620   0.01778   0.02145   0.02515   0.02926
 Alpha virt. eigenvalues --    0.03146   0.03463   0.03829   0.04517   0.04661
 Alpha virt. eigenvalues --    0.04921   0.05075   0.05392   0.06044   0.06372
 Alpha virt. eigenvalues --    0.06813   0.07028   0.07294   0.07574   0.07748
 Alpha virt. eigenvalues --    0.08375   0.08438   0.08785   0.09161   0.09612
 Alpha virt. eigenvalues --    0.09996   0.10226   0.10530   0.10788   0.11360
 Alpha virt. eigenvalues --    0.11612   0.11901   0.12192   0.12561   0.12744
 Alpha virt. eigenvalues --    0.13222   0.13364   0.13624   0.14029   0.14773
 Alpha virt. eigenvalues --    0.15114   0.15240   0.15357   0.15507   0.15717
 Alpha virt. eigenvalues --    0.16062   0.16370   0.16528   0.16724   0.16946
 Alpha virt. eigenvalues --    0.17213   0.17388   0.17462   0.17628   0.17707
 Alpha virt. eigenvalues --    0.18052   0.18415   0.18637   0.18675   0.18747
 Alpha virt. eigenvalues --    0.19106   0.19186   0.19599   0.19693   0.19748
 Alpha virt. eigenvalues --    0.20009   0.20299   0.20559   0.20745   0.20781
 Alpha virt. eigenvalues --    0.21194   0.21411   0.21657   0.21972   0.22053
 Alpha virt. eigenvalues --    0.22546   0.22704   0.22830   0.23029   0.23364
 Alpha virt. eigenvalues --    0.23477   0.23537   0.23864   0.24057   0.24209
 Alpha virt. eigenvalues --    0.24668   0.24806   0.25048   0.25064   0.25431
 Alpha virt. eigenvalues --    0.25519   0.25957   0.26103   0.26520   0.26549
 Alpha virt. eigenvalues --    0.26731   0.27010   0.27407   0.27815   0.27861
 Alpha virt. eigenvalues --    0.28029   0.28120   0.28407   0.28621   0.28849
 Alpha virt. eigenvalues --    0.29219   0.29659   0.29909   0.30087   0.30225
 Alpha virt. eigenvalues --    0.30691   0.30879   0.31088   0.31405   0.31771
 Alpha virt. eigenvalues --    0.31882   0.32171   0.32647   0.32843   0.33153
 Alpha virt. eigenvalues --    0.33431   0.33455   0.34066   0.34259   0.34796
 Alpha virt. eigenvalues --    0.35242   0.36038   0.36054   0.36527   0.37012
 Alpha virt. eigenvalues --    0.37237   0.37698   0.37801   0.38620   0.38835
 Alpha virt. eigenvalues --    0.39252   0.39592   0.39717   0.40690   0.41234
 Alpha virt. eigenvalues --    0.41583   0.42151   0.43026   0.43415   0.44423
 Alpha virt. eigenvalues --    0.44629   0.45088   0.46281   0.47168   0.47549
 Alpha virt. eigenvalues --    0.47977   0.48477   0.49458   0.49974   0.50757
 Alpha virt. eigenvalues --    0.51093   0.51880   0.52293   0.52631   0.53279
 Alpha virt. eigenvalues --    0.53494   0.53967   0.54043   0.54697   0.55234
 Alpha virt. eigenvalues --    0.55505   0.56330   0.56460   0.56808   0.57444
 Alpha virt. eigenvalues --    0.57689   0.57932   0.58322   0.58531   0.58908
 Alpha virt. eigenvalues --    0.59175   0.59502   0.59838   0.59994   0.60657
 Alpha virt. eigenvalues --    0.60818   0.61472   0.61785   0.61885   0.62080
 Alpha virt. eigenvalues --    0.62705   0.63263   0.63863   0.64768   0.65056
 Alpha virt. eigenvalues --    0.65463   0.66142   0.66484   0.66993   0.67098
 Alpha virt. eigenvalues --    0.67595   0.68131   0.68792   0.68881   0.69259
 Alpha virt. eigenvalues --    0.69634   0.69978   0.70193   0.70559   0.71327
 Alpha virt. eigenvalues --    0.71689   0.71978   0.72127   0.72365   0.72602
 Alpha virt. eigenvalues --    0.73171   0.73284   0.74296   0.74375   0.74551
 Alpha virt. eigenvalues --    0.74975   0.75216   0.75573   0.75613   0.75779
 Alpha virt. eigenvalues --    0.76305   0.77000   0.77167   0.77343   0.78095
 Alpha virt. eigenvalues --    0.78750   0.79111   0.79739   0.80103   0.80950
 Alpha virt. eigenvalues --    0.81978   0.82143   0.82787   0.83022   0.83704
 Alpha virt. eigenvalues --    0.84284   0.84561   0.84975   0.85733   0.85932
 Alpha virt. eigenvalues --    0.86723   0.87870   0.87938   0.88481   0.88659
 Alpha virt. eigenvalues --    0.89362   0.89810   0.90305   0.90769   0.91276
 Alpha virt. eigenvalues --    0.91704   0.92100   0.92539   0.92841   0.93267
 Alpha virt. eigenvalues --    0.93762   0.93932   0.94437   0.94929   0.95531
 Alpha virt. eigenvalues --    0.95884   0.96425   0.96738   0.97342   0.97907
 Alpha virt. eigenvalues --    0.98550   0.99357   0.99568   0.99682   1.00675
 Alpha virt. eigenvalues --    1.01266   1.01715   1.02320   1.02618   1.03012
 Alpha virt. eigenvalues --    1.03892   1.04366   1.04605   1.05204   1.05566
 Alpha virt. eigenvalues --    1.06559   1.07102   1.07552   1.08160   1.08953
 Alpha virt. eigenvalues --    1.09746   1.09950   1.11173   1.11833   1.12420
 Alpha virt. eigenvalues --    1.13939   1.14405   1.14776   1.15784   1.16335
 Alpha virt. eigenvalues --    1.17815   1.18037   1.19124   1.20217   1.21051
 Alpha virt. eigenvalues --    1.22158   1.23018   1.23946   1.25210   1.26514
 Alpha virt. eigenvalues --    1.28132   1.29303   1.29839   1.31071   1.32527
 Alpha virt. eigenvalues --    1.32812   1.34423   1.34799   1.38090   1.39220
 Alpha virt. eigenvalues --    1.39841   1.40932   1.41745   1.42757   1.43149
 Alpha virt. eigenvalues --    1.43986   1.44602   1.45275   1.46856   1.47729
 Alpha virt. eigenvalues --    1.48288   1.48768   1.49094   1.49883   1.50336
 Alpha virt. eigenvalues --    1.51057   1.51537   1.52351   1.52968   1.53074
 Alpha virt. eigenvalues --    1.53965   1.54130   1.55060   1.55541   1.56022
 Alpha virt. eigenvalues --    1.56327   1.56985   1.57514   1.57682   1.58199
 Alpha virt. eigenvalues --    1.59114   1.59575   1.60417   1.61497   1.61733
 Alpha virt. eigenvalues --    1.62949   1.63809   1.64805   1.65518   1.66572
 Alpha virt. eigenvalues --    1.67302   1.67731   1.68403   1.68832   1.70135
 Alpha virt. eigenvalues --    1.70795   1.71022   1.72112   1.72481   1.73120
 Alpha virt. eigenvalues --    1.73844   1.74118   1.75166   1.75570   1.76285
 Alpha virt. eigenvalues --    1.76816   1.77400   1.77937   1.78452   1.79191
 Alpha virt. eigenvalues --    1.79491   1.80222   1.81243   1.81989   1.82526
 Alpha virt. eigenvalues --    1.83825   1.84163   1.84606   1.85032   1.85194
 Alpha virt. eigenvalues --    1.85885   1.86116   1.87145   1.87821   1.88638
 Alpha virt. eigenvalues --    1.88923   1.89277   1.89725   1.90407   1.91112
 Alpha virt. eigenvalues --    1.91910   1.92419   1.93124   1.93517   1.94132
 Alpha virt. eigenvalues --    1.94787   1.95200   1.96129   1.96822   1.97450
 Alpha virt. eigenvalues --    1.98733   1.99832   2.00226   2.01004   2.01467
 Alpha virt. eigenvalues --    2.01691   2.03048   2.03284   2.03992   2.05033
 Alpha virt. eigenvalues --    2.05280   2.06176   2.06740   2.07519   2.08112
 Alpha virt. eigenvalues --    2.08945   2.09075   2.10657   2.11363   2.12331
 Alpha virt. eigenvalues --    2.12658   2.14227   2.15279   2.15374   2.15763
 Alpha virt. eigenvalues --    2.17679   2.18194   2.18992   2.20653   2.21783
 Alpha virt. eigenvalues --    2.21877   2.22881   2.24241   2.24767   2.24980
 Alpha virt. eigenvalues --    2.26006   2.26459   2.26914   2.27690   2.28748
 Alpha virt. eigenvalues --    2.31185   2.33438   2.34587   2.35904   2.37039
 Alpha virt. eigenvalues --    2.38458   2.38760   2.39955   2.40526   2.41363
 Alpha virt. eigenvalues --    2.42369   2.42793   2.44078   2.45419   2.46492
 Alpha virt. eigenvalues --    2.47399   2.48469   2.50151   2.51382   2.53286
 Alpha virt. eigenvalues --    2.53675   2.55873   2.56009   2.56823   2.58645
 Alpha virt. eigenvalues --    2.58761   2.60055   2.61610   2.62763   2.64797
 Alpha virt. eigenvalues --    2.65820   2.66052   2.68097   2.68632   2.69696
 Alpha virt. eigenvalues --    2.70404   2.71398   2.71510   2.72179   2.72387
 Alpha virt. eigenvalues --    2.72617   2.73079   2.73763   2.73955   2.74469
 Alpha virt. eigenvalues --    2.75498   2.75981   2.76151   2.76543   2.76736
 Alpha virt. eigenvalues --    2.77044   2.77462   2.77985   2.78568   2.78953
 Alpha virt. eigenvalues --    2.79115   2.79435   2.80880   2.82068   2.82333
 Alpha virt. eigenvalues --    2.83508   2.84133   2.84875   2.85191   2.85714
 Alpha virt. eigenvalues --    2.86874   2.88321   2.88360   2.88902   2.89338
 Alpha virt. eigenvalues --    2.91001   2.91555   2.92246   2.93762   2.94799
 Alpha virt. eigenvalues --    2.96144   2.97630   2.98719   3.01005   3.01545
 Alpha virt. eigenvalues --    3.03046   3.04293   3.05763   3.06407   3.08202
 Alpha virt. eigenvalues --    3.09532   3.11170   3.12204   3.13282   3.15460
 Alpha virt. eigenvalues --    3.16811   3.18782   3.20376   3.20989   3.21964
 Alpha virt. eigenvalues --    3.22621   3.23037   3.24805   3.25619   3.27560
 Alpha virt. eigenvalues --    3.30596   3.31245   3.32164   3.33230   3.35724
 Alpha virt. eigenvalues --    3.37351   3.37755   3.38775   3.39562   3.40384
[...]
 000007,-0.00000183,-0.00000131,-0.00000079,-0.00000138,-0.00000296,-0.
 00000072,0.00000346,-0.00000232,-0.00000285,0.00000088,-0.00000750,-0.
 00000045,0.00001390,0.00009886,0.00001094,-0.00001583,-0.00001638,-0.0
 0005918,0.00048186,-0.00004678,0.00126760,0.08407575,-0.00009794,0.000
 04163,0.00010999,-0.00007281,-0.00003705,0.00003777,0.00005882,-0.0000
 1598,0.00001609,-0.00002084,-0.00003462,0.00004093,-0.00003394,0.00005
 464,-0.00003666,0.00000831,-0.00000085,-0.00000363,0.00002357,0.000004
 82,0.00001204,0.00001375,-0.00002927,-0.00000306,-0.00002136,-0.000003
 32,0.00000563,0.00000638,-0.00001511,0.00000077,-0.00001798,-0.0000043
 3,-0.00000478,0.00001134,-0.00000550,0.00000127,0.00002260,-0.00021625
 ,-0.00013180,-0.00000694,0.00002787,0.00006615,-0.00002025,0.00004164,
 -0.00004722,0.00002109,0.00002494,-0.00003428,-0.00002507,-0.00002153,
 -0.00000083,-0.00000410,0.00001392,-0.00000267,0.00003972,-0.00004378,
 -0.00030235,0.00000952,0.00003957,0.00006751,-0.00002101,0.00003087,0.
 00002067,-0.00000570,-0.00002198,-0.00000301,0.00005350,0.00047383,-0.
 00034967,0.00256165,0.00113363,0.00359340,-0.00062665,-0.00063797,0.00
 006546,0.00037633,-0.00016307,-0.00018122,-0.00767734,-0.01481054,0.00
 474828,-0.08171967,-0.28175922,0.07425593,-0.00034771,-0.00456834,0.00
 347962,-0.00155711,0.00191686,0.00086334,-0.00000374,-0.00002020,0.000
 00265,-0.00001518,0.00001161,0.00000318,-0.00000945,0.00000707,-0.0000
 0086,-0.00000472,0.00000741,-0.00000186,-0.00000929,-0.00000060,-0.000
 00196,-0.00000867,-0.00000307,-0.00000136,-0.00000107,-0.00000607,-0.0
 0000175,-0.00000132,-0.00000721,0.00000197,-0.00000715,-0.00000763,0.0
 0000250,0.00000849,-0.00000446,-0.00000029,-0.00001804,-0.00010023,-0.
 00000311,0.00002611,0.00001342,0.00008139,0.00073375,0.00027251,-0.001
 55477,0.08810300,0.29837189,-0.00070616,-0.00007795,0.00004268,-0.0000
 7762,-0.00012537,-0.00002087,-0.00001069,-0.00000527,0.00005140,0.0005
 7446,-0.00006464,0.00021949,-0.00021065,-0.00024534,-0.00011244,0.0001
 0495,0.00034503,0.00000973,-0.00013927,-0.00006499,-0.00005568,0.00000
 236,0.00019994,0.00001110,0.00026086,-0.00004304,0.00005659,0.00003531
 ,-0.00002221,-0.00000658,-0.00002909,0.00002222,-0.00000548,0.00000668
 ,-0.00006950,-0.00001476,0.00045516,-0.00034702,-0.00044591,0.00001801
 ,0.00006144,-0.00016109,-0.00008917,-0.00021141,0.00001360,-0.00009057
 ,0.00011817,-0.00003001,0.00004875,-0.00011766,-0.00000405,-0.00004482
 ,0.00002419,-0.00001388,0.00029946,-0.00005260,-0.00060080,-0.00020558
 ,-0.00022246,0.00007941,0.00006497,0.00016882,0.00007430,-0.00010603,-
 0.00004459,-0.00002362,-0.00070839,-0.00017606,-0.00071311,-0.00376655
 ,0.00345876,0.00439058,0.00068807,0.00046135,0.00029732,-0.00002674,0.
 00034728,-0.00048284,0.00757133,0.01153664,0.00104290,0.01427573,0.076
 08181,-0.06483714,-0.00065649,-0.00572596,0.00581309,-0.00332398,0.001
 15313,0.00608479,-0.00008193,0.00002510,0.00010127,0.00003151,0.000054
 95,0.00013559,-0.00000044,-0.00000169,-0.00001413,0.00000031,-0.000003
 67,0.00000525,-0.00000006,0.00000385,0.00000371,0.00000003,-0.00000170
 ,0.00000480,-0.00000138,0.00000143,0.00000136,0.00000278,0.00000300,0.
 00000655,-0.00000442,0.00000523,0.00000577,0.00000158,-0.00000469,-0.0
 0000252,0.00002358,0.00008263,-0.00000395,-0.00005313,-0.00000023,0.00
 009491,0.00101169,-0.00158054,-0.00283814,-0.01675417,-0.08356275,0.05
 476537,-0.00038482,-0.00018892,0.00007702,0.00001637,0.00001029,0.0000
 0955,-0.00005315,-0.00001524,0.00001376,0.00034201,-0.00005460,0.00006
 693,-0.00004330,-0.00012943,-0.00003212,0.00004071,0.00018334,-0.00000
 020,-0.00009999,-0.00003253,-0.00001931,-0.00000465,0.00011022,0.00000
 227,0.00011759,-0.00006383,0.00001723,-0.00001533,0.00002907,-0.000000
 22,0.00001843,-0.00000469,0.,-0.00001511,-0.00000053,-0.00000539,0.000
 35379,0.00035664,-0.00028480,0.00004570,0.00043510,0.00034624,-0.00004
 184,-0.00008237,-0.00008628,-0.00005745,0.00003234,-0.00006804,-0.0000
 0336,0.00000798,-0.00000756,-0.00000273,-0.00001682,-0.00000056,0.0006
 7304,-0.00024692,0.00013263,-0.00014153,-0.00016385,0.00000092,0.00007
 651,-0.00002587,0.00003294,0.00000300,0.00001555,-0.00000002,-0.000541
 36,-0.00228388,0.00002579,-0.00013841,-0.00042850,0.00026971,0.0000764
 4,0.00010055,0.00022502,0.00001656,0.00006092,-0.00004137,-0.00330353,
 -0.00417508,-0.00222407,-0.01371876,0.01940876,-0.01647958,-0.15185584
 ,0.09458115,-0.09766550,0.00921003,-0.00919880,0.00738331,-0.00000954,
 -0.00007553,0.00000977,-0.00039236,-0.00017392,0.00064570,-0.00001440,
 0.00001415,0.00002172,-0.00000068,-0.00000429,0.00000563,0.00000389,0.
 00000318,0.00000037,0.00000369,0.00000093,0.00000132,-0.00000099,0.000
 00321,0.00000104,-0.00000039,0.00000210,0.00000121,0.00000204,0.000003
 24,-0.00000298,-0.00000485,-0.00001828,0.00000414,0.00000614,0.0000181
 9,-0.00001605,0.00005581,-0.00004391,0.00000805,-0.00083917,0.00100497
 ,-0.00048090,0.00036248,0.00035645,0.00163772,0.16009183,0.00121487,0.
 00060925,0.00000470,-0.00000733,-0.00026929,-0.00002189,0.00029194,0.0
 0005848,0.00001098,-0.00104094,0.00001546,-0.00026162,0.00013378,0.000
 46340,0.00008456,-0.00014969,-0.00050190,-0.00003688,0.00013288,0.0000
 8664,0.00004812,0.00004683,-0.00024337,-0.00000953,-0.00034043,0.00002
 812,-0.00005616,-0.00003069,-0.00010377,-0.00003492,0.00001438,-0.0000
 2088,0.00000576,0.00000644,0.00007386,0.00001550,-0.00101575,-0.000672
 15,0.00101409,-0.00001877,0.00001728,0.00004207,0.00007612,0.00037236,
 -0.00014921,0.00009643,0.00002405,0.00005634,-0.00006114,0.00009997,0.
 00002423,0.00000494,0.00003473,0.00002079,0.00136654,-0.00028771,0.000
 43247,-0.00009865,-0.00020660,-0.00015334,0.00007655,-0.00015650,-0.00
 005020,0.00010488,-0.00000090,0.00001295,-0.00407262,-0.00267643,0.003
 07276,-0.00036939,-0.00071502,-0.00022295,-0.00003294,0.00031510,-0.00
 043825,-0.00012614,-0.00022419,0.00007153,-0.00359559,0.00169422,0.001
 16852,-0.00593063,0.00911829,-0.00482021,0.09257327,-0.15117932,0.0996
 5990,0.01851343,-0.01199736,0.01198994,0.00014000,0.00002468,-0.000307
 36,0.00030341,0.00031851,-0.00026776,0.00000309,0.00001354,0.00003573,
 -0.00000007,0.00000928,0.00000326,-0.00000785,-0.00000265,0.00000220,-
 0.00000567,-0.00000021,-0.00000127,0.00000236,-0.00000286,0.00000013,-
 0.00000952,-0.00000701,-0.00000034,-0.00000574,-0.00001068,0.00000352,
 -0.00000622,-0.00005838,-0.00001213,0.00000773,-0.00000348,0.00003321,
 0.00005408,-0.00002442,0.00004501,-0.00050173,0.00041590,-0.00004654,0
 .00124120,0.00006857,-0.00167889,-0.09969556,0.15472278,0.00175025,0.0
 0062931,-0.00020743,-0.00000249,-0.00006693,-0.00004633,0.00015637,0.0
 0002645,-0.00004090,-0.00124278,0.00022726,-0.00037995,0.00024441,0.00
 044878,0.00016737,-0.00038009,-0.00065856,-0.00008521,0.00029074,0.000
 06893,0.00005442,-0.00003846,-0.00033566,-0.00001746,-0.00041226,0.000
 17574,-0.00007873,0.00002642,-0.00008781,-0.00002429,-0.00002047,-0.00
 001322,0.00000347,0.00003650,0.00004308,0.00002288,-0.00215312,-0.0001
 1101,0.00178051,0.00011016,0.00039526,-0.00022302,0.00065896,0.0001894
 7,0.00040364,0.00010500,0.00001177,0.00015289,0.00001274,0.00003013,0.
 00000878,-0.00000475,0.00002722,0.00001660,-0.00064931,-0.00002316,-0.
 00010792,0.00034259,0.00024458,-0.00022401,-0.00006826,-0.00009351,-0.
 00004785,0.00003430,0.00005538,0.00000771,0.00092573,0.00144072,0.0032
 2266,0.00052990,-0.00066621,-0.00008079,-0.00013487,0.00025571,-0.0006
 9450,-0.00013715,-0.00025455,0.00009733,-0.00312340,0.00093898,0.00423
 640,-0.00120609,0.00581961,0.00114751,-0.09962020,0.09437871,-0.119835
 20,-0.00522395,0.00722555,-0.00434245,0.00013800,0.00005668,-0.0002583
 4,0.00029839,-0.00060844,-0.00071675,0.00000324,0.00000013,-0.00000853
 ,0.00000292,0.00000879,-0.00000600,-0.00000365,-0.00001631,0.00000085,
 -0.00000079,0.00000146,-0.00000319,0.00000436,-0.00000229,0.00000005,-
 0.00000052,-0.00000056,-0.00000189,0.00000418,-0.00000317,0.00000444,0
 .00000093,0.00001372,-0.00000783,-0.00001903,0.00000788,0.00005370,-0.
 00000466,-0.00000406,0.00003391,-0.00025303,0.00045269,0.00001886,0.00
 140569,-0.00152008,-0.00265997,0.10618814,-0.10832775,0.11891576,-0.00
 054111,0.00113946,0.00534732,-0.00012148,0.00055439,0.00015123,-0.0003
 2189,-0.00010316,0.00007716,0.00113446,0.00001092,-0.00029542,-0.00012
 985,-0.00041262,-0.00027010,0.00019581,0.00048696,-0.00010025,-0.00027
 067,-0.00012285,-0.00009867,-0.00004786,0.00032597,0.00003213,0.000235
 61,-0.00027640,0.00007210,-0.00027853,0.00015882,-0.00000867,0.0002596
 6,-0.00006435,0.00002735,-0.00009740,0.00019068,0.00000857,-0.00228091
 ,0.00342590,0.01455244,0.00000170,-0.00039399,-0.00026975,-0.00007680,
 -0.00009651,0.00036444,0.00118093,0.00039113,-0.00018421,0.00011210,-0
 .00030245,-0.00000466,0.00019617,-0.00000171,0.00002166,-0.00057354,-0
 .00265875,0.00192289,-0.00105326,0.00036360,-0.00009972,-0.00006738,-0
 .00003641,-0.00002387,-0.00004033,0.00002248,0.00002693,-0.01718856,-0
 .00387522,-0.01162012,0.00029882,0.00457591,-0.00261227,-0.00059763,-0
 .00110117,0.00023635,0.00044891,0.00050674,-0.00001417,-0.00025960,0.0
 0005431,-0.00026893,0.00349352,-0.00333440,0.00030853,-0.01072206,-0.0
 0829577,-0.00451934,-0.18005120,-0.07884197,-0.12818291,-0.00051631,0.
 00012439,0.00075853,-0.00010498,0.00014256,-0.00008193,-0.00004431,-0.
 00000457,-0.00003220,-0.00000196,-0.00001003,0.00001041,0.00000845,0.0
 0000672,-0.00000040,0.00000690,0.00000515,-0.00000070,-0.00000120,0.00
 000324,0.00000172,0.00000734,0.00000556,-0.00000514,0.00000683,0.00000
 839,-0.00000571,-0.00000465,0.00000495,-0.00001624,0.00001370,0.000041
 07,-0.00000858,-0.00025357,0.00019338,-0.00002606,-0.00007366,-0.00002
 153,0.00009823,-0.00051382,-0.00008231,-0.00002921,0.00024762,0.000633
 42,0.00161848,0.20846945,-0.00638432,-0.00148471,0.00212609,-0.0003921
 2,0.00067685,0.00036359,-0.00143816,-0.00035326,-0.00006438,0.00449661
 ,-0.00035809,0.00161981,-0.00078729,-0.00186755,-0.00062917,0.00070323
 ,0.00221553,0.00005949,-0.00068028,-0.00039937,-0.00030901,-0.00015881
 ,0.00117661,0.00004902,0.00140363,-0.00045203,0.00022476,-0.00035255,0
 .00055297,0.00012479,0.00021398,0.00001663,0.00001668,-0.00008347,-0.0
 0003555,-0.00003982,0.00453425,-0.00092123,-0.00957885,-0.00002678,-0.
 00023239,-0.00050346,-0.00074316,-0.00129735,0.00015886,0.00011562,0.0
 0070019,-0.00008796,-0.00035990,-0.00097849,-0.00026549,0.00046543,-0.
 00002588,-0.00000355,0.00031823,0.00176124,0.00004630,0.00097810,-0.00
 024948,-0.00006589,0.00005970,0.00034298,0.00004424,-0.00009821,-0.000
 04804,-0.00000948,0.01725987,0.00884414,0.01261512,0.00215496,-0.00395
 921,0.00162047,0.00064311,0.00086910,-0.00052829,-0.00033057,-0.000616
 80,0.00008100,0.00118344,-0.00041865,0.00062793,-0.00245002,-0.0039462
 3,0.00137301,-0.01871587,-0.00548053,-0.01623577,-0.08693350,-0.094455
 60,-0.05261717,-0.00018312,0.00001039,0.00054653,-0.00005087,-0.000045
 36,-0.00004028,-0.00000375,-0.00002552,-0.00010011,-0.00001002,-0.0000
 2534,0.00001041,0.00000955,0.00001712,0.00001842,0.00000639,-0.0000027
 4,0.00001249,-0.00000799,0.00000167,0.00000229,0.00002030,0.00000710,0
 .00000905,-0.00002980,0.00001683,0.00001581,-0.00000303,0.00000993,0.0
 0000813,-0.00003281,-0.00003528,0.00002324,0.00026433,-0.00018962,0.00
 006380,-0.00000760,0.00005765,-0.00009555,-0.00133380,-0.00002021,0.00
 030829,0.00043461,0.00070769,-0.00020713,0.08651461,0.10008432,-0.0067
 5155,-0.00429324,-0.00171483,0.00024710,0.00014250,-0.00004012,-0.0005
 5682,-0.00018027,0.00024144,0.00594888,-0.00045309,0.00224001,-0.00105
 967,-0.00217953,-0.00094530,0.00098289,0.00274181,-0.00003055,-0.00089
 946,-0.00035112,-0.00037518,-0.00002211,0.00135638,0.00009484,0.001757
 07,-0.00048666,0.00036950,-0.00003854,0.00023121,0.00010367,0.00007584
 ,0.00008751,-0.00001805,-0.00005143,-0.00023265,-0.00008439,0.00825737
 ,-0.00514685,-0.02350153,0.00002485,0.00013216,-0.00046260,-0.00119235
 ,-0.00140320,-0.00004974,-0.00118230,0.00090843,-0.00040040,-0.0002430
 3,-0.00033291,-0.00003778,0.00008461,-0.00016531,-0.00011020,0.0002692
 1,0.00173626,-0.00033046,0.00120391,-0.00058418,0.00049761,0.00005784,
 0.00018306,-0.00000273,-0.00001473,-0.00003365,-0.00001045,-0.00317849
 ,-0.00825247,-0.00198199,-0.00097529,-0.00014468,0.00031614,-0.0006043
 0,0.00037282,0.00016647,-0.00077200,-0.00057789,-0.00010032,0.00172627
 ,0.00010051,0.00065708,-0.00344147,0.00360586,-0.00093853,0.01650239,0
 .01144046,0.00725282,-0.14047789,-0.05608347,-0.11982530,0.00039135,-0
 .00015795,0.00019466,0.00001369,-0.00012487,0.00006098,0.00004577,-0.0
 0000542,-0.00007186,-0.00002075,-0.00001377,0.00001625,-0.00001317,0.0
 0003569,0.00001104,-0.00001439,-0.00001026,0.00001520,-0.00001989,-0.0
 0000693,-0.00000885,0.00000991,-0.00000111,-0.00000181,-0.00000508,-0.
 00000263,0.00003122,0.00001568,0.00000259,-0.00001239,0.00001422,-0.00
 000952,-0.00003559,-0.00007289,0.00011615,-0.00002021,0.00003334,-0.00
 013943,-0.00015296,0.00065155,0.00025412,-0.00021522,0.00020770,-0.000
 89038,-0.00041174,0.12317307,0.05927865,0.13974976,-0.00373998,-0.0004
 4380,0.00023751,0.00035186,0.00046615,-0.00020358,-0.00106094,0.000130
 83,-0.00001898,0.00356180,-0.00001467,0.00014147,-0.00040842,-0.001780
 31,-0.00038603,-0.00153774,0.00356492,-0.00061944,-0.00119972,-0.00060
 589,0.00172156,-0.00042491,0.00102257,-0.00003102,0.00093936,-0.000151
 81,0.00024193,-0.00002174,0.00005726,0.00005526,0.00022535,0.00006963,
 0.00005233,-0.00007829,-0.00002866,-0.00002636,0.00262164,0.00529423,0
 .00862016,-0.04052406,-0.00404182,-0.01520289,-0.00889131,-0.01224741,
 -0.02980933,-0.00019236,0.00021962,0.00009461,-0.00008806,-0.00033476,
 0.00000016,-0.00000825,-0.00007178,-0.00008410,-0.00003826,0.00069880,
 -0.00027640,0.00059133,-0.00043883,0.00016047,0.00001693,0.00024234,0.
 00000174,-0.00005367,-0.00006793,-0.00001741,0.00039811,-0.00096828,0.
 00062370,0.00008916,-0.00015652,-0.00018724,-0.00016230,0.00025162,-0.
 00004522,-0.00041655,-0.00025427,0.00000384,0.00052904,0.00007321,0.00
 026381,-0.00081557,-0.00003389,-0.00052073,0.00149545,0.00174668,-0.00
 067551,-0.00289871,0.00203211,0.00286879,0.00011360,0.00061650,0.00140
 813,0.00068256,0.00432310,0.01758320,-0.00021725,0.00068929,0.00070778
 ,-0.00007742,0.00001557,-0.00007870,0.00007578,-0.00000797,-0.00026653
 ,-0.00000049,0.00001104,0.00000101,-0.00000970,-0.00001104,-0.00000020
 ,0.00001163,0.00000768,-0.00002268,-0.00001596,0.00000471,0.00002003,0
 .00000913,0.00000006,-0.00000194,0.00000009,-0.00001864,-0.00000214,-0
 .00001034,0.00001494,-0.00004169,-0.00002814,-0.00000963,0.00001362,-0
 .00002922,0.00000296,0.00000124,-0.00008013,0.00008449,-0.00018908,-0.
 00008345,-0.00018213,-0.00008691,0.05140012,0.00132777,-0.00056985,-0.
 00026407,-0.00055163,-0.00112475,-0.00013216,0.00051546,-0.00010804,0.
 00016236,-0.00075904,-0.00019788,0.00065724,0.00002331,0.00034199,-0.0
 0000600,0.00088968,0.00077226,0.00032579,-0.00073643,-0.00035967,-0.00
 018913,0.00024453,0.00040483,0.00005483,0.00009566,-0.00043681,0.00000
 188,-0.00019585,0.00008264,-0.00005497,0.00007599,-0.00011003,-0.00000
 502,-0.00004020,0.00015117,0.00000107,0.00456149,-0.01630673,-0.028034
 55,-0.00143782,-0.05983559,-0.07009403,-0.00368814,0.00116563,-0.00096
 767,-0.00005811,0.00010329,-0.00002288,-0.00006568,-0.00004225,0.00001
 960,0.00013002,0.00008453,0.00002083,0.00030348,0.00002571,0.00000867,
 -0.00003663,0.00007985,0.00009463,-0.00010255,-0.00004585,-0.00000779,
 0.00012065,-0.00011157,0.00000549,0.00055520,-0.00022084,-0.00018534,-
 0.00006654,-0.00033856,-0.00006140,-0.00008260,-0.00002035,0.00002788,
 0.00002250,-0.00008949,0.00002790,0.00021894,0.00019563,0.00007807,-0.
 00020858,0.00006076,-0.00015358,0.00007610,0.00065794,0.00037791,-0.00
 196341,-0.00188724,0.00246179,-0.00026949,0.00182587,0.00028763,0.0006
 0286,0.00553490,0.02106431,0.00011870,-0.00028700,-0.00076172,0.000046
 42,-0.00001158,0.00002839,-0.00001555,0.00000693,-0.00001006,0.0000017
 5,-0.00000052,-0.00001149,-0.00000442,0.00000315,0.00000957,0.00000097
 ,-0.00000332,-0.00000068,-0.00000343,0.00000224,-0.00000449,-0.0000017
 0,-0.00000725,-0.00000413,0.00000381,-0.00000960,-0.00001640,0.0000133
 7,-0.00000498,0.00000032,-0.00000130,-0.00000141,-0.00001607,0.0000148
 3,0.00000169,-0.00001303,-0.00004962,0.00007294,-0.00017356,0.00014546
 ,-0.00014444,-0.00046276,0.00022974,0.07070164,-0.00065519,-0.00016620
 ,-0.00060980,0.00004880,0.00016737,-0.00021567,-0.00041033,-0.00006676
 ,0.00002321,0.00184978,-0.00100593,0.00011129,-0.00008698,-0.00061187,
 -0.00018089,0.00084202,0.00391419,-0.00026967,-0.00101859,-0.00060623,
 -0.00013699,-0.00008042,0.00082091,0.00009005,0.00039039,-0.00038169,0
 .00007192,-0.00001490,0.00000495,0.00005487,0.00013328,-0.00004797,0.0
 0001503,-0.00004933,0.00015706,0.00001712,0.00233591,-0.00160835,-0.00
 224296,-0.00683985,-0.07002743,-0.25807816,-0.00925709,-0.00331206,-0.
 00670199,-0.00014578,0.00010059,-0.00000083,-0.00008188,-0.00012710,-0
 .00000485,0.00000973,-0.00005059,-0.00003323,0.00007428,0.00025649,-0.
 00002219,0.00028953,-0.00009032,0.00009526,-0.00000319,0.00007154,-0.0
 0000836,-0.00000981,-0.00001552,0.00000107,0.00030614,-0.00034306,-0.0
 0000174,0.00010707,-0.00037141,0.00004689,-0.00010096,0.00019099,-0.00
 000618,-0.00015402,-0.00020356,0.00001416,0.00021734,0.00008657,0.0000
 6473,-0.00029835,0.00000025,-0.00006063,-0.00003811,0.00061452,-0.0002
 8233,-0.00141353,0.00033729,0.00245751,0.00010008,0.00021926,0.0023312
 0,0.00074794,-0.00373745,-0.02027896,-0.00086688,0.00005825,-0.0000748
 4,-0.00000710,-0.00000104,-0.00000881,-0.00000149,0.00000004,-0.000034
 40,-0.00000633,0.00000305,-0.00000875,-0.00000406,-0.00000662,-0.00000
 747,0.00000339,-0.00000158,-0.00001040,-0.00000703,-0.00000556,0.00000
 814,0.00000888,-0.00000538,-0.00000333,0.00000416,-0.00001333,-0.00000
 903,0.00001946,-0.00000183,-0.00001784,0.00002807,-0.00001296,-0.00000
 285,0.00001437,0.00001929,-0.00004932,0.00007911,-0.00007069,0.0001605
 5,-0.00003029,-0.00006694,-0.00012757,0.01397174,0.07593685,0.28392705
 \\0.00003725,-0.00000542,-0.00000023,-0.00000223,-0.00000293,-0.000005
 90,0.00000865,0.00001485,0.00000222,-0.00003339,0.00000710,0.00000088,
 0.00001409,0.00000436,0.00001277,-0.00002669,-0.00002310,0.00000259,0.
 00001669,0.00001566,0.00000046,-0.00000137,-0.00002292,-0.00000574,-0.
 00002699,0.00001530,-0.00000335,0.00000471,-0.00000889,-0.00000291,-0.
 00000064,0.00000197,-0.00000279,-0.00000104,0.00000861,-0.00000408,-0.
 00002019,-0.00000042,0.00001250,-0.00000235,0.00000696,-0.00000287,0.0
 0001791,0.00001803,0.00000012,0.00000498,0.00000092,-0.00000261,0.0000
 0489,-0.00000035,-0.00000321,-0.00001154,-0.00000124,-0.00000155,-0.00
 000996,0.00000661,0.00000975,0.00000369,-0.00001499,-0.00000106,0.0000
 0337,0.00000564,-0.00000288,-0.00000928,0.00000212,-0.00000156,0.00000
 803,-0.00000180,0.00000300,0.00000859,0.00000030,-0.00000218,0.0000036
 0,-0.00000349,0.00000318,-0.00000304,-0.00000020,-0.00000244,-0.000003
 32,-0.00000888,0.00000368,0.00000459,0.00000464,-0.00000407,-0.0000062
 4,-0.00000092,0.00000753,0.00001458,-0.00001458,-0.00001342,0.00000337
 ,0.00000047,-0.00000510,-0.00000143,-0.00000130,0.00000517,0.00000357,
 0.00000106,-0.00000087,0.00000205,0.00000331,0.00000210,0.00000022,0.0
 0000280,-0.00000023,-0.00000110,0.00000371,-0.00000168,-0.00000165,0.0
 0000218,-0.00000205,-0.00000239,0.00000113,-0.00000260,-0.00000276,-0.
 00000066,-0.00000168,-0.00000213,-0.00000174,-0.00000079,-0.00000200,-
 0.00000349,-0.00000008,-0.00000046,-0.00000338,0.00000031,0.00000118,-
 0.00000264,0.00000289,0.00000225,-0.00000185,0.00000109,0.00000104,0.0
 0000205,0.00000390,-0.00000059,0.00000030,0.00000130,0.00000347,-0.000
 00491,0.00000250\\\@


 ABALONE: AN EXPRESSION OF DISBELIEF.
 Job cpu time:       2 days 13 hours  7 minutes 29.5 seconds.
 Elapsed time:       0 days  3 hours  3 minutes 52.4 seconds.
 File lengths (MBytes):  RWF=   4607 Int=      0 D2E=      0 Chk=     65 Scr=      1
 Normal termination of Gaussian 16 at Tue Jul  9 11:24:30 2019.
