 Entering Gaussian System, Link 0=/share/apps/gaussian16/g16/g16
 Initial command:
 /share/apps/gaussian16/g16/l1.exe "/home/amen01//scratch/755/Gau-7577.inp" -scrdir="/home/amen01//scratch/755/"
 Entering Link 1 = /share/apps/gaussian16/g16/l1.exe PID=      7578.
  
 Copyright (c) 1988-2017, Gaussian, Inc.  All Rights Reserved.
  
 This is part of the Gaussian(R) 16 program.  It is based on
 the Gaussian(R) 09 system (copyright 2009, Gaussian, Inc.),
 the Gaussian(R) 03 system (copyright 2003, Gaussian, Inc.),
 the Gaussian(R) 98 system (copyright 1998, Gaussian, Inc.),
 the Gaussian(R) 94 system (copyright 1995, Gaussian, Inc.),
 the Gaussian 92(TM) system (copyright 1992, Gaussian, Inc.),
 the Gaussian 90(TM) system (copyright 1990, Gaussian, Inc.),
 the Gaussian 88(TM) system (copyright 1988, Gaussian, Inc.),
 the Gaussian 86(TM) system (copyright 1986, Carnegie Mellon
 University), and the Gaussian 82(TM) system (copyright 1983,
 Carnegie Mellon University). Gaussian is a federally registered
 trademark of Gaussian, Inc.
  
 This software contains proprietary and confidential information,
 including trade secrets, belonging to Gaussian, Inc.
  
 This software is provided under written license and may be
 used, copied, transmitted, or stored only in accord with that
 written license.
  
 The following legend is applicable only to US Government
 contracts under FAR:
  
                    RESTRICTED RIGHTS LEGEND
  
 Use, reproduction and disclosure by the US Government is
 subject to restrictions as set forth in subparagraphs (a)
 and (c) of the Commercial Computer Software - Restricted
 Rights clause in FAR 52.227-19.
  
 Gaussian, Inc.
 340 Quinnipiac St., Bldg. 40, Wallingford CT 06492
  
  
 ---------------------------------------------------------------
 Warning -- This program may not be used in any manner that
 competes with the business of Gaussian, Inc. or will provide
 assistance to any competitor of Gaussian, Inc.  The licensee
 of this program is prohibited from giving any competitor of
 Gaussian, Inc. access to this program.  By using this program,
 the user acknowledges that Gaussian, Inc. is engaged in the
 business of creating and licensing software in the field of
 computational chemistry and represents and warrants to the
 licensee that it is not a competitor of Gaussian, Inc. and that
 it will not use this program in any manner prohibited above.
 ---------------------------------------------------------------
  

 Cite this work as:
 Gaussian 16, Revision B.01,
 M. J. Frisch, G. W. Trucks, H. B. Schlegel, G. E. Scuseria, 
 M. A. Robb, J. R. Cheeseman, G. Scalmani, V. Barone, 
 G. A. Petersson, H. Nakatsuji, X. Li, M. Caricato, A. V. Marenich, 
 J. Bloino, B. G. Janesko, R. Gomperts, B. Mennucci, H. P. Hratchian, 
 J. V. Ortiz, A. F. Izmaylov, J. L. Sonnenberg, D. Williams-Young, 
 F. Ding, F. Lipparini, F. Egidi, J. Goings, B. Peng, A. Petrone, 
 T. Henderson, D. Ranasinghe, V. G. Zakrzewski, J. Gao, N. Rega, 
 G. Zheng, W. Liang, M. Hada, M. Ehara, K. Toyota, R. Fukuda, 
 J. Hasegawa, M. Ishida, T. Nakajima, Y. Honda, O. Kitao, H. Nakai, 
 T. Vreven, K. Throssell, J. A. Montgomery, Jr., J. E. Peralta, 
 F. Ogliaro, M. J. Bearpark, J. J. Heyd, E. N. Brothers, K. N. Kudin, 
 V. N. Staroverov, T. A. Keith, R. Kobayashi, J. Normand, 
 K. Raghavachari, A. P. Rendell, J. C. Burant, S. S. Iyengar, 
 J. Tomasi, M. Cossi, J. M. Millam, M. Klene, C. Adamo, R. Cammi, 
 J. W. Ochterski, R. L. Martin, K. Morokuma, O. Farkas, 
 J. B. Foresman, and D. J. Fox, Gaussian, Inc., Wallingford CT, 2016.
 
 ******************************************
 Gaussian 16:  ES64L-G16RevB.01 20-Dec-2017
                 1-Aug-2019 
 ******************************************
 %nprocshared=20
 Will use up to   20 processors via shared memory.
 %mem=180GB
 %chk=7-memb2-carbTSguess-2a.chk
 ---------------------------------------------------------------
 # opt=(ts,calcfc,noeigen) freq b3lyp/6-311+g(d,p) int=grid=fine
 ---------------------------------------------------------------
 1/5=1,10=4,11=1,18=20,26=3,38=1/1,3;
 2/9=110,12=2,17=6,18=5,40=1/2;
 3/5=4,6=6,7=111,11=2,25=1,30=1,71=2,74=-5,75=-4,140=1/1,2,3;
 4//1;
 5/5=2,38=5/2;
 8/6=4,10=90,11=11/1;
 11/6=1,8=1,9=11,15=111,16=1/1,2,10;
 10/6=1,13=1/2;
 6/7=2,8=2,9=2,10=2,28=1/1;
 7/10=1,18=20,25=1/1,2,3,16;
 1/5=1,10=4,11=1,18=20,26=3/3(2);
 2/9=110/2;
 99//99;
 2/9=110/2;
 3/5=4,6=6,7=111,11=2,25=1,30=1,71=1,74=-5,75=-4/1,2,3;
 4/5=5,16=3,69=1/1;
 5/5=2,38=5/2;
 7//1,2,3,16;
 1/5=1,11=1,18=20,26=3/3(-5);
 2/9=110/2;
 6/7=2,8=2,9=2,10=2,19=2,28=1/1;
 99/9=1/99;
 ----------------------
 7-memb2-carbTSguess-2a
 ----------------------
 Symbolic Z-matrix:
 Charge =  0 Multiplicity = 1
 C                     0.72654  -0.91404  -0.37836 
 C                     0.47688   0.52741  -0.11535 
 C                     1.75142   1.12689  -0.0836 
 C                     2.14136  -1.0755   -0.45783 
 C                     2.75659   0.16282  -0.28133 
 C                     2.86196  -2.28469  -0.32324 
 C                     4.29021  -2.10113  -0.0782 
 C                     4.8753   -0.85969   0.04556 
 C                     4.09564   0.35991   0.00126 
 C                     2.06266   2.4536    0.22427 
 C                     3.4761    2.71902   0.39947 
 C                     4.43539   1.72259   0.32422 
 C                    -0.08185  -2.00094  -0.524 
 C                     0.64125  -3.34136  -0.72667 
 C                     2.09024  -3.43454  -0.34015 
 C                    -0.64637   1.34981   0.04748 
 C                    -0.3653    2.77867   0.16824 
 C                     0.94165   3.29351   0.31852 
 C                    -2.03066   0.88683  -0.00607 
 C                    -3.02506   1.85613  -0.29957 
 C                    -2.7127    3.25148  -0.23951 
 C                    -1.46255   3.69237   0.05703 
 C                    -2.45332  -0.47481   0.21069 
 C                    -3.79076  -0.85181  -0.12253 
 C                    -4.70383   0.13182  -0.59778 
 C                    -4.34715   1.44693  -0.62599 
 C                    -4.24118  -2.17382   0.12279 
 C                    -3.46752  -3.07551   0.83344 
 C                    -2.20165  -2.69815   1.27261 
 C                    -1.63264  -1.47921   0.85938 
 H                     0.06949  -4.1877   -0.33857 
 H                     2.49089  -4.38964  -0.01327 
 H                     4.91719  -2.98339  -0.0024 
 H                     5.94408  -0.80426   0.22686 
 H                     5.46988   1.98235   0.52562 
 H                     3.79402   3.7296    0.63447 
 H                     1.05524   4.36235   0.4705 
 H                    -1.26084   4.7546    0.14415 
 H                    -3.5169    3.9602   -0.40712 
 H                    -5.06981   2.20767  -0.9019 
 H                    -5.70908  -0.17503  -0.86608 
 H                    -5.24771  -2.43964  -0.18199 
 H                    -3.86674  -4.05128   1.08746 
 H                    -1.61441  -3.36585   1.89272 
 H                    -0.79698  -1.11818   1.44449 
 H                     0.57776  -3.44939  -1.82369 
 

 GradGradGradGradGradGradGradGradGradGradGradGradGradGradGradGradGradGrad
 Berny optimization.
 Initialization pass.
                           ----------------------------
                           !    Initial Parameters    !
                           ! (Angstroms and Degrees)  !
 --------------------------                            --------------------------
 ! Name  Definition              Value          Derivative Info.                !
 --------------------------------------------------------------------------------
 ! R1    R(1,2)                  1.4864         calculate D2E/DX2 analytically  !
 ! R2    R(1,4)                  1.4262         calculate D2E/DX2 analytically  !
 ! R3    R(1,13)                 1.3624         calculate D2E/DX2 analytically  !
 ! R4    R(2,3)                  1.4088         calculate D2E/DX2 analytically  !
 ! R5    R(2,16)                 1.4016         calculate D2E/DX2 analytically  !
 ! R6    R(3,5)                  1.4067         calculate D2E/DX2 analytically  !
 ! R7    R(3,10)                 1.3971         calculate D2E/DX2 analytically  !
 ! R8    R(4,5)                  1.3939         calculate D2E/DX2 analytically  !
 ! R9    R(4,6)                  1.414          calculate D2E/DX2 analytically  !
 ! R10   R(5,9)                  1.3827         calculate D2E/DX2 analytically  !
 ! R11   R(6,7)                  1.4607         calculate D2E/DX2 analytically  !
 ! R12   R(6,15)                 1.3849         calculate D2E/DX2 analytically  !
 ! R13   R(7,8)                  1.378          calculate D2E/DX2 analytically  !
 ! R14   R(7,33)                 1.085          calculate D2E/DX2 analytically  !
 ! R15   R(8,9)                  1.4482         calculate D2E/DX2 analytically  !
 ! R16   R(8,34)                 1.0855         calculate D2E/DX2 analytically  !
 ! R17   R(9,12)                 1.4411         calculate D2E/DX2 analytically  !
 ! R18   R(10,11)                1.4488         calculate D2E/DX2 analytically  !
 ! R19   R(10,18)                1.4039         calculate D2E/DX2 analytically  !
 ! R20   R(11,12)                1.3852         calculate D2E/DX2 analytically  !
 ! R21   R(11,36)                1.0852         calculate D2E/DX2 analytically  !
 ! R22   R(12,35)                1.0855         calculate D2E/DX2 analytically  !
 ! R23   R(13,14)                1.5364         calculate D2E/DX2 analytically  !
 ! R24   R(14,15)                1.5025         calculate D2E/DX2 analytically  !
 ! R25   R(14,31)                1.0926         calculate D2E/DX2 analytically  !
 ! R26   R(14,46)                1.1042         calculate D2E/DX2 analytically  !
 ! R27   R(15,32)                1.0861         calculate D2E/DX2 analytically  !
 ! R28   R(16,17)                1.4612         calculate D2E/DX2 analytically  !
 ! R29   R(16,19)                1.4606         calculate D2E/DX2 analytically  !
 ! R30   R(17,18)                1.4127         calculate D2E/DX2 analytically  !
 ! R31   R(17,22)                1.4322         calculate D2E/DX2 analytically  !
 ! R32   R(18,37)                1.0856         calculate D2E/DX2 analytically  !
 ! R33   R(19,20)                1.4193         calculate D2E/DX2 analytically  !
 ! R34   R(19,23)                1.4421         calculate D2E/DX2 analytically  !
 ! R35   R(20,21)                1.4312         calculate D2E/DX2 analytically  !
 ! R36   R(20,26)                1.4219         calculate D2E/DX2 analytically  !
 ! R37   R(21,22)                1.3584         calculate D2E/DX2 analytically  !
 ! R38   R(21,39)                1.085          calculate D2E/DX2 analytically  !
 ! R39   R(22,38)                1.0847         calculate D2E/DX2 analytically  !
 ! R40   R(23,24)                1.429          calculate D2E/DX2 analytically  !
 ! R41   R(23,30)                1.4502         calculate D2E/DX2 analytically  !
 ! R42   R(24,25)                1.4238         calculate D2E/DX2 analytically  !
 ! R43   R(24,27)                1.418          calculate D2E/DX2 analytically  !
 ! R44   R(25,26)                1.3629         calculate D2E/DX2 analytically  !
 ! R45   R(25,41)                1.0847         calculate D2E/DX2 analytically  !
 ! R46   R(26,40)                1.0849         calculate D2E/DX2 analytically  !
 ! R47   R(27,28)                1.3844         calculate D2E/DX2 analytically  !
 ! R48   R(27,42)                1.0847         calculate D2E/DX2 analytically  !
 ! R49   R(28,29)                1.392          calculate D2E/DX2 analytically  !
 ! R50   R(28,43)                1.0844         calculate D2E/DX2 analytically  !
 ! R51   R(29,30)                1.4073         calculate D2E/DX2 analytically  !
 ! R52   R(29,44)                1.0841         calculate D2E/DX2 analytically  !
 ! R53   R(30,45)                1.0821         calculate D2E/DX2 analytically  !
 ! A1    A(2,1,4)              106.6345         calculate D2E/DX2 analytically  !
 ! A2    A(2,1,13)             133.8638         calculate D2E/DX2 analytically  !
 ! A3    A(4,1,13)             119.4953         calculate D2E/DX2 analytically  !
 ! A4    A(1,2,3)              105.3484         calculate D2E/DX2 analytically  !
 ! A5    A(1,2,16)             136.4008         calculate D2E/DX2 analytically  !
 ! A6    A(3,2,16)             118.2104         calculate D2E/DX2 analytically  !
 ! A7    A(2,3,5)              110.5881         calculate D2E/DX2 analytically  !
 ! A8    A(2,3,10)             127.632          calculate D2E/DX2 analytically  !
 ! A9    A(5,3,10)             121.5069         calculate D2E/DX2 analytically  !
 ! A10   A(1,4,5)              109.2814         calculate D2E/DX2 analytically  !
 ! A11   A(1,4,6)              126.6576         calculate D2E/DX2 analytically  !
 ! A12   A(5,4,6)              121.5129         calculate D2E/DX2 analytically  !
 ! A13   A(3,5,4)              108.134          calculate D2E/DX2 analytically  !
 ! A14   A(3,5,9)              124.4434         calculate D2E/DX2 analytically  !
 ! A15   A(4,5,9)              125.4464         calculate D2E/DX2 analytically  !
 ! A16   A(4,6,7)              114.0032         calculate D2E/DX2 analytically  !
 ! A17   A(4,6,15)             115.1418         calculate D2E/DX2 analytically  !
 ! A18   A(7,6,15)             130.6348         calculate D2E/DX2 analytically  !
 ! A19   A(6,7,8)              122.9187         calculate D2E/DX2 analytically  !
 ! A20   A(6,7,33)             118.3307         calculate D2E/DX2 analytically  !
 ! A21   A(8,7,33)             118.7466         calculate D2E/DX2 analytically  !
 ! A22   A(7,8,9)              121.8278         calculate D2E/DX2 analytically  !
 ! A23   A(7,8,34)             118.6252         calculate D2E/DX2 analytically  !
 ! A24   A(9,8,34)             119.4856         calculate D2E/DX2 analytically  !
 ! A25   A(5,9,8)              114.0542         calculate D2E/DX2 analytically  !
 ! A26   A(5,9,12)             114.1371         calculate D2E/DX2 analytically  !
 ! A27   A(8,9,12)             131.4959         calculate D2E/DX2 analytically  !
 ! A28   A(3,10,11)            114.7063         calculate D2E/DX2 analytically  !
 ! A29   A(3,10,18)            113.8937         calculate D2E/DX2 analytically  !
 ! A30   A(11,10,18)           131.3981         calculate D2E/DX2 analytically  !
 ! A31   A(10,11,12)           122.499          calculate D2E/DX2 analytically  !
 ! A32   A(10,11,36)           118.8567         calculate D2E/DX2 analytically  !
 ! A33   A(12,11,36)           118.6058         calculate D2E/DX2 analytically  !
 ! A34   A(9,12,11)            121.9459         calculate D2E/DX2 analytically  !
 ! A35   A(9,12,35)            119.5097         calculate D2E/DX2 analytically  !
 ! A36   A(11,12,35)           118.5415         calculate D2E/DX2 analytically  !
 ! A37   A(1,13,14)            115.5219         calculate D2E/DX2 analytically  !
 ! A38   A(13,14,15)           118.2963         calculate D2E/DX2 analytically  !
 ! A39   A(13,14,31)           112.4969         calculate D2E/DX2 analytically  !
 ! A40   A(13,14,46)           100.9149         calculate D2E/DX2 analytically  !
 ! A41   A(15,14,31)           111.4221         calculate D2E/DX2 analytically  !
 ! A42   A(15,14,46)           107.7563         calculate D2E/DX2 analytically  !
 ! A43   A(31,14,46)           104.3009         calculate D2E/DX2 analytically  !
 ! A44   A(6,15,14)            119.276          calculate D2E/DX2 analytically  !
 ! A45   A(6,15,32)            121.3926         calculate D2E/DX2 analytically  !
 ! A46   A(14,15,32)           119.1898         calculate D2E/DX2 analytically  !
 ! A47   A(2,16,17)            115.4171         calculate D2E/DX2 analytically  !
 ! A48   A(2,16,19)            124.6985         calculate D2E/DX2 analytically  !
 ! A49   A(17,16,19)           119.6874         calculate D2E/DX2 analytically  !
 ! A50   A(16,17,18)           122.8945         calculate D2E/DX2 analytically  !
 ! A51   A(16,17,22)           118.0379         calculate D2E/DX2 analytically  !
 ! A52   A(18,17,22)           118.9824         calculate D2E/DX2 analytically  !
 ! A53   A(10,18,17)           120.8998         calculate D2E/DX2 analytically  !
 ! A54   A(10,18,37)           120.9908         calculate D2E/DX2 analytically  !
 ! A55   A(17,18,37)           118.0679         calculate D2E/DX2 analytically  !
 ! A56   A(16,19,20)           117.0717         calculate D2E/DX2 analytically  !
 ! A57   A(16,19,23)           124.8575         calculate D2E/DX2 analytically  !
 ! A58   A(20,19,23)           118.0702         calculate D2E/DX2 analytically  !
 ! A59   A(19,20,21)           120.2814         calculate D2E/DX2 analytically  !
 ! A60   A(19,20,26)           120.156          calculate D2E/DX2 analytically  !
 ! A61   A(21,20,26)           119.5475         calculate D2E/DX2 analytically  !
 ! A62   A(20,21,22)           121.7681         calculate D2E/DX2 analytically  !
 ! A63   A(20,21,39)           117.9448         calculate D2E/DX2 analytically  !
 ! A64   A(22,21,39)           120.2575         calculate D2E/DX2 analytically  !
 ! A65   A(17,22,21)           120.9961         calculate D2E/DX2 analytically  !
 ! A66   A(17,22,38)           118.4273         calculate D2E/DX2 analytically  !
 ! A67   A(21,22,38)           120.4319         calculate D2E/DX2 analytically  !
 ! A68   A(19,23,24)           119.2339         calculate D2E/DX2 analytically  !
 ! A69   A(19,23,30)           123.7321         calculate D2E/DX2 analytically  !
 ! A70   A(24,23,30)           116.8233         calculate D2E/DX2 analytically  !
 ! A71   A(23,24,25)           119.7231         calculate D2E/DX2 analytically  !
 ! A72   A(23,24,27)           120.1937         calculate D2E/DX2 analytically  !
 ! A73   A(25,24,27)           119.8764         calculate D2E/DX2 analytically  !
 ! A74   A(24,25,26)           120.3783         calculate D2E/DX2 analytically  !
 ! A75   A(24,25,41)           118.78           calculate D2E/DX2 analytically  !
 ! A76   A(26,25,41)           120.688          calculate D2E/DX2 analytically  !
 ! A77   A(20,26,25)           121.0816         calculate D2E/DX2 analytically  !
 ! A78   A(20,26,40)           118.418          calculate D2E/DX2 analytically  !
 ! A79   A(25,26,40)           120.5003         calculate D2E/DX2 analytically  !
 ! A80   A(24,27,28)           121.2323         calculate D2E/DX2 analytically  !
 ! A81   A(24,27,42)           118.333          calculate D2E/DX2 analytically  !
 ! A82   A(28,27,42)           120.2097         calculate D2E/DX2 analytically  !
 ! A83   A(27,28,29)           119.5763         calculate D2E/DX2 analytically  !
 ! A84   A(27,28,43)           120.0362         calculate D2E/DX2 analytically  !
 ! A85   A(29,28,43)           120.3178         calculate D2E/DX2 analytically  !
 ! A86   A(28,29,30)           120.6553         calculate D2E/DX2 analytically  !
 ! A87   A(28,29,44)           120.4053         calculate D2E/DX2 analytically  !
 ! A88   A(30,29,44)           118.8446         calculate D2E/DX2 analytically  !
 ! A89   A(23,30,29)           120.1613         calculate D2E/DX2 analytically  !
 ! A90   A(23,30,45)           116.6029         calculate D2E/DX2 analytically  !
 ! A91   A(29,30,45)           116.2601         calculate D2E/DX2 analytically  !
 ! D1    D(4,1,2,3)              1.1592         calculate D2E/DX2 analytically  !
 ! D2    D(4,1,2,16)           178.6818         calculate D2E/DX2 analytically  !
 ! D3    D(13,1,2,3)          -179.8016         calculate D2E/DX2 analytically  !
 ! D4    D(13,1,2,16)           -2.279          calculate D2E/DX2 analytically  !
 ! D5    D(2,1,4,5)             -0.8369         calculate D2E/DX2 analytically  !
 ! D6    D(2,1,4,6)            161.0838         calculate D2E/DX2 analytically  !
 ! D7    D(13,1,4,5)           179.9589         calculate D2E/DX2 analytically  !
 ! D8    D(13,1,4,6)           -18.1204         calculate D2E/DX2 analytically  !
 ! D9    D(2,1,13,14)         -177.2399         calculate D2E/DX2 analytically  !
 ! D10   D(4,1,13,14)            1.7025         calculate D2E/DX2 analytically  !
 ! D11   D(1,2,3,5)             -1.0866         calculate D2E/DX2 analytically  !
 ! D12   D(1,2,3,10)          -175.0895         calculate D2E/DX2 analytically  !
 ! D13   D(16,2,3,5)          -179.1481         calculate D2E/DX2 analytically  !
 ! D14   D(16,2,3,10)            6.849          calculate D2E/DX2 analytically  !
 ! D15   D(1,2,16,17)         -174.3058         calculate D2E/DX2 analytically  !
 ! D16   D(1,2,16,19)            0.5562         calculate D2E/DX2 analytically  !
 ! D17   D(3,2,16,17)            2.983          calculate D2E/DX2 analytically  !
 ! D18   D(3,2,16,19)          177.8449         calculate D2E/DX2 analytically  !
 ! D19   D(2,3,5,4)              0.5997         calculate D2E/DX2 analytically  !
 ! D20   D(2,3,5,9)           -164.1081         calculate D2E/DX2 analytically  !
 ! D21   D(10,3,5,4)           175.0304         calculate D2E/DX2 analytically  !
 ! D22   D(10,3,5,9)            10.3227         calculate D2E/DX2 analytically  !
 ! D23   D(2,3,10,11)          169.7983         calculate D2E/DX2 analytically  !
 ! D24   D(2,3,10,18)           -9.7591         calculate D2E/DX2 analytically  !
 ! D25   D(5,3,10,11)           -3.6144         calculate D2E/DX2 analytically  !
 ! D26   D(5,3,10,18)          176.8283         calculate D2E/DX2 analytically  !
 ! D27   D(1,4,5,3)              0.1808         calculate D2E/DX2 analytically  !
 ! D28   D(1,4,5,9)            164.6956         calculate D2E/DX2 analytically  !
 ! D29   D(6,4,5,3)           -162.8402         calculate D2E/DX2 analytically  !
 ! D30   D(6,4,5,9)              1.6746         calculate D2E/DX2 analytically  !
 ! D31   D(1,4,6,7)           -163.7408         calculate D2E/DX2 analytically  !
 ! D32   D(1,4,6,15)            11.451          calculate D2E/DX2 analytically  !
 ! D33   D(5,4,6,7)             -3.8371         calculate D2E/DX2 analytically  !
 ! D34   D(5,4,6,15)           171.3547         calculate D2E/DX2 analytically  !
 ! D35   D(3,5,9,8)            164.8806         calculate D2E/DX2 analytically  !
 ! D36   D(3,5,9,12)            -9.4482         calculate D2E/DX2 analytically  !
 ! D37   D(4,5,9,8)              2.7992         calculate D2E/DX2 analytically  !
 ! D38   D(4,5,9,12)          -171.5296         calculate D2E/DX2 analytically  !
 ! D39   D(4,6,7,8)              1.6207         calculate D2E/DX2 analytically  !
 ! D40   D(4,6,7,33)          -177.6429         calculate D2E/DX2 analytically  !
 ! D41   D(15,6,7,8)          -172.6408         calculate D2E/DX2 analytically  !
 ! D42   D(15,6,7,33)            8.0957         calculate D2E/DX2 analytically  !
 ! D43   D(4,6,15,14)           10.3774         calculate D2E/DX2 analytically  !
 ! D44   D(4,6,15,32)         -165.2615         calculate D2E/DX2 analytically  !
 ! D45   D(7,6,15,14)         -175.4138         calculate D2E/DX2 analytically  !
 ! D46   D(7,6,15,32)            8.9474         calculate D2E/DX2 analytically  !
 ! D47   D(6,7,8,9)              2.893          calculate D2E/DX2 analytically  !
 ! D48   D(6,7,8,34)          -179.9749         calculate D2E/DX2 analytically  !
 ! D49   D(33,7,8,9)          -177.8464         calculate D2E/DX2 analytically  !
 ! D50   D(33,7,8,34)           -0.7143         calculate D2E/DX2 analytically  !
 ! D51   D(7,8,9,5)             -4.9704         calculate D2E/DX2 analytically  !
 ! D52   D(7,8,9,12)           168.1143         calculate D2E/DX2 analytically  !
 ! D53   D(34,8,9,5)           177.9215         calculate D2E/DX2 analytically  !
 ! D54   D(34,8,9,12)           -8.9937         calculate D2E/DX2 analytically  !
 ! D55   D(5,9,12,11)            2.8253         calculate D2E/DX2 analytically  !
 ! D56   D(5,9,12,35)         -177.801          calculate D2E/DX2 analytically  !
 ! D57   D(8,9,12,11)         -170.255          calculate D2E/DX2 analytically  !
 ! D58   D(8,9,12,35)            9.1187         calculate D2E/DX2 analytically  !
 ! D59   D(3,10,11,12)          -2.6621         calculate D2E/DX2 analytically  !
 ! D60   D(3,10,11,36)         179.6295         calculate D2E/DX2 analytically  !
 ! D61   D(18,10,11,12)        176.7984         calculate D2E/DX2 analytically  !
 ! D62   D(18,10,11,36)         -0.9101         calculate D2E/DX2 analytically  !
 ! D63   D(3,10,18,17)           2.7563         calculate D2E/DX2 analytically  !
 ! D64   D(3,10,18,37)        -174.8563         calculate D2E/DX2 analytically  !
 ! D65   D(11,10,18,17)       -176.7076         calculate D2E/DX2 analytically  !
 ! D66   D(11,10,18,37)          5.6799         calculate D2E/DX2 analytically  !
 ! D67   D(10,11,12,9)           3.0634         calculate D2E/DX2 analytically  !
 ! D68   D(10,11,12,35)       -176.3161         calculate D2E/DX2 analytically  !
 ! D69   D(36,11,12,9)        -179.2226         calculate D2E/DX2 analytically  !
 ! D70   D(36,11,12,35)          1.3978         calculate D2E/DX2 analytically  !
 ! D71   D(1,13,14,15)          18.2827         calculate D2E/DX2 analytically  !
 ! D72   D(1,13,14,31)         150.4989         calculate D2E/DX2 analytically  !
 ! D73   D(1,13,14,46)         -98.8822         calculate D2E/DX2 analytically  !
 ! D74   D(13,14,15,6)         -25.1018         calculate D2E/DX2 analytically  !
 ! D75   D(13,14,15,32)        150.6341         calculate D2E/DX2 analytically  !
 ! D76   D(31,14,15,6)        -157.7917         calculate D2E/DX2 analytically  !
 ! D77   D(31,14,15,32)         17.9442         calculate D2E/DX2 analytically  !
 ! D78   D(46,14,15,6)          88.3638         calculate D2E/DX2 analytically  !
 ! D79   D(46,14,15,32)        -95.9002         calculate D2E/DX2 analytically  !
 ! D80   D(2,16,17,18)          -9.358          calculate D2E/DX2 analytically  !
 ! D81   D(2,16,17,22)         167.2452         calculate D2E/DX2 analytically  !
 ! D82   D(19,16,17,18)        175.5039         calculate D2E/DX2 analytically  !
 ! D83   D(19,16,17,22)         -7.8929         calculate D2E/DX2 analytically  !
 ! D84   D(2,16,19,20)        -158.0629         calculate D2E/DX2 analytically  !
 ! D85   D(2,16,19,23)          21.6571         calculate D2E/DX2 analytically  !
 ! D86   D(17,16,19,20)         16.5946         calculate D2E/DX2 analytically  !
 ! D87   D(17,16,19,23)       -163.6854         calculate D2E/DX2 analytically  !
 ! D88   D(16,17,18,10)          6.4975         calculate D2E/DX2 analytically  !
 ! D89   D(16,17,18,37)       -175.822          calculate D2E/DX2 analytically  !
 ! D90   D(22,17,18,10)       -170.0752         calculate D2E/DX2 analytically  !
 ! D91   D(22,17,18,37)          7.6054         calculate D2E/DX2 analytically  !
 ! D92   D(16,17,22,21)         -4.2619         calculate D2E/DX2 analytically  !
 ! D93   D(16,17,22,38)       -179.9061         calculate D2E/DX2 analytically  !
 ! D94   D(18,17,22,21)        172.4777         calculate D2E/DX2 analytically  !
 ! D95   D(18,17,22,38)         -3.1665         calculate D2E/DX2 analytically  !
 ! D96   D(16,19,20,21)        -13.7472         calculate D2E/DX2 analytically  !
 ! D97   D(16,19,20,26)        167.6758         calculate D2E/DX2 analytically  !
 ! D98   D(23,19,20,21)        166.5132         calculate D2E/DX2 analytically  !
 ! D99   D(23,19,20,26)        -12.0638         calculate D2E/DX2 analytically  !
 ! D100  D(16,19,23,24)       -167.8733         calculate D2E/DX2 analytically  !
 ! D101  D(16,19,23,30)         17.5746         calculate D2E/DX2 analytically  !
 ! D102  D(20,19,23,24)         11.8441         calculate D2E/DX2 analytically  !
 ! D103  D(20,19,23,30)       -162.708          calculate D2E/DX2 analytically  !
 ! D104  D(19,20,21,22)          1.9632         calculate D2E/DX2 analytically  !
 ! D105  D(19,20,21,39)       -176.0606         calculate D2E/DX2 analytically  !
 ! D106  D(26,20,21,22)       -179.4511         calculate D2E/DX2 analytically  !
 ! D107  D(26,20,21,39)          2.5251         calculate D2E/DX2 analytically  !
 ! D108  D(19,20,26,25)          3.3744         calculate D2E/DX2 analytically  !
 ! D109  D(19,20,26,40)       -176.4826         calculate D2E/DX2 analytically  !
 ! D110  D(21,20,26,25)       -175.2131         calculate D2E/DX2 analytically  !
 ! D111  D(21,20,26,40)          4.9299         calculate D2E/DX2 analytically  !
 ! D112  D(20,21,22,17)          7.4279         calculate D2E/DX2 analytically  !
 ! D113  D(20,21,22,38)       -177.0149         calculate D2E/DX2 analytically  !
 ! D114  D(39,21,22,17)       -174.5932         calculate D2E/DX2 analytically  !
 ! D115  D(39,21,22,38)          0.964          calculate D2E/DX2 analytically  !
 ! D116  D(19,23,24,25)         -3.1668         calculate D2E/DX2 analytically  !
 ! D117  D(19,23,24,27)       -177.936          calculate D2E/DX2 analytically  !
 ! D118  D(30,23,24,25)        171.7572         calculate D2E/DX2 analytically  !
 ! D119  D(30,23,24,27)         -3.0119         calculate D2E/DX2 analytically  !
 ! D120  D(19,23,30,29)        167.3101         calculate D2E/DX2 analytically  !
 ! D121  D(19,23,30,45)         17.6151         calculate D2E/DX2 analytically  !
 ! D122  D(24,23,30,29)         -7.363          calculate D2E/DX2 analytically  !
 ! D123  D(24,23,30,45)       -157.058          calculate D2E/DX2 analytically  !
 ! D124  D(23,24,25,26)         -5.7508         calculate D2E/DX2 analytically  !
 ! D125  D(23,24,25,41)        178.7244         calculate D2E/DX2 analytically  !
 ! D126  D(27,24,25,26)        169.0352         calculate D2E/DX2 analytically  !
 ! D127  D(27,24,25,41)         -6.4897         calculate D2E/DX2 analytically  !
 ! D128  D(23,24,27,28)          8.1053         calculate D2E/DX2 analytically  !
 ! D129  D(23,24,27,42)       -177.3351         calculate D2E/DX2 analytically  !
 ! D130  D(25,24,27,28)       -166.6558         calculate D2E/DX2 analytically  !
 ! D131  D(25,24,27,42)          7.9037         calculate D2E/DX2 analytically  !
 ! D132  D(24,25,26,20)          5.7218         calculate D2E/DX2 analytically  !
 ! D133  D(24,25,26,40)       -174.4242         calculate D2E/DX2 analytically  !
 ! D134  D(41,25,26,20)       -178.8395         calculate D2E/DX2 analytically  !
 ! D135  D(41,25,26,40)          1.0146         calculate D2E/DX2 analytically  !
 ! D136  D(24,27,28,29)         -2.5188         calculate D2E/DX2 analytically  !
 ! D137  D(24,27,28,43)        174.4575         calculate D2E/DX2 analytically  !
 ! D138  D(42,27,28,29)       -176.9772         calculate D2E/DX2 analytically  !
 ! D139  D(42,27,28,43)         -0.0009         calculate D2E/DX2 analytically  !
 ! D140  D(27,28,29,30)         -8.1562         calculate D2E/DX2 analytically  !
 ! D141  D(27,28,29,44)        175.4245         calculate D2E/DX2 analytically  !
 ! D142  D(43,28,29,30)        174.8761         calculate D2E/DX2 analytically  !
 ! D143  D(43,28,29,44)         -1.5432         calculate D2E/DX2 analytically  !
 ! D144  D(28,29,30,23)         13.1878         calculate D2E/DX2 analytically  !
 ! D145  D(28,29,30,45)        162.9822         calculate D2E/DX2 analytically  !
 ! D146  D(44,29,30,23)       -170.3378         calculate D2E/DX2 analytically  !
 ! D147  D(44,29,30,45)        -20.5434         calculate D2E/DX2 analytically  !
 --------------------------------------------------------------------------------
 Trust Radius=3.00D-01 FncErr=1.00D-07 GrdErr=1.00D-06 EigMax=2.50D+02 EigMin=1.00D-04
 Number of steps in this run=    276 maximum allowed number of steps=    276.
 Search for a saddle point of order  1.
 GradGradGradGradGradGradGradGradGradGradGradGradGradGradGradGradGradGrad

                          Input orientation:                          
 ---------------------------------------------------------------------
 Center     Atomic      Atomic             Coordinates (Angstroms)
 Number     Number       Type             X           Y           Z
 ---------------------------------------------------------------------
      1          6           0        0.726535   -0.914039   -0.378356
      2          6           0        0.476880    0.527409   -0.115347
      3          6           0        1.751422    1.126886   -0.083595
      4          6           0        2.141358   -1.075496   -0.457825
      5          6           0        2.756587    0.162822   -0.281325
      6          6           0        2.861955   -2.284686   -0.323241
      7          6           0        4.290213   -2.101128   -0.078203
      8          6           0        4.875303   -0.859688    0.045563
      9          6           0        4.095641    0.359908    0.001259
     10          6           0        2.062658    2.453600    0.224268
     11          6           0        3.476103    2.719020    0.399471
     12          6           0        4.435392    1.722594    0.324224
     13          6           0       -0.081850   -2.000940   -0.524001
     14          6           0        0.641253   -3.341355   -0.726668
     15          6           0        2.090237   -3.434540   -0.340153
     16          6           0       -0.646365    1.349809    0.047484
     17          6           0       -0.365302    2.778669    0.168242
     18          6           0        0.941654    3.293510    0.318515
     19          6           0       -2.030656    0.886828   -0.006073
     20          6           0       -3.025062    1.856125   -0.299567
     21          6           0       -2.712696    3.251481   -0.239513
     22          6           0       -1.462553    3.692366    0.057027
     23          6           0       -2.453319   -0.474805    0.210686
     24          6           0       -3.790756   -0.851807   -0.122529
     25          6           0       -4.703834    0.131820   -0.597782
     26          6           0       -4.347155    1.446925   -0.625988
     27          6           0       -4.241177   -2.173825    0.122786
     28          6           0       -3.467518   -3.075507    0.833438
     29          6           0       -2.201653   -2.698149    1.272614
     30          6           0       -1.632635   -1.479207    0.859377
     31          1           0        0.069485   -4.187697   -0.338574
     32          1           0        2.490887   -4.389641   -0.013265
     33          1           0        4.917189   -2.983387   -0.002395
     34          1           0        5.944082   -0.804263    0.226861
     35          1           0        5.469884    1.982351    0.525618
     36          1           0        3.794016    3.729598    0.634468
     37          1           0        1.055242    4.362349    0.470504
     38          1           0       -1.260844    4.754601    0.144150
     39          1           0       -3.516902    3.960198   -0.407116
     40          1           0       -5.069808    2.207670   -0.901898
     41          1           0       -5.709081   -0.175027   -0.866076
     42          1           0       -5.247707   -2.439642   -0.181986
     43          1           0       -3.866744   -4.051276    1.087455
     44          1           0       -1.614409   -3.365850    1.892715
     45          1           0       -0.796984   -1.118185    1.444494
     46          1           0        0.577755   -3.449391   -1.823689
 ---------------------------------------------------------------------
                    Distance matrix (angstroms):
                    1          2          3          4          5
     1  C    0.000000
     2  C    1.486363   0.000000
     3  C    2.302749   1.408843   0.000000
     4  C    1.426222   2.336040   2.267727   0.000000
     5  C    2.300034   2.314635   1.406724   1.393948   0.000000
     6  C    2.538056   3.693194   3.595767   1.414041   2.450134
     7  C    3.768166   4.631641   4.106770   2.411143   2.742032
     8  C    4.170724   4.614765   3.704294   2.788266   2.375151
     9  C    3.621867   3.624512   2.467958   2.467866   1.382665
    10  C    3.672788   2.517984   1.397075   3.595270   2.446390
    11  C    4.622148   3.750138   2.396407   4.112767   2.741411
    12  C    4.604462   4.158306   2.779367   3.701824   2.370225
    13  C    1.362370   2.621398   3.652142   2.409041   3.577357
    14  C    2.453662   3.920213   4.648784   2.730697   4.117308
    15  C    2.866020   4.283748   4.581182   2.362530   3.659029
    16  C    2.681642   1.401619   2.411692   3.729456   3.618997
    17  C    3.889341   2.420303   2.696726   4.640031   4.097677
    18  C    4.270290   2.838233   2.347696   4.596760   3.668105
    19  C    3.314184   2.535520   3.790482   4.632547   4.849499
    20  C    4.664172   3.750069   4.836655   5.942335   6.024539
    21  C    5.403623   4.196353   4.946369   6.506322   6.281291
    22  C    5.118655   3.715921   4.114741   5.998813   5.511198
    23  C    3.263643   3.113968   4.509087   4.681751   5.271789
    24  C    4.524957   4.484976   5.884937   5.945792   6.627397
    25  C    5.534517   5.218144   6.551708   6.952255   7.467194
    26  C    5.601589   4.937365   6.131008   6.963597   7.227092
    27  C    5.149404   5.441823   6.844599   6.502322   7.388635
    28  C    4.871393   5.425815   6.763016   6.093184   7.104150
    29  C    3.805658   4.416469   5.665421   4.948653   5.931612
    30  C    2.723432   3.070285   4.374101   4.017590   4.823145
    31  H    3.339182   4.737935   5.580208   3.740678   5.113786
    32  H    3.914848   5.314511   5.566312   3.362047   4.568082
    33  H    4.688830   5.661695   5.188740   3.398927   3.826831
    34  H    5.253678   5.637442   4.626458   3.873380   3.369515
    35  H    5.630773   5.240017   3.863926   4.625654   3.365089
    36  H    5.656732   4.671148   3.385545   5.197433   3.825811
    37  H    5.354333   3.922307   3.355579   5.622419   4.593022
    38  H    6.029608   4.577792   4.720798   6.776975   6.115980
    39  H    6.462644   5.274416   5.990623   7.574740   7.334341
    40  H    6.604298   5.848734   6.954631   7.935824   8.112889
    41  H    6.496242   6.270815   7.613564   7.912453   8.492562
    42  H    6.169084   6.448157   7.856056   7.518993   8.417328
    43  H    5.752310   6.424808   7.729716   6.880439   7.968732
    44  H    4.080338   4.854201   5.951411   4.987639   6.023585
    45  H    2.384443   2.600733   3.724214   3.500642   4.152987
    46  H    2.922179   4.329382   5.034653   3.153699   4.491579
                    6          7          8          9         10
     6  C    0.000000
     7  C    1.460705   0.000000
     8  C    2.494034   1.377977   0.000000
     9  C    2.936181   2.469994   1.448189   0.000000
    10  C    4.836321   5.079275   4.349803   2.926824   0.000000
    11  C    5.092795   4.911698   3.858777   2.471398   1.448782
    12  C    4.353528   3.847580   2.634265   1.441059   2.484799
    13  C    2.964254   4.395874   5.118616   4.827104   5.000175
    14  C    2.492152   3.908143   4.968117   5.114882   6.042034
    15  C    1.384918   2.585827   3.812510   4.305351   5.915194
    16  C    5.065106   6.024497   5.947327   4.844446   2.930599
    17  C    6.024476   6.748850   6.380959   5.077234   2.450265
    18  C    5.934280   6.361788   5.726880   4.319063   1.403916
    19  C    5.839241   6.991886   7.123570   6.148920   4.388969
    20  C    7.197489   8.319982   8.361251   7.282415   5.149396
    21  C    7.857028   8.815735   8.634854   7.400853   4.863714
    22  C    7.387227   8.165609   7.803188   6.480888   3.740270
    23  C    5.640291   6.942882   7.340579   6.605262   5.382359
    24  C    6.808230   8.177092   8.667693   7.979902   6.731154
    25  C    7.947077   9.281643   9.651779   8.822791   7.200822
    26  C    8.123290   9.353763   9.530224   8.535564   6.543855
    27  C    7.117985   8.534067   9.211033   8.714190   7.820594
    28  C    6.482710   7.871651   8.667945   8.348411   7.843785
    29  C    5.325207   6.657737   7.414101   7.115052   6.769335
    30  C    4.716855   6.028762   6.587819   6.077159   5.433739
    31  H    3.379286   4.715518   5.858250   6.083266   6.956749
    32  H    2.159771   2.911886   4.260219   5.013348   6.860740
    33  H    2.194336   1.085001   2.124653   3.442757   6.144961
    34  H    3.463202   2.123724   1.085463   2.196116   5.067458
    35  H    5.072422   4.293137   2.942986   2.189935   3.452836
    36  H    6.160970   5.895038   4.751583   3.441910   2.189529
    37  H    6.933781   7.248631   6.484066   5.048143   2.172290
    38  H    8.171137   8.824097   8.317587   6.930056   4.043104
    39  H    8.927230   9.889333   9.688412   8.430876   5.813774
    40  H    9.133946  10.337031  10.450435   9.393369   7.225012
    41  H    8.843528  10.213544  10.645611   9.857535   8.276379
    42  H    8.112372   9.544490  10.248091   9.755471   8.806265
    43  H    7.098330   8.467454   9.364569   9.167221   8.843999
    44  H    5.110500   6.352055   7.197859   7.075560   7.083116
    45  H    4.227700   5.400403   5.847963   5.310882   4.735415
    46  H    2.970766   4.318203   5.354399   5.496973   6.422178
                   11         12         13         14         15
    11  C    0.000000
    12  C    1.385194   0.000000
    13  C    5.982462   5.915206   0.000000
    14  C    6.784741   6.414316   1.536445   0.000000
    15  C    6.350903   5.704137   2.609017   1.502542   0.000000
    16  C    4.358139   5.102922   3.445692   4.925880   5.525328
    17  C    3.848820   4.917956   4.837790   6.266475   6.700157
    18  C    2.600005   3.830668   5.457893   6.723398   6.857094
    19  C    5.817713   6.528199   3.522116   5.053304   5.980601
    20  C    6.595331   7.487678   4.856935   6.374800   7.359284
    21  C    6.244441   7.331470   5.881344   7.412947   8.232932
    22  C    5.045294   6.223918   5.887076   7.383320   7.973259
    23  C    6.737522   7.231583   2.914227   4.321125   5.450445
    24  C    8.113601   8.631144   3.903546   5.119134   6.426815
    25  C    8.637099   9.322345   5.090859   6.375697   7.677545
    26  C    7.992068   8.838101   5.485527   6.915344   8.083961
    27  C    9.141821   9.513438   4.212864   5.091446   6.472288
    28  C    9.054211   9.259431   3.802642   4.403022   5.691648
    29  C    7.895886   8.030740   2.864872   3.534538   4.643663
    30  C    6.628411   6.881778   2.142633   3.339716   4.372868
    31  H    7.736440   7.377804   2.199816   1.092625   2.156545
    32  H    7.188467   6.422960   3.547636   2.242542   1.086091
    33  H    5.895394   4.741842   5.121295   4.351591   2.882582
    34  H    4.305141   2.944594   6.189320   5.955338   4.700211
    35  H    2.129262   1.085452   6.913035   7.295598   6.443158
    36  H    1.085154   2.129713   7.014517   7.860724   7.428164
    37  H    2.926798   4.291284   6.540143   7.807155   7.906950
    38  H    5.162116   6.455432   6.890122   8.361866   8.861508
    39  H    7.147952   8.293414   6.881018   8.408629   9.280444
    40  H    8.659540   9.596223   6.537196   7.964835   9.133254
    41  H    9.713121  10.388846   5.925935   7.097310   8.469379
    42  H   10.151588  10.551913   5.195721   5.982442   7.406771
    43  H   10.011375  10.141280   4.596313   4.910913   6.156627
    44  H    8.072715   8.059313   3.170526   3.456845   4.326063
    45  H    5.837421   6.058283   2.272806   3.424172   4.109320
    46  H    7.168832   6.800318   2.054818   1.104155   2.118656
                   16         17         18         19         20
    16  C    0.000000
    17  C    1.461239   0.000000
    18  C    2.524527   1.412720   0.000000
    19  C    1.460644   2.526431   3.838242   0.000000
    20  C    2.456624   2.853814   4.264145   1.419337   0.000000
    21  C    2.822844   2.429007   3.696950   2.472096   1.431152
    22  C    2.480691   1.432191   2.451056   2.863174   2.437288
    23  C    2.573118   3.866097   5.073230   1.442107   2.453667
    24  C    3.842293   4.999864   6.306653   2.476765   2.819668
    25  C    4.285198   5.139597   6.535091   2.840077   2.424961
    26  C    3.762824   4.273113   5.680974   2.462554   1.421944
    27  C    5.034316   6.289012   7.536033   3.777645   4.230581
    28  C    5.306604   6.658649   7.763396   4.297610   5.079416
    29  C    4.506199   5.881102   6.833057   3.810032   4.887859
    30  C    3.104067   4.495921   5.449617   2.550597   3.795582
    31  H    5.596915   6.998297   7.560483   5.501995   6.790105
    32  H    6.541202   7.718512   7.844808   6.948779   8.337701
    33  H    7.052107   7.818895   7.436888   7.953058   9.305296
    34  H    6.935863   7.255974   6.467181   8.155397   9.370183
    35  H    6.167432   5.900105   4.718781   7.598748   8.535864
    36  H    5.071975   4.292034   2.902752   6.512944   7.133172
    37  H    3.485658   2.148802   1.085550   4.672166   4.850057
    38  H    3.461147   2.169535   2.648809   3.946498   3.422063
    39  H    3.906504   3.414620   4.566151   3.437349   2.163469
    40  H    4.604791   4.858355   6.229457   3.432721   2.160410
    41  H    5.365707   6.192746   7.593832   3.924022   3.413278
    42  H    5.965312   7.154810   8.451492   4.630957   4.838139
    43  H    6.373704   7.730019   8.812369   5.380696   6.126144
    44  H    5.155524   6.503014   7.304700   4.675888   5.836529
    45  H    2.839950   4.123183   4.873781   2.765171   4.105192
    46  H    5.294533   6.606503   7.084361   5.376833   6.591793
                   21         22         23         24         25
    21  C    0.000000
    22  C    1.358371   0.000000
    23  C    3.762335   4.286087   0.000000
    24  C    4.244157   5.109039   1.428951   0.000000
    25  C    3.718235   4.859235   2.467070   1.423762   0.000000
    26  C    2.465206   3.718796   2.824834   2.418102   1.362907
    27  C    5.648138   6.491323   2.467961   1.418023   2.459526
    28  C    6.461560   7.101183   2.860082   2.441966   3.723414
    29  C    6.160015   6.546954   2.476749   2.807250   4.215212
    30  C    4.975289   5.236207   1.450223   2.452602   3.761779
    31  H    7.943029   8.037352   4.522366   5.106496   6.442825
    32  H    9.247443   8.997414   6.310409   7.210218   8.517587
    33  H    9.856214   9.234193   7.788631   8.965845  10.130305
    34  H    9.571122   8.666416   8.403877   9.741222  10.720746
    35  H    8.315692   7.155586   8.301442   9.706287  10.401492
    36  H    6.582533   5.288321   7.542267   8.893317   9.309989
    37  H    3.991930   2.638017   5.981268   7.143025   7.225342
    38  H    2.124721   1.084721   5.364057   6.156572   5.811605
    39  H    1.084951   2.123090   4.602406   4.828186   4.012685
    40  H    2.661630   4.016982   3.908904   3.406434   2.129689
    41  H    4.594765   5.817375   3.442277   2.165840   1.084739
    42  H    6.230447   7.210135   3.438514   2.155797   2.661034
    43  H    7.511520   8.173488   3.944317   3.421467   4.586833
    44  H    7.038587   7.294602   3.448352   3.888201   5.289690
    45  H    5.059626   5.050688   2.163253   3.389571   4.582235
    46  H    7.631407   7.661895   4.708955   5.359597   6.497931
                   26         27         28         29         30
    26  C    0.000000
    27  C    3.698882   0.000000
    28  C    4.832813   1.384415   0.000000
    29  C    5.038800   2.399308   1.392009   0.000000
    30  C    4.258776   2.798134   2.432209   1.407255   0.000000
    31  H    7.165074   4.780203   3.888569   3.157966   3.415877
    32  H    9.011090   7.088655   6.160069   5.151171   5.122066
    33  H   10.288081   9.194930   8.426768   7.237743   6.775353
    34  H   10.569047  10.277453   9.700758   8.428132   7.632972
    35  H    9.898845  10.570751  10.273940   9.017625   7.908195
    36  H    8.548568   9.983814   9.953839   8.813127   7.525342
    37  H    6.236015   8.419889   8.712565   7.816737   6.442025
    38  H    4.589025   7.542276   8.164259   7.596186   6.285709
    39  H    2.655893   6.199323   7.144407   6.991778   5.894200
    40  H    1.084936   4.575380   5.787114   6.084560   5.339411
    41  H    2.131481   2.669791   4.040512   4.821016   4.614703
    42  H    4.014167   1.084734   2.145806   3.385429   3.882733
    43  H    5.779005   2.143737   1.084450   2.153547   3.414499
    44  H    6.080672   3.384299   2.154154   1.084069   2.151172
    45  H    4.844626   3.837154   3.366935   2.121067   1.082133
    46  H    7.047208   5.351443   4.854312   4.228069   3.995784
                   31         32         33         34         35
    31  H    0.000000
    32  H    2.451488   0.000000
    33  H    5.006357   2.804391   0.000000
    34  H    6.802811   4.983689   2.419845   0.000000
    35  H    8.245037   7.054580   5.024224   2.842417   0.000000
    36  H    8.803551   8.248621   6.836028   5.034364   2.423480
    37  H    8.644629   8.882142   8.312527   7.117162   5.015625
    38  H    9.053590   9.885213   9.902829   9.100482   7.289279
    39  H    8.902531  10.294098  10.932112  10.611891   9.249010
    40  H    8.223770  10.073643  11.291425  11.473954  10.638312
    41  H    7.054899   9.259035  11.024992  11.721205  11.469976
    42  H    5.599352   7.982280  10.181013  11.318028  11.615571
    43  H    4.188803   6.461079   8.915472  10.369958  11.130720
    44  H    2.913689   4.640513   6.811717   8.152765   8.981059
    45  H    3.654039   4.861850   6.182575   6.857343   7.052042
    46  H    1.734647   2.796744   4.729160   6.324470   7.678280
                   36         37         38         39         40
    36  H    0.000000
    37  H    2.815695   0.000000
    38  H    5.180990   2.371629   0.000000
    39  H    7.388342   4.672948   2.454540   0.000000
    40  H    9.123818   6.636442   4.699923   2.393257   0.000000
    41  H   10.382995   8.254108   6.716294   4.702805   2.467225
    42  H   10.976287   9.296235   8.231560   6.633575   4.706106
    43  H   10.928607   9.767070   9.231685   8.157196   6.676773
    44  H    9.009974   8.299083   8.314097   7.910732   7.128378
    45  H    6.725654   5.866485   6.032883   6.051148   5.901177
    46  H    8.241648   8.155648   8.634716   8.583409   8.046552
                   41         42         43         44         45
    41  H    0.000000
    42  H    2.410254   0.000000
    43  H    4.715485   2.473035   0.000000
    44  H    5.878658   4.285219   2.488225   0.000000
    45  H    5.509717   4.919413   4.260742   2.433328   0.000000
    46  H    7.152817   6.136024   5.347018   4.315579   4.243283
                   46
    46  H    0.000000
 Stoichiometry    C30H16
 Framework group  C1[X(C30H16)]
 Deg. of freedom   132
 Full point group                 C1      NOp   1
 Largest Abelian subgroup         C1      NOp   1
 Largest concise Abelian subgroup C1      NOp   1
                         Standard orientation:                         
 ---------------------------------------------------------------------
 Center     Atomic      Atomic             Coordinates (Angstroms)
 Number     Number       Type             X           Y           Z
 ---------------------------------------------------------------------
      1          6           0        0.726535   -0.914039   -0.378356
      2          6           0        0.476880    0.527409   -0.115347
      3          6           0        1.751422    1.126886   -0.083595
      4          6           0        2.141358   -1.075496   -0.457825
      5          6           0        2.756587    0.162822   -0.281325
      6          6           0        2.861955   -2.284686   -0.323241
      7          6           0        4.290213   -2.101128   -0.078203
      8          6           0        4.875303   -0.859688    0.045563
      9          6           0        4.095641    0.359908    0.001259
     10          6           0        2.062658    2.453600    0.224268
     11          6           0        3.476103    2.719020    0.399471
     12          6           0        4.435392    1.722594    0.324224
     13          6           0       -0.081850   -2.000940   -0.524001
     14          6           0        0.641253   -3.341355   -0.726668
     15          6           0        2.090237   -3.434540   -0.340153
     16          6           0       -0.646365    1.349809    0.047484
     17          6           0       -0.365302    2.778669    0.168242
     18          6           0        0.941654    3.293510    0.318515
     19          6           0       -2.030656    0.886828   -0.006073
     20          6           0       -3.025062    1.856125   -0.299567
     21          6           0       -2.712696    3.251481   -0.239513
     22          6           0       -1.462553    3.692366    0.057027
     23          6           0       -2.453319   -0.474805    0.210686
     24          6           0       -3.790756   -0.851807   -0.122529
     25          6           0       -4.703834    0.131820   -0.597782
     26          6           0       -4.347155    1.446925   -0.625988
     27          6           0       -4.241177   -2.173825    0.122786
     28          6           0       -3.467518   -3.075507    0.833438
     29          6           0       -2.201653   -2.698149    1.272614
     30          6           0       -1.632635   -1.479207    0.859377
     31          1           0        0.069485   -4.187697   -0.338574
     32          1           0        2.490887   -4.389641   -0.013265
     33          1           0        4.917189   -2.983387   -0.002395
     34          1           0        5.944082   -0.804263    0.226861
     35          1           0        5.469884    1.982351    0.525618
     36          1           0        3.794016    3.729598    0.634468
     37          1           0        1.055242    4.362349    0.470504
     38          1           0       -1.260844    4.754601    0.144150
     39          1           0       -3.516902    3.960198   -0.407116
     40          1           0       -5.069808    2.207670   -0.901898
     41          1           0       -5.709081   -0.175027   -0.866076
     42          1           0       -5.247707   -2.439642   -0.181986
     43          1           0       -3.866744   -4.051276    1.087455
     44          1           0       -1.614409   -3.365850    1.892715
     45          1           0       -0.796984   -1.118185    1.444494
     46          1           0        0.577755   -3.449391   -1.823689
 ---------------------------------------------------------------------
 Rotational constants (GHZ):           0.2725038           0.1540350           0.1017604
 Standard basis: 6-311+G(d,p) (5D, 7F)
 There are   786 symmetry adapted cartesian basis functions of A   symmetry.
 There are   756 symmetry adapted basis functions of A   symmetry.
   756 basis functions,  1208 primitive gaussians,   786 cartesian basis functions
    98 alpha electrons       98 beta electrons
       nuclear repulsion energy      2611.4758757682 Hartrees.
 NAtoms=   46 NActive=   46 NUniq=   46 SFac= 1.00D+00 NAtFMM=   60 NAOKFM=F Big=F
 Integral buffers will be    131072 words long.
 Raffenetti 2 integral format.
 Two-electron integral symmetry is turned on.
 One-electron integrals computed using PRISM.
 NBasis=   756 RedAO= T EigKep=  1.15D-06  NBF=   756
 NBsUse=   737 1.00D-06 EigRej=  8.23D-07 NBFU=   737
 ExpMin= 4.38D-02 ExpMax= 4.56D+03 ExpMxC= 6.82D+02 IAcc=2 IRadAn=         4 AccDes= 0.00D+00
 Harris functional with IExCor=  402 and IRadAn=       4 diagonalized for initial guess.
 HarFok:  IExCor=  402 AccDes= 0.00D+00 IRadAn=         4 IDoV= 1 UseB2=F ITyADJ=14
 ICtDFT=  3500011 ScaDFX=  1.000000  1.000000  1.000000  1.000000
 FoFCou: FMM=F IPFlag=           0 FMFlag=      100000 FMFlg1=           0
         NFxFlg=           0 DoJE=T BraDBF=F KetDBF=T FulRan=T
         wScrn=  0.000000 ICntrl=       500 IOpCl=  0 I1Cent=   200000004 NGrid=           0
         NMat0=    1 NMatS0=      1 NMatT0=    0 NMatD0=    1 NMtDS0=    0 NMtDT0=    0
 Petite list used in FoFCou.
 Requested convergence on RMS density matrix=1.00D-08 within 128 cycles.
 Requested convergence on MAX density matrix=1.00D-06.
 Requested convergence on             energy=1.00D-06.
 No special actions if energy rises.
 SCF Done:  E(RB3LYP) =  -1152.98194812     A.U. after   19 cycles
            NFock= 19  Conv=0.86D-08     -V/T= 2.0045
 DoSCS=F DFT=T ScalE2(SS,OS)=  1.000000  1.000000
 Range of M.O.s used for correlation:     1   737
 NBasis=   756 NAE=    98 NBE=    98 NFC=     0 NFV=     0
 NROrb=    737 NOA=    98 NOB=    98 NVA=   639 NVB=   639

 **** Warning!!: The largest alpha MO coefficient is  0.13161529D+03


 **** Warning!!: The smallest alpha delta epsilon is  0.50776105D-01

 Symmetrizing basis deriv contribution to polar:
 IMax=3 JMax=2 DiffMx= 0.00D+00
 G2DrvN: will do    47 centers at a time, making    1 passes.
 Calling FoFCou, ICntrl=  3107 FMM=F I1Cent=   0 AccDes= 0.00D+00.
 End of G2Drv F.D. properties file   721 does not exist.
 End of G2Drv F.D. properties file   722 does not exist.
 End of G2Drv F.D. properties file   788 does not exist.
          IDoAtm=1111111111111111111111111111111111111111111111
          Differentiating once with respect to nuclear coordinates.
 CalDSu exits because no D1Ps are significant.
          There are   141 degrees of freedom in the 1st order CPHF.  IDoFFX=6 NUNeed=     0.
    135 vectors produced by pass  0 Test12= 6.26D-14 1.00D-09 XBig12= 3.45D-01 1.35D-01.
 AX will form   135 AO Fock derivatives at one time.
    135 vectors produced by pass  1 Test12= 6.26D-14 1.00D-09 XBig12= 2.07D-01 9.94D-02.
    135 vectors produced by pass  2 Test12= 6.26D-14 1.00D-09 XBig12= 2.01D-03 9.66D-03.
    135 vectors produced by pass  3 Test12= 6.26D-14 1.00D-09 XBig12= 9.57D-06 3.74D-04.
    135 vectors produced by pass  4 Test12= 6.26D-14 1.00D-09 XBig12= 2.72D-08 1.29D-05.
    135 vectors produced by pass  5 Test12= 6.26D-14 1.00D-09 XBig12= 1.15D-10 7.93D-07.
    112 vectors produced by pass  6 Test12= 6.26D-14 1.00D-09 XBig12= 2.61D-11 3.98D-07.
     83 vectors produced by pass  7 Test12= 6.26D-14 1.00D-09 XBig12= 3.22D-12 1.15D-07.
     53 vectors produced by pass  8 Test12= 6.26D-14 1.00D-09 XBig12= 2.46D-13 2.78D-08.
      9 vectors produced by pass  9 Test12= 6.26D-14 1.00D-09 XBig12= 2.80D-15 3.45D-09.
      3 vectors produced by pass 10 Test12= 6.26D-14 1.00D-09 XBig12= 4.65D-16 1.33D-09.
 InvSVY:  IOpt=1 It=  1 EMax= 8.88D-16
 Solved reduced A of dimension  1070 with   141 vectors.
 End of Minotr F.D. properties file   721 does not exist.
 End of Minotr F.D. properties file   722 does not exist.
 End of Minotr F.D. properties file   788 does not exist.

 **********************************************************************

            Population analysis using the SCF Density.

 **********************************************************************

 Orbital symmetries:
       Occupied  (A) (A) (A) (A) (A) (A) (A) (A) (A) (A) (A) (A)
                 (A) (A) (A) (A) (A) (A) (A) (A) (A) (A) (A) (A)
                 (A) (A) (A) (A) (A) (A) (A) (A) (A) (A) (A) (A)
                 (A) (A) (A) (A) (A) (A) (A) (A) (A) (A) (A) (A)
                 (A) (A) (A) (A) (A) (A) (A) (A) (A) (A) (A) (A)
                 (A) (A) (A) (A) (A) (A) (A) (A) (A) (A) (A) (A)
                 (A) (A) (A) (A) (A) (A) (A) (A) (A) (A) (A) (A)
                 (A) (A) (A) (A) (A) (A) (A) (A) (A) (A) (A) (A)
                 (A) (A)
       Virtual   (A) (A) (A) (A) (A) (A) (A) (A) (A) (A) (A) (A)
                 (A) (A) (A) (A) (A) (A) (A) (A) (A) (A) (A) (A)
                 (A) (A) (A) (A) (A) (A) (A) (A) (A) (A) (A) (A)
                 (A) (A) (A) (A) (A) (A) (A) (A) (A) (A) (A) (A)
                 (A) (A) (A) (A) (A) (A) (A) (A) (A) (A) (A) (A)
                 (A) (A) (A) (A) (A) (A) (A) (A) (A) (A) (A) (A)
                 (A) (A) (A) (A) (A) (A) (A) (A) (A) (A) (A) (A)
                 (A) (A) (A) (A) (A) (A) (A) (A) (A) (A) (A) (A)
                 (A) (A) (A) (A) (A) (A) (A) (A) (A) (A) (A) (A)
                 (A) (A) (A) (A) (A) (A) (A) (A) (A) (A) (A) (A)
                 (A) (A) (A) (A) (A) (A) (A) (A) (A) (A) (A) (A)
                 (A) (A) (A) (A) (A) (A) (A) (A) (A) (A) (A) (A)
                 (A) (A) (A) (A) (A) (A) (A) (A) (A) (A) (A) (A)
                 (A) (A) (A) (A) (A) (A) (A) (A) (A) (A) (A) (A)
                 (A) (A) (A) (A) (A) (A) (A) (A) (A) (A) (A) (A)
                 (A) (A) (A) (A) (A) (A) (A) (A) (A) (A) (A) (A)
                 (A) (A) (A) (A) (A) (A) (A) (A) (A) (A) (A) (A)
                 (A) (A) (A) (A) (A) (A) (A) (A) (A) (A) (A) (A)
                 (A) (A) (A) (A) (A) (A) (A) (A) (A) (A) (A) (A)
                 (A) (A) (A) (A) (A) (A) (A) (A) (A) (A) (A) (A)
                 (A) (A) (A) (A) (A) (A) (A) (A) (A) (A) (A) (A)
                 (A) (A) (A) (A) (A) (A) (A) (A) (A) (A) (A) (A)
                 (A) (A) (A) (A) (A) (A) (A) (A) (A) (A) (A) (A)
                 (A) (A) (A) (A) (A) (A) (A) (A) (A) (A) (A) (A)
                 (A) (A) (A) (A) (A) (A) (A) (A) (A) (A) (A) (A)
                 (A) (A) (A) (A) (A) (A) (A) (A) (A) (A) (A) (A)
                 (A) (A) (A) (A) (A) (A) (A) (A) (A) (A) (A) (A)
                 (A) (A) (A) (A) (A) (A) (A) (A) (A) (A) (A) (A)
                 (A) (A) (A) (A) (A) (A) (A) (A) (A) (A) (A) (A)
                 (A) (A) (A) (A) (A) (A) (A) (A) (A) (A) (A) (A)
                 (A) (A) (A) (A) (A) (A) (A) (A) (A) (A) (A) (A)
                 (A) (A) (A) (A) (A) (A) (A) (A) (A) (A) (A) (A)
                 (A) (A) (A) (A) (A) (A) (A) (A) (A) (A) (A) (A)
                 (A) (A) (A) (A) (A) (A) (A) (A) (A) (A) (A) (A)
                 (A) (A) (A) (A) (A) (A) (A) (A) (A) (A) (A) (A)
                 (A) (A) (A) (A) (A) (A) (A) (A) (A) (A) (A) (A)
                 (A) (A) (A) (A) (A) (A) (A) (A) (A) (A) (A) (A)
                 (A) (A) (A) (A) (A) (A) (A) (A) (A) (A) (A) (A)
                 (A) (A) (A) (A) (A) (A) (A) (A) (A) (A) (A) (A)
                 (A) (A) (A) (A) (A) (A) (A) (A) (A) (A) (A) (A)
                 (A) (A) (A) (A) (A) (A) (A) (A) (A) (A) (A) (A)
                 (A) (A) (A) (A) (A) (A) (A) (A) (A) (A) (A) (A)
                 (A) (A) (A) (A) (A) (A) (A) (A) (A) (A) (A) (A)
                 (A) (A) (A) (A) (A) (A) (A) (A) (A) (A) (A) (A)
                 (A) (A) (A) (A) (A) (A) (A) (A) (A) (A) (A) (A)
                 (A) (A) (A) (A) (A) (A) (A) (A) (A) (A) (A) (A)
                 (A) (A) (A) (A) (A) (A) (A) (A) (A) (A) (A) (A)
                 (A) (A) (A) (A) (A) (A) (A) (A) (A) (A) (A) (A)
                 (A) (A) (A) (A) (A) (A) (A) (A) (A) (A) (A) (A)
                 (A) (A) (A) (A) (A) (A) (A) (A) (A) (A) (A) (A)
                 (A) (A) (A) (A) (A) (A) (A) (A) (A) (A) (A) (A)
                 (A) (A) (A) (A) (A) (A) (A) (A) (A) (A) (A) (A)
                 (A) (A) (A) (A) (A) (A) (A) (A) (A) (A) (A) (A)
                 (A) (A) (A)
 The electronic state is 1-A.
 Alpha  occ. eigenvalues --  -10.20314 -10.19814 -10.19713 -10.19675 -10.19647
 Alpha  occ. eigenvalues --  -10.19621 -10.19577 -10.19521 -10.19512 -10.19221
 Alpha  occ. eigenvalues --  -10.19168 -10.19138 -10.19125 -10.19084 -10.18989
 Alpha  occ. eigenvalues --  -10.18905 -10.18895 -10.18844 -10.18586 -10.18381
 Alpha  occ. eigenvalues --  -10.17938 -10.17932 -10.17892 -10.17870 -10.17849
 Alpha  occ. eigenvalues --  -10.17823 -10.17774 -10.17673 -10.17472 -10.17206
 Alpha  occ. eigenvalues --   -0.92069  -0.89033  -0.86969  -0.85178  -0.84252
 Alpha  occ. eigenvalues --   -0.82089  -0.80715  -0.79172  -0.78663  -0.75817
 Alpha  occ. eigenvalues --   -0.74674  -0.74505  -0.72849  -0.72030  -0.71097
 Alpha  occ. eigenvalues --   -0.66350  -0.65007  -0.63543  -0.62873  -0.61972
 Alpha  occ. eigenvalues --   -0.61066  -0.59882  -0.58637  -0.56417  -0.54230
 Alpha  occ. eigenvalues --   -0.53144  -0.51836  -0.51564  -0.50228  -0.49830
 Alpha  occ. eigenvalues --   -0.49032  -0.47363  -0.47027  -0.45797  -0.45262
 Alpha  occ. eigenvalues --   -0.44651  -0.44033  -0.43756  -0.43188  -0.42969
 Alpha  occ. eigenvalues --   -0.42646  -0.42261  -0.41452  -0.40919  -0.40536
 Alpha  occ. eigenvalues --   -0.40313  -0.39860  -0.39490  -0.38210  -0.37454
 Alpha  occ. eigenvalues --   -0.36565  -0.35930  -0.35607  -0.35134  -0.34322
 Alpha  occ. eigenvalues --   -0.34072  -0.33436  -0.33081  -0.32443  -0.30375
 Alpha  occ. eigenvalues --   -0.29098  -0.28366  -0.25830  -0.25208  -0.23845
 Alpha  occ. eigenvalues --   -0.22463  -0.21116  -0.16544
 Alpha virt. eigenvalues --   -0.11466  -0.08118  -0.05523  -0.03634  -0.01899
 Alpha virt. eigenvalues --   -0.00791  -0.00250   0.00536   0.00633   0.00783
 Alpha virt. eigenvalues --    0.01237   0.01602   0.01724   0.02603   0.02757
 Alpha virt. eigenvalues --    0.03016   0.03212   0.03319   0.04159   0.04639
 Alpha virt. eigenvalues --    0.04707   0.04790   0.05206   0.05520   0.05910
 Alpha virt. eigenvalues --    0.06458   0.06857   0.07044   0.07354   0.07614
 Alpha virt. eigenvalues --    0.07935   0.08424   0.08597   0.08894   0.09193
 Alpha virt. eigenvalues --    0.09525   0.10037   0.10175   0.10526   0.10675
 Alpha virt. eigenvalues --    0.11350   0.11722   0.11741   0.12331   0.12537
 Alpha virt. eigenvalues --    0.13021   0.13147   0.13596   0.13760   0.14019
 Alpha virt. eigenvalues --    0.14921   0.15142   0.15293   0.15364   0.15762
 Alpha virt. eigenvalues --    0.15896   0.16250   0.16385   0.16572   0.16769
 Alpha virt. eigenvalues --    0.17126   0.17225   0.17368   0.17595   0.17706
 Alpha virt. eigenvalues --    0.17914   0.18239   0.18333   0.18588   0.18895
 Alpha virt. eigenvalues --    0.18989   0.19334   0.19507   0.19541   0.19840
 Alpha virt. eigenvalues --    0.20002   0.20240   0.20405   0.20637   0.20987
 Alpha virt. eigenvalues --    0.21113   0.21303   0.21612   0.22031   0.22193
 Alpha virt. eigenvalues --    0.22361   0.22613   0.22661   0.22824   0.23217
 Alpha virt. eigenvalues --    0.23289   0.23335   0.23719   0.23839   0.24261
 Alpha virt. eigenvalues --    0.24464   0.24712   0.24881   0.25124   0.25362
 Alpha virt. eigenvalues --    0.25495   0.25546   0.25931   0.26413   0.26492
 Alpha virt. eigenvalues --    0.26911   0.27115   0.27376   0.27609   0.27978
 Alpha virt. eigenvalues --    0.28087   0.28273   0.28541   0.28840   0.28987
 Alpha virt. eigenvalues --    0.29165   0.29407   0.29618   0.29848   0.30194
 Alpha virt. eigenvalues --    0.30480   0.30708   0.30894   0.31272   0.31449
 Alpha virt. eigenvalues --    0.31850   0.32249   0.32306   0.32826   0.33196
 Alpha virt. eigenvalues --    0.33353   0.33625   0.33922   0.34026   0.34557
 Alpha virt. eigenvalues --    0.34773   0.35251   0.35841   0.36580   0.36847
 Alpha virt. eigenvalues --    0.37430   0.37713   0.38060   0.38731   0.39012
 Alpha virt. eigenvalues --    0.39359   0.39588   0.40361   0.40632   0.41577
 Alpha virt. eigenvalues --    0.41801   0.42349   0.42985   0.43707   0.44463
 Alpha virt. eigenvalues --    0.44883   0.46110   0.46309   0.47243   0.47793
 Alpha virt. eigenvalues --    0.48243   0.48740   0.49282   0.50414   0.51169
 Alpha virt. eigenvalues --    0.51879   0.51948   0.52483   0.53038   0.53375
 Alpha virt. eigenvalues --    0.53450   0.54217   0.54520   0.55065   0.55543
 Alpha virt. eigenvalues --    0.55855   0.56053   0.56295   0.56955   0.57578
 Alpha virt. eigenvalues --    0.57915   0.58188   0.58532   0.58761   0.58860
 Alpha virt. eigenvalues --    0.59351   0.59876   0.59992   0.60214   0.60587
 Alpha virt. eigenvalues --    0.61449   0.61617   0.61835   0.62418   0.63213
 Alpha virt. eigenvalues --    0.63325   0.63498   0.64375   0.65006   0.65203
 Alpha virt. eigenvalues --    0.65608   0.66290   0.66569   0.67123   0.67560
 Alpha virt. eigenvalues --    0.67834   0.68441   0.68933   0.68977   0.69459
 Alpha virt. eigenvalues --    0.69626   0.69708   0.70088   0.70762   0.71203
 Alpha virt. eigenvalues --    0.71264   0.71658   0.72130   0.72234   0.72553
 Alpha virt. eigenvalues --    0.73071   0.73098   0.73783   0.74064   0.74326
 Alpha virt. eigenvalues --    0.74956   0.75017   0.75557   0.75799   0.76012
 Alpha virt. eigenvalues --    0.76175   0.76528   0.77129   0.77427   0.78081
 Alpha virt. eigenvalues --    0.78779   0.79134   0.79485   0.79836   0.80672
 Alpha virt. eigenvalues --    0.82242   0.82577   0.82897   0.83268   0.83550
 Alpha virt. eigenvalues --    0.84426   0.85374   0.85509   0.86165   0.86837
 Alpha virt. eigenvalues --    0.87357   0.87602   0.88765   0.88995   0.89333
 Alpha virt. eigenvalues --    0.90031   0.90373   0.90714   0.91082   0.91356
 Alpha virt. eigenvalues --    0.91952   0.92549   0.92866   0.93536   0.93859
 Alpha virt. eigenvalues --    0.94188   0.94665   0.94905   0.95055   0.95825
 Alpha virt. eigenvalues --    0.96410   0.96574   0.96817   0.97030   0.97502
 Alpha virt. eigenvalues --    0.98306   0.98995   0.99415   0.99907   1.00330
 Alpha virt. eigenvalues --    1.00948   1.01151   1.02617   1.02914   1.03599
 Alpha virt. eigenvalues --    1.04072   1.04585   1.05284   1.05607   1.06076
 Alpha virt. eigenvalues --    1.06707   1.07654   1.08264   1.09160   1.09818
 Alpha virt. eigenvalues --    1.10165   1.10810   1.12047   1.12406   1.12976
 Alpha virt. eigenvalues --    1.13745   1.15007   1.15514   1.15722   1.16067
 Alpha virt. eigenvalues --    1.17222   1.18917   1.19397   1.21245   1.22304
 Alpha virt. eigenvalues --    1.23108   1.23671   1.24209   1.25872   1.26570
 Alpha virt. eigenvalues --    1.28804   1.29586   1.30220   1.31591   1.33047
 Alpha virt. eigenvalues --    1.34280   1.35551   1.36852   1.37286   1.38369
 Alpha virt. eigenvalues --    1.39694   1.40765   1.42560   1.43003   1.44349
 Alpha virt. eigenvalues --    1.44798   1.45766   1.46283   1.47855   1.48189
 Alpha virt. eigenvalues --    1.48515   1.48807   1.49283   1.50398   1.50509
 Alpha virt. eigenvalues --    1.51075   1.51535   1.52067   1.52691   1.53387
 Alpha virt. eigenvalues --    1.54431   1.54671   1.55464   1.56193   1.56518
 Alpha virt. eigenvalues --    1.56590   1.57478   1.57509   1.58744   1.59057
 Alpha virt. eigenvalues --    1.59679   1.61163   1.61399   1.62370   1.62895
 Alpha virt. eigenvalues --    1.64153   1.65153   1.65878   1.66295   1.66414
 Alpha virt. eigenvalues --    1.66963   1.67811   1.69092   1.70308   1.70909
 Alpha virt. eigenvalues --    1.71313   1.71943   1.72270   1.73414   1.74017
 Alpha virt. eigenvalues --    1.74330   1.74786   1.75604   1.75887   1.76679
 Alpha virt. eigenvalues --    1.77349   1.77693   1.79125   1.79540   1.80007
 Alpha virt. eigenvalues --    1.80535   1.82263   1.82468   1.83503   1.84060
 Alpha virt. eigenvalues --    1.84500   1.84713   1.85723   1.86647   1.87037
 Alpha virt. eigenvalues --    1.87249   1.87443   1.88394   1.88922   1.88987
 Alpha virt. eigenvalues --    1.89442   1.89582   1.90723   1.91723   1.91873
 Alpha virt. eigenvalues --    1.92849   1.93315   1.94142   1.95093   1.95319
 Alpha virt. eigenvalues --    1.96017   1.96461   1.97003   1.98621   1.98960
 Alpha virt. eigenvalues --    1.99379   1.99748   2.01536   2.02449   2.02853
 Alpha virt. eigenvalues --    2.03056   2.04323   2.04648   2.05643   2.06262
 Alpha virt. eigenvalues --    2.07169   2.07976   2.08308   2.08581   2.08787
 Alpha virt. eigenvalues --    2.09831   2.11741   2.12217   2.13570   2.14033
 Alpha virt. eigenvalues --    2.14813   2.15585   2.15956   2.16626   2.18256
 Alpha virt. eigenvalues --    2.18823   2.20854   2.21738   2.22700   2.23797
 Alpha virt. eigenvalues --    2.24034   2.24812   2.24843   2.26321   2.27602
 Alpha virt. eigenvalues --    2.28384   2.30198   2.31619   2.33749   2.34078
 Alpha virt. eigenvalues --    2.36101   2.36935   2.37431   2.38317   2.39831
 Alpha virt. eigenvalues --    2.41464   2.41691   2.42366   2.43675   2.44422
 Alpha virt. eigenvalues --    2.45052   2.46112   2.46629   2.48004   2.48543
 Alpha virt. eigenvalues --    2.50586   2.52483   2.55050   2.55933   2.56073
 Alpha virt. eigenvalues --    2.56508   2.57730   2.58983   2.59321   2.61723
 Alpha virt. eigenvalues --    2.63336   2.66185   2.66745   2.67163   2.68199
 Alpha virt. eigenvalues --    2.69233   2.70526   2.71131   2.71705   2.71969
 Alpha virt. eigenvalues --    2.72106   2.72688   2.72833   2.73495   2.73845
 Alpha virt. eigenvalues --    2.74288   2.75299   2.75749   2.75861   2.76255
 Alpha virt. eigenvalues --    2.76535   2.76887   2.77041   2.77404   2.78045
 Alpha virt. eigenvalues --    2.78574   2.78925   2.79091   2.80496   2.81652
 Alpha virt. eigenvalues --    2.82295   2.83937   2.84130   2.84535   2.85667
 Alpha virt. eigenvalues --    2.86178   2.86474   2.87435   2.88482   2.89640
 Alpha virt. eigenvalues --    2.89843   2.90971   2.91940   2.92211   2.92711
 Alpha virt. eigenvalues --    2.94552   2.95940   2.97263   2.98710   2.99422
 Alpha virt. eigenvalues --    3.01585   3.01916   3.03105   3.04381   3.05449
 Alpha virt. eigenvalues --    3.07189   3.08631   3.10203   3.13058   3.14023
 Alpha virt. eigenvalues --    3.15475   3.16315   3.17737   3.19788   3.20085
 Alpha virt. eigenvalues --    3.21146   3.21821   3.22465   3.24309   3.26261
 Alpha virt. eigenvalues --    3.26641   3.28578   3.31674   3.32076   3.33371
 Alpha virt. eigenvalues --    3.34959   3.37727   3.38035   3.38531   3.39022
 Alpha virt. eigenvalues --    3.40604   3.40880   3.42674   3.44651   3.45262
 Alpha virt. eigenvalues --    3.46667   3.48122   3.49091   3.49562   3.52637
 Alpha virt. eigenvalues --    3.54575   3.55776   3.57097   3.58708   3.61748
 Alpha virt. eigenvalues --    3.62786   3.65022   3.66724   3.70524   3.73099
 Alpha virt. eigenvalues --    3.77273   3.80986   3.81689   3.85764   3.91092
 Alpha virt. eigenvalues --    3.98513   4.02345   4.05455   4.06190   4.06611
 Alpha virt. eigenvalues --    4.08288   4.09391   4.09576   4.10115   4.18496
 Alpha virt. eigenvalues --    4.21469   4.24227   4.29470   4.33896   4.42148
 Alpha virt. eigenvalues --    4.64965   4.65223   4.73243   4.75696   4.77487
 Alpha virt. eigenvalues --    4.78015   4.80046   4.82536   4.86600  23.41670
 Alpha virt. eigenvalues --   23.59908  23.71574  23.76983  23.79451  23.84046
 Alpha virt. eigenvalues --   23.84797  23.87039  23.89018  23.90479  23.93088
 Alpha virt. eigenvalues --   23.94631  23.95593  23.98737  23.98874  24.00937
 Alpha virt. eigenvalues --   24.01601  24.03198  24.04802  24.06595  24.07562
 Alpha virt. eigenvalues --   24.09010  24.11566  24.12603  24.13270  24.16480
 Alpha virt. eigenvalues --   24.17075  24.18588  24.20112  24.21088
          Condensed to atoms (all electrons):
               1          2          3          4          5          6
     1  C   11.737132   2.182670   0.672825   2.116998  -0.978397  -4.623660
     2  C    2.182670   9.878357   1.442913   0.154443  -0.387807  -2.927793
     3  C    0.672825   1.442913  12.231971   0.031464   3.037644  -3.073825
     4  C    2.116998   0.154443   0.031464  14.992239   2.275601  -2.914160
     5  C   -0.978397  -0.387807   3.037644   2.275601  13.681681  -4.102261
     6  C   -4.623660  -2.927793  -3.073825  -2.914160  -4.102261  21.698687
     7  C   -2.018866   0.019373   0.220737  -3.715678   3.260383  -3.604392
     8  C    0.608868   0.036959  -3.041033   3.264443  -2.744904  -0.192005
     9  C   -2.427811  -2.220640  -3.105779  -3.726448  -1.019474   5.059992
    10  C   -1.255631  -0.320575   0.219926  -0.690926  -1.241349   0.619676
    11  C   -0.185525  -0.841161   0.497826   0.298559   1.638300  -0.053696
    12  C   -0.315495  -0.582984   0.762782  -2.239252  -2.332898   1.339832
    13  C   -0.322832  -0.663825  -1.477609  -0.798844  -0.545447   1.595646
    14  C   -3.968338  -1.970815  -0.395547   0.518503   0.176298   2.225116
    15  C    2.704434   0.598925   0.112508  -1.285427  -1.725281  -3.739409
    16  C    1.106247   0.308727   0.193634  -0.474654  -0.757890  -0.664685
    17  C   -0.272811   1.557780   0.250006  -0.560145  -0.841468  -0.172325
    18  C    0.026398   0.531240   0.586560  -0.343013  -0.829169  -0.080518
    19  C    0.324132   0.352087  -0.351482  -0.229799  -0.527451   0.082786
    20  C   -0.678501  -0.040230  -0.535111   0.216745   0.261016   0.105878
    21  C    0.109449  -0.678398  -0.280181  -0.047560  -0.011182   0.027435
    22  C    0.446252  -0.492549  -1.438480  -0.286296  -0.211369   0.001537
    23  C    0.010206  -0.414665  -0.761531  -0.173833  -0.164613   0.607857
    24  C   -0.248850  -0.240472  -0.010385   0.048722   0.073287   0.073611
    25  C    0.001741   0.056683  -0.055788  -0.018534  -0.012243   0.003247
    26  C    0.084266   0.058257  -0.379160  -0.094177  -0.050993  -0.026031
    27  C   -0.063151  -0.129262  -0.033134   0.021223   0.020724   0.082131
    28  C   -0.050063  -0.036243  -0.009910  -0.000899  -0.019467   0.006641
    29  C   -0.395985  -0.234806   0.095780  -0.042573   0.037087  -0.133235
    30  C    1.706131   1.514289   0.370696  -0.588166  -0.365350  -1.016624
    31  H    0.049215  -0.000771   0.008995   0.032064   0.006864  -0.008588
    32  H   -0.039569  -0.007736  -0.000956  -0.028181  -0.003854   0.002812
    33  H    0.001290   0.001002  -0.005853   0.055653  -0.019427  -0.044708
    34  H   -0.008888   0.001099  -0.005731  -0.034670   0.050615  -0.054139
    35  H    0.004092  -0.003009   0.003419  -0.000563   0.024227   0.011514
    36  H    0.003561  -0.003327   0.027496  -0.004029  -0.023999  -0.001360
    37  H   -0.000488  -0.012194   0.022309   0.003165   0.000518   0.000281
    38  H    0.000748  -0.013160   0.007654   0.000041   0.001009   0.000045
    39  H   -0.000218  -0.000401  -0.000430   0.000154   0.000206   0.000010
    40  H   -0.000566   0.002667   0.000118   0.000063   0.000068   0.000003
    41  H    0.000418   0.000061  -0.000028   0.000024   0.000008   0.000008
    42  H   -0.001252  -0.000481   0.000067   0.000074   0.000004  -0.000035
    43  H    0.002116   0.000992  -0.000025  -0.000210  -0.000007  -0.000233
    44  H   -0.004017  -0.001526  -0.000481  -0.004270  -0.000374   0.006496
    45  H   -0.057218  -0.045796   0.004047   0.015600   0.000006   0.026428
    46  H   -0.127029  -0.029673  -0.010025  -0.028820  -0.003119   0.031658
               7          8          9         10         11         12
     1  C   -2.018866   0.608868  -2.427811  -1.255631  -0.185525  -0.315495
     2  C    0.019373   0.036959  -2.220640  -0.320575  -0.841161  -0.582984
     3  C    0.220737  -3.041033  -3.105779   0.219926   0.497826   0.762782
     4  C   -3.715678   3.264443  -3.726448  -0.690926   0.298559  -2.239252
     5  C    3.260383  -2.744904  -1.019474  -1.241349   1.638300  -2.332898
     6  C   -3.604392  -0.192005   5.059992   0.619676  -0.053696   1.339832
     7  C   14.715093  -1.421391   0.434070   0.601357  -0.258147  -0.721448
     8  C   -1.421391  14.175255  -3.335352  -0.675483   0.545810  -1.514303
     9  C    0.434070  -3.335352  18.349055   2.121032  -1.232527  -0.638581
    10  C    0.601357  -0.675483   2.121032  11.967289  -1.612855  -0.659678
    11  C   -0.258147   0.545810  -1.232527  -1.612855  11.237929   1.510139
    12  C   -0.721448  -1.514303  -0.638581  -0.659678   1.510139  10.680386
    13  C   -0.248226   0.786533   0.928775  -0.042587  -0.166146  -0.074636
    14  C   -0.600084  -0.163668   0.954568   0.035457   0.033564   0.054791
    15  C   -1.156149   0.162654  -0.188160  -0.287970  -0.013545   0.026614
    16  C   -0.185561  -0.323931  -1.225698  -1.739400  -1.292746   0.244975
    17  C   -0.004741  -0.336231  -1.007763  -0.258282  -1.271203   0.293168
    18  C   -0.054752  -0.121117  -0.636882   1.592669  -1.772324   0.060899
    19  C   -0.016195   0.027416   0.032605  -0.825571  -0.264298  -0.023772
    20  C   -0.031481  -0.008339   0.004457   0.099135   0.030147   0.050782
[...]
 56466,0.00878939,-0.00379001,-0.00139726,-0.00492019,-0.00005627,-0.00
 000888,-0.00002222,0.00000331,-0.00000455,-0.00001997,-0.00000237,0.00
 000298,-0.00000225,-0.00000491,-0.00000063,-0.00000090,-0.00000399,-0.
 00000311,0.00000104,0.00000172,-0.00000103,-0.00000038,-0.00000135,-0.
 00000248,-0.00000076,0.00000167,-0.00000179,-0.00000130,0.00000139,-0.
 00000578,0.00000105,0.00001168,0.00008745,0.00001833,-0.00000470,-0.00
 001245,-0.00006353,0.00020753,0.00019225,0.00171917,0.09334095,-0.0000
 2625,0.00002418,0.00000553,-0.00003043,-0.00002421,0.00000860,0.000016
 75,-0.00002354,0.00001003,-0.00003374,-0.00001138,0.00007239,-0.000021
 40,0.00003477,-0.00001693,0.00003730,0.00002796,-0.00000874,0.00001792
 ,-0.00000729,0.00001539,0.00002423,-0.00003001,-0.00000593,-0.00003066
 ,0.00000068,0.00000264,0.00001889,-0.00001532,-0.00000528,-0.00004581,
 -0.00001730,-0.00001085,0.00003383,-0.00001555,0.00000281,0.00010538,-
 0.00023245,-0.00017025,0.00003952,0.00009039,0.00015857,-0.00005728,0.
 00003733,-0.00006938,-0.00001313,0.00002393,-0.00001981,0.00000021,-0.
 00001530,-0.00000261,-0.00002920,0.00001557,0.00000144,0.00006675,-0.0
 0001717,-0.00030520,0.00003316,0.00002566,0.00007132,0.00001434,0.0000
 3541,0.00002230,-0.00003307,0.00001622,-0.00000824,0.00010277,0.000374
 67,-0.00027691,0.00227169,0.00094783,0.00405158,-0.00068356,-0.0005708
 1,0.00000114,0.00040093,-0.00020447,-0.00013344,-0.00918352,-0.0149542
 4,0.00390766,-0.09498636,-0.27807349,0.06430743,-0.00038234,-0.0033826
 1,0.00301150,-0.00182703,0.00189315,0.00086080,-0.00001292,0.00000099,
 -0.00000420,0.00000945,-0.00000406,-0.00002933,-0.00000372,0.00000658,
 -0.00000408,-0.00000978,-0.00000203,-0.00000228,-0.00000885,-0.0000043
 8,0.00000047,0.00000003,-0.00000559,-0.00000119,-0.00000150,-0.0000074
 4,0.00000263,-0.00000641,-0.00000790,0.00000248,0.00000818,-0.00000107
 ,0.00000052,-0.00002269,-0.00010029,-0.00001169,0.00001846,0.00000956,
 0.00008187,0.00091868,0.00022513,-0.00160754,0.10297343,0.29398884,-0.
 00005733,0.00014113,0.00017814,-0.00009023,-0.00000770,0.00003421,0.00
 010338,0.00005397,0.00003955,-0.00008087,-0.00007857,0.00000359,-0.000
 03459,0.00006872,-0.00004353,-0.00008447,-0.00003478,0.00001090,-0.000
 00189,0.00002544,0.00000310,0.00001575,-0.00002692,-0.00000225,-0.0000
 5410,0.00001849,-0.00000965,0.00006209,-0.00010016,-0.00002551,-0.0000
 1618,0.00001143,-0.00000012,0.00000703,0.00000567,0.00001254,-0.000024
 37,-0.00043964,-0.00038675,0.00004747,-0.00003423,-0.00012285,0.000077
 69,-0.00006934,0.00003415,0.00000132,0.00007059,-0.00003389,0.00010827
 ,-0.00008456,0.00001936,-0.00010280,0.00002051,-0.00000862,0.00031951,
 -0.00016255,-0.00058035,-0.00022360,-0.00021300,0.00003545,0.00010167,
 0.00016853,0.00007609,-0.00013878,0.00000800,-0.00003710,-0.00077733,-
 0.00002024,-0.00093317,-0.00433034,0.00392564,0.00412264,0.00074900,0.
 00051317,0.00035199,0.00001552,0.00035892,-0.00048012,0.00828518,0.013
 81782,0.00089519,0.01480256,0.06551266,-0.06043184,-0.00266037,-0.0086
 2063,0.00617360,-0.00384874,0.00081289,0.00478979,0.00005238,0.0000120
 4,0.00005384,-0.00000449,0.00001155,0.00004405,0.00000194,-0.00000010,
 -0.00000092,0.00000041,-0.00000022,-0.00000017,-0.00000071,-0.00000108
 ,0.00000251,0.00000175,0.00000169,-0.00000332,0.00000099,0.00000440,0.
 00000457,-0.00000324,0.00000377,0.00000808,0.00000262,-0.00000435,-0.0
 0000076,0.00002955,0.00009251,-0.00000315,-0.00006360,-0.00000305,0.00
 008062,0.00140673,-0.00172363,-0.00286695,-0.01514718,-0.07270637,0.05
 118926,-0.00005091,-0.00009611,-0.00000313,0.00001716,-0.00005876,-0.0
 0004538,0.00000743,-0.00000025,-0.00000103,0.00001751,0.00000664,0.000
 06396,-0.00004800,-0.00000884,-0.00002133,0.00004791,-0.00001388,-0.00
 004742,-0.00003004,-0.00001383,-0.00001046,0.00001295,0.00002877,0.000
 00681,0.00005117,-0.00001554,0.00000197,-0.00002729,0.00001431,-0.0000
 0059,-0.00000783,-0.00000657,-0.00000475,0.00000673,-0.00001164,0.0000
 0420,0.00036152,0.00003383,-0.00043267,-0.00023754,0.00004484,-0.00004
 464,-0.00002783,0.00000080,0.00009838,0.00000549,0.00005093,0.00000218
 ,-0.00002338,0.00001687,0.00001477,0.00002832,0.00000237,0.00000594,0.
 00066081,-0.00035842,0.00015743,-0.00011177,-0.00015952,0.00003523,0.0
 0007717,-0.00005796,-0.00000167,0.00002319,0.00001929,0.00000250,-0.00
 026564,-0.00288099,-0.00096085,-0.00030327,-0.00052996,0.00030739,0.00
 001964,0.00021575,0.00029162,-0.00005648,0.00000625,-0.00002762,-0.003
 36816,-0.00370975,-0.00300345,-0.01087525,0.01965961,-0.01624038,-0.13
 500564,0.08883023,-0.09447863,0.00980193,-0.01001832,0.00876818,0.0000
 0344,0.00007739,0.00012782,0.00000623,0.00001426,0.00004190,0.00000305
 ,-0.00000251,0.00000235,0.00000293,0.00000210,0.00000152,0.00000362,0.
 00000022,0.00000090,0.00000239,0.00000418,-0.00000041,-0.00000115,0.00
 000300,-0.00000131,0.00000268,0.00000289,-0.00000094,-0.00000931,-0.00
 002059,0.00001450,0.00001175,0.00001707,-0.00002344,0.00005439,-0.0000
 4681,0.00000619,-0.00068883,0.00096262,-0.00066377,0.00021898,0.000369
 28,0.00170631,0.14013477,0.00004269,-0.00001907,-0.00017328,-0.0000090
 5,-0.00000950,0.00001527,0.00000692,0.00003160,-0.00002145,-0.00013968
 ,-0.00004218,0.00001136,0.00009755,0.00005754,0.00005914,-0.00000139,-
 0.00000037,0.00001398,-0.00001437,-0.00000284,-0.00001277,-0.00000860,
 0.00000875,-0.00000587,-0.00008579,-0.00009461,-0.00001832,-0.00012389
 ,0.00001763,-0.00000081,0.00014376,-0.00002329,0.00001475,-0.00005345,
 0.00013005,0.00001189,0.00004758,-0.00002430,0.00034934,0.00004631,0.0
 0013127,0.00018072,-0.00004995,0.00006005,-0.00019643,0.00012140,0.000
 05406,-0.00000304,-0.00014565,0.00001453,0.00001071,0.00011179,-0.0000
 2511,-0.00000537,0.00107592,-0.00000344,0.00054487,0.00014187,-0.00027
 422,-0.00007400,0.00004285,-0.00014166,-0.00001183,0.00012565,-0.00004
 284,0.00001900,-0.00432891,-0.00254553,0.00316109,-0.00023797,-0.00078
 263,-0.00022408,-0.00001395,0.00046718,-0.00049844,-0.00032917,-0.0003
 6022,0.00001695,-0.00309353,0.00153511,0.00108946,-0.00571660,0.008952
 92,-0.00539341,0.08723150,-0.15898414,0.10663551,0.01631489,-0.0131908
 9,0.01438103,-0.00000155,0.00009524,0.00004162,-0.00000320,0.00001321,
 -0.00001546,-0.00000416,0.00000337,0.00000624,-0.00000445,0.00000022,0
 .00000337,-0.00000348,0.00000368,-0.00000437,-0.00000256,-0.00000548,0
 .00000247,-0.00000493,-0.00000784,0.00000037,-0.00000588,-0.00000830,0
 .00000039,-0.00000225,-0.00005266,-0.00002311,0.00000100,-0.00001012,0
 .00003382,0.00004622,-0.00002197,0.00003289,-0.00044890,0.00036707,-0.
 00014751,0.00127990,0.00003621,-0.00134597,-0.09324902,0.16428784,0.00
 003127,-0.00008324,-0.00035520,-0.00002835,0.00012690,0.00008899,-0.00
 008186,-0.00000657,-0.00001657,0.00003181,0.00010902,-0.00023038,0.000
 12265,-0.00009240,0.00011101,-0.00020792,-0.00013167,0.00003767,0.0000
 6609,0.00000833,-0.00000357,-0.00009278,-0.00002072,-0.00000247,-0.000
 02544,0.00004359,-0.00001052,-0.00002196,0.00004257,0.00001316,0.00009
 323,0.00002522,0.00002310,-0.00005316,0.00003612,-0.00002006,-0.001098
 96,0.00086151,0.00153510,0.00047536,0.00024066,0.00001936,0.00038933,-
 0.00011496,-0.00002338,0.00000574,-0.00005643,-0.00000817,-0.00006524,
 0.00004401,-0.00002906,0.00005222,-0.00005532,-0.00001216,-0.00059902,
 0.00030268,-0.00001113,0.00041272,0.00026259,-0.00014364,-0.00014652,-
 0.00011599,-0.00000981,0.00011111,-0.00001741,0.00002249,0.00020617,0.
 00172037,0.00445197,0.00054059,-0.00072827,0.00001790,-0.00003316,0.00
 019353,-0.00076244,-0.00015707,-0.00027979,0.00005519,-0.00335336,0.00
 032300,0.00410229,-0.00325321,0.00739385,-0.00134395,-0.09509652,0.103
 82394,-0.13211493,-0.00498591,0.00565750,-0.00348291,0.00001371,-0.000
 49406,-0.00016045,-0.00002662,0.00001187,-0.00002827,-0.00000468,0.000
 00031,0.00000356,0.00000296,-0.00000480,0.00000119,0.00000221,0.000004
 95,-0.00000271,-0.00000652,-0.00000454,0.00000347,0.00000252,-0.000002
 47,0.00000015,0.00000355,-0.00000204,0.00000248,0.00000683,0.00001341,
 -0.00002957,-0.00002528,0.00000475,0.00005112,-0.00000075,-0.00000763,
 0.00003492,-0.00028805,0.00050639,-0.00012963,0.00148545,-0.00141434,-
 0.00220436,0.10331767,-0.11708123,0.13187904,-0.00877049,-0.00191465,0
 .00561764,-0.00015161,-0.00014858,0.00010451,-0.00106386,0.00001500,-0
 .00006319,0.00410356,0.00051067,0.00136313,-0.00133829,-0.00197965,-0.
 00058477,0.00043507,0.00094486,-0.00015983,-0.00045728,-0.00030499,-0.
 00016716,-0.00009991,0.00082882,0.00005058,0.00158382,-0.00005339,0.00
 017864,-0.00013304,0.00028651,0.00015232,-0.00024331,0.00012065,-0.000
 01166,0.00005010,-0.00055905,-0.00009969,-0.00261099,0.00478363,0.0075
 6537,-0.00110069,-0.00052761,-0.00160825,-0.00029357,-0.00000952,0.000
 28445,0.00103632,0.00006497,0.00025451,0.00004534,-0.00001755,0.000063
 33,0.00019919,0.00007259,0.00003123,-0.00080438,-0.00253129,0.00222730
 ,-0.00109078,0.00073992,-0.00028471,-0.00037208,-0.00031244,-0.0001311
 0,0.00025926,-0.00013170,0.00006555,-0.01334372,-0.00154913,-0.0097073
 9,0.00080502,0.00328813,-0.00337433,-0.00066545,-0.00092070,0.00000310
 ,0.00039448,0.00033434,0.00014386,0.00020405,0.00103239,-0.00007981,0.
 00456285,-0.00455681,-0.00053594,-0.01114503,-0.00737862,-0.00529412,-
 0.20397005,-0.07396879,-0.12974838,0.00014392,-0.00004602,0.00006931,0
 .00001290,0.00002631,0.00012179,-0.00000202,-0.00000914,0.00000364,-0.
 00000379,0.00001749,0.00002937,0.00000449,-0.00001568,0.00001454,-0.00
 000037,0.00000952,-0.00001788,0.00000332,-0.00000264,-0.00000661,0.000
 00620,0.00000572,-0.00001478,-0.00000736,-0.00000641,-0.00001535,0.000
 01644,0.00002224,-0.00000692,-0.00015504,0.00015778,-0.00013909,-0.000
 19935,0.00009984,0.00034145,-0.00048335,-0.00003741,-0.00017720,-0.000
 51343,0.00121317,0.00253884,0.23483229,-0.00185216,0.00070114,0.002774
 47,-0.00044516,0.00017836,0.00030361,-0.00072765,-0.00025824,-0.000166
 55,0.00096492,-0.00024175,0.00052733,-0.00061824,-0.00027726,-0.000346
 20,-0.00010677,0.00039547,-0.00005077,-0.00011377,-0.00005791,0.000005
 92,0.00006005,0.00009099,0.00001186,0.00013459,0.00003870,-0.00000271,
 0.00007672,0.00011983,0.00007222,-0.00038887,0.00002170,-0.00002859,0.
 00016989,-0.00017465,0.00002080,0.00227016,-0.00208171,-0.00762221,0.0
 0078504,-0.00047874,-0.00004837,-0.00021290,-0.00044344,-0.00001375,0.
 00041119,-0.00032735,0.00046522,0.00007315,-0.00034376,-0.00017211,0.0
 0007669,0.00017014,0.00006688,0.00017178,0.00110832,-0.00043596,0.0003
 6479,-0.00030103,-0.00015987,0.00020999,0.00031295,0.00011327,-0.00022
 773,0.00006292,-0.00007270,0.01805728,0.00853973,0.01212499,0.00218775
 ,-0.00301393,0.00232268,0.00101820,0.00052402,-0.00011728,-0.00000168,
 -0.00006092,-0.00001748,0.00072627,-0.00145727,0.00074954,-0.00343892,
 -0.00314837,0.00250368,-0.02018940,-0.00386727,-0.01548770,-0.08212626
 ,-0.08443742,-0.04232873,0.00002498,-0.00012059,-0.00010380,0.00000558
 ,0.00001807,0.00022308,0.00001164,-0.00000433,-0.00003039,-0.00000035,
 -0.00000229,0.00000065,-0.00000185,-0.00001875,0.00001669,0.00002089,0
 .00001629,-0.00003136,0.00000043,0.00000951,0.00003907,-0.00001584,0.0
 0001067,0.00000193,-0.00000443,0.00001394,0.00002205,-0.00003049,-0.00
 001997,0.00002216,0.00023371,-0.00021125,0.00016726,0.00006840,-0.0000
 0383,-0.00026300,-0.00132203,-0.00008670,-0.00001550,0.00082899,0.0004
 2158,-0.00084592,0.08306302,0.08848990,0.00132358,-0.00038732,-0.00011
 850,0.00044804,0.00100859,-0.00011746,0.00034851,-0.00049594,0.0001371
 1,0.00013026,-0.00052128,0.00114174,-0.00051116,0.00044832,-0.00059512
 ,-0.00003333,0.00024795,0.00001358,-0.00008960,-0.00003093,0.00003383,
 0.00008239,0.00006129,-0.00005677,0.00005355,-0.00004947,-0.00004455,0
 .00015615,-0.00003848,-0.00001442,-0.00032887,-0.00010971,-0.00008986,
 0.00016514,-0.00010407,0.00007299,0.00616246,-0.00685180,-0.01539871,0
 .00189266,0.00003077,0.00059429,-0.00045310,-0.00042400,-0.00082476,-0
 .00085285,0.00045355,-0.00045127,0.00014638,0.00020311,-0.00005752,-0.
 00015601,-0.00003220,0.00000162,0.00047486,0.00132820,-0.00078648,0.00
 085297,-0.00058607,0.00044667,0.00033947,0.00012637,0.00008680,-0.0002
 0444,0.00014787,-0.00003944,-0.00753717,-0.00976947,-0.00302524,-0.001
 65680,0.00167233,0.00140182,-0.00054832,-0.00017791,0.00012450,-0.0003
 8356,-0.00024091,-0.00021189,0.00053233,-0.00006940,-0.00006276,-0.002
 47097,0.00404925,0.00145841,0.01286561,0.00831184,0.00682112,-0.142858
 40,-0.04305310,-0.11749202,-0.00004572,-0.00007520,-0.00007735,-0.0000
 1544,0.00008056,0.00033919,-0.00001803,0.00001309,-0.00001935,-0.00002
 637,-0.00000408,-0.00000150,-0.00002577,-0.00003058,0.00001729,-0.0000
 0020,-0.00000601,-0.00001293,-0.00000379,-0.00001545,0.00002403,0.0000
 1689,-0.00001570,0.00002042,0.00001459,0.00001664,-0.00000412,0.000012
 76,0.00003060,-0.00001221,-0.00016504,0.00019210,0.00006561,0.00011898
 ,-0.00020433,-0.00037896,0.00052986,0.00021146,0.00000684,0.00107056,-
 0.00140645,-0.00147441,0.13095285,0.04567010,0.12842218,0.00107538,0.0
 0146710,0.00038069,0.00025600,0.00030001,-0.00032253,0.00018714,-0.000
 05067,-0.00000492,-0.00009941,0.00035576,-0.00155458,-0.00014994,0.000
 33862,0.00023803,-0.00191276,0.00105562,0.00018537,-0.00069567,-0.0003
 2570,0.00165497,-0.00032689,0.00039541,-0.00001581,-0.00011751,-0.0000
 1817,-0.00001771,-0.00001220,0.00006444,0.00008338,0.00010579,0.000155
 07,0.00006130,-0.00015357,0.00011318,-0.00000296,0.00017388,0.00341300
 ,0.01376305,-0.03485594,-0.00473357,-0.01697118,-0.00917063,-0.0029847
 9,-0.02985280,0.00020799,-0.00013896,0.00004595,-0.00004336,0.00008172
 ,-0.00000745,0.00014938,0.00002813,-0.00000944,-0.00006515,0.00049911,
 -0.00024936,0.00036061,-0.00015458,0.00017615,-0.00008869,0.00003861,-
 0.00002661,0.00010127,-0.00017541,-0.00001286,0.00061047,-0.00062897,0
 .00021211,-0.00034673,-0.00041155,-0.00008097,-0.00016589,0.00028924,-
 0.00011356,-0.00026997,-0.00029605,-0.00000561,0.00014542,0.00057946,-
 0.00001010,0.00010120,-0.00014235,0.00019599,0.00005204,0.00091285,-0.
 00037618,-0.00212606,0.00067970,0.00149703,0.00045128,0.00102341,0.015
 44937,-0.00189658,0.00073415,0.00065160,-0.00005710,0.00003073,-0.0000
 8631,0.00004916,-0.00002138,-0.00019720,0.00000531,0.00001511,0.000018
 57,-0.00000349,0.00000259,-0.00001925,-0.00000710,0.00000495,-0.000000
 18,-0.00000564,-0.00000424,0.00002449,-0.00000072,-0.00000734,0.000000
 75,0.00000038,-0.00001650,-0.00000572,0.00000362,0.00000486,-0.0000112
 8,-0.00001044,0.00000028,-0.00001842,-0.00001551,0.00000589,0.00002328
 ,0.00006857,-0.00000864,-0.00025968,0.00032060,-0.00019163,-0.00030587
 ,0.04817147,-0.00427651,-0.00395315,0.00216086,-0.00068791,-0.00042549
 ,0.00087754,-0.00018106,0.00023540,0.00007243,0.00129618,0.00129667,0.
 00026999,-0.00036645,-0.00130274,-0.00057128,-0.00074058,-0.00206292,0
 .00047827,0.00023866,0.00006104,0.00017016,0.00002883,-0.00011883,-0.0
 0004721,0.00075371,0.00030165,0.00012128,-0.00012902,0.00022610,-0.000
 19578,-0.00001464,0.00014371,0.00000616,-0.00003236,-0.00050188,-0.000
 04769,0.00918053,-0.01221235,-0.02331951,-0.00827917,-0.02559245,-0.02
 854714,0.00315074,0.00189391,0.00132429,0.00029231,0.00014652,-0.00004
 061,-0.00012730,-0.00004140,0.00005953,0.00002196,-0.00011371,-0.00001
 903,0.00006306,-0.00088944,0.00018529,-0.00042427,0.00040198,-0.000145
 85,-0.00025219,-0.00023766,-0.00002210,0.00025810,-0.00003696,0.000058
 48,-0.00052496,0.00132337,-0.00054814,-0.00003987,0.00009823,0.0000574
 7,-0.00001890,-0.00016256,0.00003482,0.00016611,0.00013362,-0.00000472
 ,-0.00039588,0.00053833,-0.00042443,0.00117953,-0.00023766,0.00073140,
 -0.00174838,-0.00142134,0.00052885,0.00327708,-0.00032743,-0.00212980,
 0.00058504,0.00153874,0.02501842,0.00059631,-0.00027683,-0.00061636,0.
 00002500,-0.00000472,0.00001181,-0.00000465,-0.00000089,-0.00002481,0.
 00000352,-0.00000641,0.00000047,-0.00001937,-0.00000579,0.00002467,0.0
 0001071,-0.00000159,-0.00000733,0.00000093,0.00000915,-0.00002980,-0.0
 0000506,-0.00000801,-0.00000328,0.00000221,-0.00000200,0.00000182,-0.0
 0000252,0.00000026,0.00001164,0.00001833,-0.00000379,-0.00004537,0.000
 00973,-0.00000049,0.00003303,0.00004677,-0.00001593,-0.00019722,-0.000
 65581,0.00019452,0.00039592,-0.00227851,0.04142124,0.00272463,0.001115
 29,-0.00052210,-0.00020453,-0.00032323,0.00033425,0.00032267,0.0000776
 5,-0.00007031,-0.00047464,-0.00039521,-0.00053719,0.00033392,0.0004772
 5,0.00055132,0.00032396,0.00265662,0.00020681,-0.00054766,-0.00043643,
 -0.00005482,-0.00005926,0.00021775,0.00006338,-0.00028598,-0.00007975,
 0.00003925,0.00003777,-0.00015944,-0.00010516,-0.00001208,-0.00007016,
 -0.00000440,0.00007292,0.00015725,-0.00000766,0.00251943,-0.00808381,-
 0.00541856,-0.01199228,-0.01743482,-0.27565809,-0.00845549,-0.00053774
 ,-0.00864218,0.00013174,0.00003367,-0.00003131,0.00003816,0.00008843,0
 .00000756,-0.00005803,0.00006542,0.00004473,-0.00008641,-0.00039648,0.
 00014368,-0.00027477,0.00018512,-0.00012193,-0.00000427,-0.00006930,0.
 00000585,-0.00001138,0.00003007,0.00000830,-0.00053198,0.00072666,-0.0
 0033293,0.00012128,0.00022270,0.00013031,0.00005890,-0.00011809,0.0000
 2228,0.00019306,0.00011977,0.00001436,-0.00021245,-0.00026654,-0.00000
 750,0.00004741,0.00011296,0.00005045,-0.00043413,-0.00120835,0.0002916
 4,0.00159737,-0.00052432,-0.00152944,0.00029667,-0.00022161,-0.0130666
 9,-0.00113153,-0.00047570,-0.00059210,0.00002942,-0.00000149,0.0000003
 5,0.00000268,-0.00001599,-0.00002039,0.00000493,0.00001349,-0.00001194
 ,0.00000410,0.00000021,0.00001079,-0.00000603,-0.00000106,0.00000834,0
 .00000538,-0.00000167,-0.00001444,-0.00000346,-0.00000155,0.00000021,-
 0.00000052,0.00000740,0.00000577,0.00000018,-0.00000567,0.00002118,0.0
 0001103,0.00000136,0.00001429,0.00001843,0.00000403,0.00000534,-0.0000
 3643,0.00002695,0.00015562,0.00005084,0.00013549,0.00013756,0.01587642
 ,0.02435288,0.30447554\\-0.00001944,-0.00000748,0.00000052,-0.00000009
 ,0.00000124,-0.00000481,0.00000958,0.00000282,0.00000769,-0.00000295,-
 0.00000100,-0.00000007,-0.00000509,-0.00000086,-0.00000583,-0.00000161
 ,-0.00000239,-0.00000001,-0.00000083,-0.00000218,0.00000161,-0.0000030
 0,0.00000029,-0.00000118,0.00000046,-0.00000299,0.00000223,-0.00000804
 ,0.00000059,-0.00000163,0.00000274,-0.00000126,0.00000922,0.00000035,0
 .00000254,-0.00001123,0.00007109,-0.00001174,-0.00005179,-0.00002158,0
 .00001347,-0.00001537,0.00000645,-0.00001074,0.00000147,0.00000064,0.0
 0000846,0.00000941,0.00000485,0.00000074,-0.00002128,0.00000475,-0.000
 00469,-0.00000242,-0.00001148,-0.00000472,0.00001133,-0.00000112,0.000
 01041,-0.00000296,0.00000272,-0.00000227,0.00000071,-0.00000282,-0.000
 00145,0.00001012,0.00000449,0.00000638,-0.00000282,-0.00000367,0.00000
 934,-0.00000179,0.00000491,-0.00000120,0.00000204,0.00000198,0.0000016
 6,0.00000271,-0.00000397,-0.00000774,0.00000383,0.00000213,0.00000022,
 -0.00000359,0.00001105,-0.00001115,-0.00000015,-0.00003266,0.00001987,
 0.00002525,-0.00000470,-0.00000255,0.00000410,-0.00000217,0.00000085,0
 .00000120,-0.00000108,-0.00000098,-0.00000317,0.,-0.00000150,-0.000003
 16,0.00000036,-0.00000121,-0.00000088,0.00000168,-0.00000152,-0.000001
 11,0.00000266,-0.00000005,0.00000282,0.00000009,-0.00000070,0.00000170
 ,0.00000105,0.00000151,0.00000050,0.00000003,0.00000178,0.00000162,-0.
 00000014,0.00000140,0.00000241,0.00000038,0.00000008,0.00000083,-0.000
 00086,0.00000089,0.00000329,-0.00000113,-0.00000303,0.00000207,-0.0000
 0957,0.00000735,0.00002307,0.00000357,-0.00000649,0.00000350\\\@


 TO DETECT ERRORS, THE PROGRAMMER MUST HAVE A CONNIVING MIND,
 ONE THAT DELIGHTS IN UNCOVERING FLAWS WHERE BEAUTY AND
 PERFECTION WERE ONCE THOUGHT TO LIE.

             -- THE PSYCHOLOGY OF COMPUTER PROGRAMMING
                GERALD M. WEINBERG
 Job cpu time:       1 days  0 hours 50 minutes 35.6 seconds.
 Elapsed time:       0 days  1 hours 14 minutes 44.9 seconds.
 File lengths (MBytes):  RWF=   2281 Int=      0 D2E=      0 Chk=     45 Scr=      1
 Normal termination of Gaussian 16 at Fri Aug  2 01:18:28 2019.
