 Entering Gaussian System, Link 0=/share/apps/gaussian16/g16/g16
 Initial command:
 /share/apps/gaussian16/g16/l1.exe "/home/amen01//scratch/680/Gau-35672.inp" -scrdir="/home/amen01//scratch/680/"
 Entering Link 1 = /share/apps/gaussian16/g16/l1.exe PID=     35673.
  
 Copyright (c) 1988-2017, Gaussian, Inc.  All Rights Reserved.
  
 This is part of the Gaussian(R) 16 program.  It is based on
 the Gaussian(R) 09 system (copyright 2009, Gaussian, Inc.),
 the Gaussian(R) 03 system (copyright 2003, Gaussian, Inc.),
 the Gaussian(R) 98 system (copyright 1998, Gaussian, Inc.),
 the Gaussian(R) 94 system (copyright 1995, Gaussian, Inc.),
 the Gaussian 92(TM) system (copyright 1992, Gaussian, Inc.),
 the Gaussian 90(TM) system (copyright 1990, Gaussian, Inc.),
 the Gaussian 88(TM) system (copyright 1988, Gaussian, Inc.),
 the Gaussian 86(TM) system (copyright 1986, Carnegie Mellon
 University), and the Gaussian 82(TM) system (copyright 1983,
 Carnegie Mellon University). Gaussian is a federally registered
 trademark of Gaussian, Inc.
  
 This software contains proprietary and confidential information,
 including trade secrets, belonging to Gaussian, Inc.
  
 This software is provided under written license and may be
 used, copied, transmitted, or stored only in accord with that
 written license.
  
 The following legend is applicable only to US Government
 contracts under FAR:
  
                    RESTRICTED RIGHTS LEGEND
  
 Use, reproduction and disclosure by the US Government is
 subject to restrictions as set forth in subparagraphs (a)
 and (c) of the Commercial Computer Software - Restricted
 Rights clause in FAR 52.227-19.
  
 Gaussian, Inc.
 340 Quinnipiac St., Bldg. 40, Wallingford CT 06492
  
  
 ---------------------------------------------------------------
 Warning -- This program may not be used in any manner that
 competes with the business of Gaussian, Inc. or will provide
 assistance to any competitor of Gaussian, Inc.  The licensee
 of this program is prohibited from giving any competitor of
 Gaussian, Inc. access to this program.  By using this program,
 the user acknowledges that Gaussian, Inc. is engaged in the
 business of creating and licensing software in the field of
 computational chemistry and represents and warrants to the
 licensee that it is not a competitor of Gaussian, Inc. and that
 it will not use this program in any manner prohibited above.
 ---------------------------------------------------------------
  

 Cite this work as:
 Gaussian 16, Revision B.01,
 M. J. Frisch, G. W. Trucks, H. B. Schlegel, G. E. Scuseria, 
 M. A. Robb, J. R. Cheeseman, G. Scalmani, V. Barone, 
 G. A. Petersson, H. Nakatsuji, X. Li, M. Caricato, A. V. Marenich, 
 J. Bloino, B. G. Janesko, R. Gomperts, B. Mennucci, H. P. Hratchian, 
 J. V. Ortiz, A. F. Izmaylov, J. L. Sonnenberg, D. Williams-Young, 
 F. Ding, F. Lipparini, F. Egidi, J. Goings, B. Peng, A. Petrone, 
 T. Henderson, D. Ranasinghe, V. G. Zakrzewski, J. Gao, N. Rega, 
 G. Zheng, W. Liang, M. Hada, M. Ehara, K. Toyota, R. Fukuda, 
 J. Hasegawa, M. Ishida, T. Nakajima, Y. Honda, O. Kitao, H. Nakai, 
 T. Vreven, K. Throssell, J. A. Montgomery, Jr., J. E. Peralta, 
 F. Ogliaro, M. J. Bearpark, J. J. Heyd, E. N. Brothers, K. N. Kudin, 
 V. N. Staroverov, T. A. Keith, R. Kobayashi, J. Normand, 
 K. Raghavachari, A. P. Rendell, J. C. Burant, S. S. Iyengar, 
 J. Tomasi, M. Cossi, J. M. Millam, M. Klene, C. Adamo, R. Cammi, 
 J. W. Ochterski, R. L. Martin, K. Morokuma, O. Farkas, 
 J. B. Foresman, and D. J. Fox, Gaussian, Inc., Wallingford CT, 2016.
 
 ******************************************
 Gaussian 16:  ES64L-G16RevB.01 20-Dec-2017
                 3-Jul-2019 
 ******************************************
 %nprocshared=20
 Will use up to   20 processors via shared memory.
 %mem=100GB
 %chk=7-memb2-habsTSguess-2b.chk
 ---------------------------------------------------------------
 # opt=(ts,calcfc,noeigen) freq b3lyp/6-311+g(d,p) int=grid=fine
 ---------------------------------------------------------------
 1/5=1,10=4,11=1,18=20,26=3,38=1/1,3;
 2/9=110,12=2,17=6,18=5,40=1/2;
 3/5=4,6=6,7=111,11=2,25=1,30=1,71=2,74=-5,75=-4,140=1/1,2,3;
 4//1;
 5/5=2,38=5/2;
 8/6=4,10=90,11=11/1;
 11/6=1,8=1,9=11,15=111,16=1/1,2,10;
 10/6=1,13=1/2;
 6/7=2,8=2,9=2,10=2,28=1/1;
 7/10=1,18=20,25=1/1,2,3,16;
 1/5=1,10=4,11=1,18=20,26=3/3(2);
 2/9=110/2;
 99//99;
 2/9=110/2;
 3/5=4,6=6,7=111,11=2,25=1,30=1,71=1,74=-5,75=-4/1,2,3;
 4/5=5,16=3,69=1/1;
 5/5=2,38=5/2;
 7//1,2,3,16;
 1/5=1,11=1,18=20,26=3/3(-5);
 2/9=110/2;
 6/7=2,8=2,9=2,10=2,19=2,28=1/1;
 99/9=1/99;
 ----------------------
 7-memb2-habsTSguess-2b
 ----------------------
 Symbolic Z-matrix:
 Charge =  0 Multiplicity = 2
 C                    -0.81208  -0.88151   0.5701 
 C                    -0.47588   0.52984   0.32594 
 C                    -1.70149   1.15529   0.00265 
 C                    -2.177    -1.04261   0.23586 
 C                    -2.72207   0.20043  -0.07671 
 C                    -2.94523  -2.1962    0.26232 
 C                    -4.33113  -1.99696  -0.08158 
 C                    -4.8575   -0.74618  -0.39167 
 C                    -4.0393    0.44233  -0.39049 
 C                    -1.95265   2.49937  -0.25009 
 C                    -3.33435   2.80758  -0.57624 
 C                    -4.32192   1.842    -0.64604 
 C                    -0.13372  -2.01168   1.03181 
 C                    -0.88413  -3.2523    1.03306 
 C                    -2.21147  -3.36259   0.65538 
 C                     0.69056   1.30372   0.25526 
 C                     0.45619   2.74434   0.13078 
 C                    -0.81314   3.31259  -0.11856 
 C                     2.05607   0.78805   0.22112 
 C                     3.10372   1.73409   0.34732 
 C                     2.82812   3.13873   0.44352 
 C                     1.57466   3.62536   0.28254 
 C                     2.42038  -0.59673  -0.09015 
 C                     3.81387  -0.91789  -0.28532 
 C                     4.81464   0.06254  -0.03698 
 C                     4.4696    1.33711   0.2837 
 C                     4.20842  -2.19343  -0.76157 
 C                     3.28595  -3.16555  -1.06605 
 C                     1.92102  -2.90776  -0.81603 
 C                     1.5501   -1.68835  -0.32318 
 H                     0.71918  -1.95034   1.69343 
 H                    -0.37864  -4.14096   1.39563 
 H                    -2.69788  -4.33145   0.70856 
 H                    -4.99859  -2.8528   -0.09689 
 H                    -5.91242  -0.67536  -0.63587 
 H                    -5.33156   2.14982  -0.89831 
 H                    -3.6052    3.8393   -0.77637 
 H                    -0.87697   4.39236  -0.21065 
 H                     1.3964    4.69519   0.26461 
 H                     3.6677    3.81356   0.56976 
 H                     5.2326    2.09222   0.43869 
 H                     5.85671  -0.21999  -0.14383 
 H                     5.26789  -2.38012  -0.90051 
 H                     3.59851  -4.12731  -1.4583 
 H                     1.18085  -3.68593  -0.97407 
 

 GradGradGradGradGradGradGradGradGradGradGradGradGradGradGradGradGradGrad
 Berny optimization.
 Initialization pass.
                           ----------------------------
                           !    Initial Parameters    !
                           ! (Angstroms and Degrees)  !
 --------------------------                            --------------------------
 ! Name  Definition              Value          Derivative Info.                !
 --------------------------------------------------------------------------------
 ! R1    R(1,2)                  1.4712         calculate D2E/DX2 analytically  !
 ! R2    R(1,4)                  1.4145         calculate D2E/DX2 analytically  !
 ! R3    R(1,13)                 1.3967         calculate D2E/DX2 analytically  !
 ! R4    R(2,3)                  1.4134         calculate D2E/DX2 analytically  !
 ! R5    R(2,16)                 1.4016         calculate D2E/DX2 analytically  !
 ! R6    R(3,5)                  1.3999         calculate D2E/DX2 analytically  !
 ! R7    R(3,10)                 1.3905         calculate D2E/DX2 analytically  !
 ! R8    R(4,5)                  1.3928         calculate D2E/DX2 analytically  !
 ! R9    R(4,6)                  1.3862         calculate D2E/DX2 analytically  !
 ! R10   R(5,9)                  1.3755         calculate D2E/DX2 analytically  !
 ! R11   R(6,7)                  1.4418         calculate D2E/DX2 analytically  !
 ! R12   R(6,15)                 1.433          calculate D2E/DX2 analytically  !
 ! R13   R(7,8)                  1.392          calculate D2E/DX2 analytically  !
 ! R14   R(7,34)                 1.0854         calculate D2E/DX2 analytically  !
 ! R15   R(8,9)                  1.4429         calculate D2E/DX2 analytically  !
 ! R16   R(8,35)                 1.0851         calculate D2E/DX2 analytically  !
 ! R17   R(9,12)                 1.4506         calculate D2E/DX2 analytically  !
 ! R18   R(10,11)                1.4527         calculate D2E/DX2 analytically  !
 ! R19   R(10,18)                1.4061         calculate D2E/DX2 analytically  !
 ! R20   R(11,12)                1.3829         calculate D2E/DX2 analytically  !
 ! R21   R(11,37)                1.0853         calculate D2E/DX2 analytically  !
 ! R22   R(12,36)                1.0853         calculate D2E/DX2 analytically  !
 ! R23   R(13,14)                1.4499         calculate D2E/DX2 analytically  !
 ! R24   R(13,31)                1.0812         calculate D2E/DX2 analytically  !
 ! R25   R(14,15)                1.3844         calculate D2E/DX2 analytically  !
 ! R26   R(14,32)                1.0848         calculate D2E/DX2 analytically  !
 ! R27   R(15,33)                1.0854         calculate D2E/DX2 analytically  !
 ! R28   R(16,17)                1.4649         calculate D2E/DX2 analytically  !
 ! R29   R(16,19)                1.46           calculate D2E/DX2 analytically  !
 ! R30   R(17,18)                1.4129         calculate D2E/DX2 analytically  !
 ! R31   R(17,22)                1.4319         calculate D2E/DX2 analytically  !
 ! R32   R(18,38)                1.0856         calculate D2E/DX2 analytically  !
 ! R33   R(19,20)                1.4172         calculate D2E/DX2 analytically  !
 ! R34   R(19,23)                1.4653         calculate D2E/DX2 analytically  !
 ! R35   R(20,21)                1.4346         calculate D2E/DX2 analytically  !
 ! R36   R(20,26)                1.4238         calculate D2E/DX2 analytically  !
 ! R37   R(21,22)                1.3542         calculate D2E/DX2 analytically  !
 ! R38   R(21,40)                1.0845         calculate D2E/DX2 analytically  !
 ! R39   R(22,39)                1.0847         calculate D2E/DX2 analytically  !
 ! R40   R(23,24)                1.4433         calculate D2E/DX2 analytically  !
 ! R41   R(23,30)                1.4154         calculate D2E/DX2 analytically  !
 ! R42   R(24,25)                1.4228         calculate D2E/DX2 analytically  !
 ! R43   R(24,27)                1.4176         calculate D2E/DX2 analytically  !
 ! R44   R(25,26)                1.3588         calculate D2E/DX2 analytically  !
 ! R45   R(25,42)                1.085          calculate D2E/DX2 analytically  !
 ! R46   R(26,41)                1.0846         calculate D2E/DX2 analytically  !
 ! R47   R(27,28)                1.3743         calculate D2E/DX2 analytically  !
 ! R48   R(27,43)                1.0847         calculate D2E/DX2 analytically  !
 ! R49   R(28,29)                1.4114         calculate D2E/DX2 analytically  !
 ! R50   R(28,44)                1.0847         calculate D2E/DX2 analytically  !
 ! R51   R(29,30)                1.3665         calculate D2E/DX2 analytically  !
 ! R52   R(29,45)                1.0855         calculate D2E/DX2 analytically  !
 ! A1    A(2,1,4)              106.8913         calculate D2E/DX2 analytically  !
 ! A2    A(2,1,13)             136.0649         calculate D2E/DX2 analytically  !
 ! A3    A(4,1,13)             117.0426         calculate D2E/DX2 analytically  !
 ! A4    A(1,2,3)              105.3251         calculate D2E/DX2 analytically  !
 ! A5    A(1,2,16)             136.7369         calculate D2E/DX2 analytically  !
 ! A6    A(3,2,16)             117.7598         calculate D2E/DX2 analytically  !
 ! A7    A(2,3,5)              110.0782         calculate D2E/DX2 analytically  !
 ! A8    A(2,3,10)             128.7502         calculate D2E/DX2 analytically  !
 ! A9    A(5,3,10)             121.1537         calculate D2E/DX2 analytically  !
 ! A10   A(1,4,5)              109.2093         calculate D2E/DX2 analytically  !
 ! A11   A(1,4,6)              128.6858         calculate D2E/DX2 analytically  !
 ! A12   A(5,4,6)              122.0117         calculate D2E/DX2 analytically  !
 ! A13   A(3,5,4)              108.1027         calculate D2E/DX2 analytically  !
 ! A14   A(3,5,9)              126.2377         calculate D2E/DX2 analytically  !
 ! A15   A(4,5,9)              125.6544         calculate D2E/DX2 analytically  !
 ! A16   A(4,6,7)              114.4038         calculate D2E/DX2 analytically  !
 ! A17   A(4,6,15)             113.5048         calculate D2E/DX2 analytically  !
 ! A18   A(7,6,15)             132.0771         calculate D2E/DX2 analytically  !
 ! A19   A(6,7,8)              122.7374         calculate D2E/DX2 analytically  !
 ! A20   A(6,7,34)             119.0454         calculate D2E/DX2 analytically  !
 ! A21   A(8,7,34)             118.2166         calculate D2E/DX2 analytically  !
 ! A22   A(7,8,9)              121.703          calculate D2E/DX2 analytically  !
 ! A23   A(7,8,35)             118.4495         calculate D2E/DX2 analytically  !
 ! A24   A(9,8,35)             119.8472         calculate D2E/DX2 analytically  !
 ! A25   A(5,9,8)              113.4752         calculate D2E/DX2 analytically  !
 ! A26   A(5,9,12)             113.3558         calculate D2E/DX2 analytically  !
 ! A27   A(8,9,12)             133.1682         calculate D2E/DX2 analytically  !
 ! A28   A(3,10,11)            114.6879         calculate D2E/DX2 analytically  !
 ! A29   A(3,10,18)            113.307          calculate D2E/DX2 analytically  !
 ! A30   A(11,10,18)           131.9956         calculate D2E/DX2 analytically  !
 ! A31   A(10,11,12)           122.8465         calculate D2E/DX2 analytically  !
 ! A32   A(10,11,37)           118.7145         calculate D2E/DX2 analytically  !
 ! A33   A(12,11,37)           118.4388         calculate D2E/DX2 analytically  !
 ! A34   A(9,12,11)            121.7136         calculate D2E/DX2 analytically  !
 ! A35   A(9,12,36)            119.7284         calculate D2E/DX2 analytically  !
 ! A36   A(11,12,36)           118.558          calculate D2E/DX2 analytically  !
 ! A37   A(1,13,14)            116.1864         calculate D2E/DX2 analytically  !
 ! A38   A(1,13,31)            122.6527         calculate D2E/DX2 analytically  !
 ! A39   A(14,13,31)           117.1486         calculate D2E/DX2 analytically  !
 ! A40   A(13,14,15)           124.3433         calculate D2E/DX2 analytically  !
 ! A41   A(13,14,32)           117.392          calculate D2E/DX2 analytically  !
 ! A42   A(15,14,32)           118.2095         calculate D2E/DX2 analytically  !
 ! A43   A(6,15,14)            120.0614         calculate D2E/DX2 analytically  !
 ! A44   A(6,15,33)            120.6998         calculate D2E/DX2 analytically  !
 ! A45   A(14,15,33)           119.1701         calculate D2E/DX2 analytically  !
 ! A46   A(2,16,17)            114.4655         calculate D2E/DX2 analytically  !
 ! A47   A(2,16,19)            125.7685         calculate D2E/DX2 analytically  !
 ! A48   A(17,16,19)           119.6691         calculate D2E/DX2 analytically  !
 ! A49   A(16,17,18)           123.66           calculate D2E/DX2 analytically  !
 ! A50   A(16,17,22)           118.1082         calculate D2E/DX2 analytically  !
 ! A51   A(18,17,22)           118.2293         calculate D2E/DX2 analytically  !
 ! A52   A(10,18,17)           120.7945         calculate D2E/DX2 analytically  !
 ! A53   A(10,18,38)           121.311          calculate D2E/DX2 analytically  !
 ! A54   A(17,18,38)           117.8935         calculate D2E/DX2 analytically  !
 ! A55   A(16,19,20)           116.9699         calculate D2E/DX2 analytically  !
 ! A56   A(16,19,23)           124.8379         calculate D2E/DX2 analytically  !
 ! A57   A(20,19,23)           117.7734         calculate D2E/DX2 analytically  !
 ! A58   A(19,20,21)           121.1675         calculate D2E/DX2 analytically  !
 ! A59   A(19,20,26)           121.2684         calculate D2E/DX2 analytically  !
 ! A60   A(21,20,26)           117.4039         calculate D2E/DX2 analytically  !
 ! A61   A(20,21,22)           121.4443         calculate D2E/DX2 analytically  !
 ! A62   A(20,21,40)           117.924          calculate D2E/DX2 analytically  !
 ! A63   A(22,21,40)           120.4499         calculate D2E/DX2 analytically  !
 ! A64   A(17,22,21)           120.9649         calculate D2E/DX2 analytically  !
 ! A65   A(17,22,39)           118.4721         calculate D2E/DX2 analytically  !
 ! A66   A(21,22,39)           120.5629         calculate D2E/DX2 analytically  !
 ! A67   A(19,23,24)           118.6233         calculate D2E/DX2 analytically  !
 ! A68   A(19,23,30)           127.6587         calculate D2E/DX2 analytically  !
 ! A69   A(24,23,30)           113.5643         calculate D2E/DX2 analytically  !
 ! A70   A(23,24,25)           120.1436         calculate D2E/DX2 analytically  !
 ! A71   A(23,24,27)           120.9563         calculate D2E/DX2 analytically  !
 ! A72   A(25,24,27)           118.8752         calculate D2E/DX2 analytically  !
 ! A73   A(24,25,26)           120.5924         calculate D2E/DX2 analytically  !
 ! A74   A(24,25,42)           118.616          calculate D2E/DX2 analytically  !
 ! A75   A(26,25,42)           120.7558         calculate D2E/DX2 analytically  !
 ! A76   A(20,26,25)           121.0417         calculate D2E/DX2 analytically  !
 ! A77   A(20,26,41)           118.3174         calculate D2E/DX2 analytically  !
 ! A78   A(25,26,41)           120.5389         calculate D2E/DX2 analytically  !
 ! A79   A(24,27,28)           121.6082         calculate D2E/DX2 analytically  !
 ! A80   A(24,27,43)           118.0176         calculate D2E/DX2 analytically  !
 ! A81   A(28,27,43)           120.3633         calculate D2E/DX2 analytically  !
 ! A82   A(27,28,29)           118.7306         calculate D2E/DX2 analytically  !
 ! A83   A(27,28,44)           120.9242         calculate D2E/DX2 analytically  !
 ! A84   A(29,28,44)           120.3103         calculate D2E/DX2 analytically  !
 ! A85   A(28,29,30)           119.2992         calculate D2E/DX2 analytically  !
 ! A86   A(28,29,45)           120.1778         calculate D2E/DX2 analytically  !
 ! A87   A(30,29,45)           120.4711         calculate D2E/DX2 analytically  !
 ! A88   A(23,30,29)           125.4993         calculate D2E/DX2 analytically  !
 ! D1    D(4,1,2,3)              6.3419         calculate D2E/DX2 analytically  !
 ! D2    D(4,1,2,16)          -168.431          calculate D2E/DX2 analytically  !
 ! D3    D(13,1,2,3)          -173.2402         calculate D2E/DX2 analytically  !
 ! D4    D(13,1,2,16)           11.9869         calculate D2E/DX2 analytically  !
 ! D5    D(2,1,4,5)             -5.4185         calculate D2E/DX2 analytically  !
 ! D6    D(2,1,4,6)            178.0868         calculate D2E/DX2 analytically  !
 ! D7    D(13,1,4,5)           174.2559         calculate D2E/DX2 analytically  !
 ! D8    D(13,1,4,6)            -2.2388         calculate D2E/DX2 analytically  !
 ! D9    D(2,1,13,14)         -176.4617         calculate D2E/DX2 analytically  !
 ! D10   D(2,1,13,31)           26.7474         calculate D2E/DX2 analytically  !
 ! D11   D(4,1,13,14)            3.9873         calculate D2E/DX2 analytically  !
 ! D12   D(4,1,13,31)         -152.8036         calculate D2E/DX2 analytically  !
 ! D13   D(1,2,3,5)             -5.0845         calculate D2E/DX2 analytically  !
 ! D14   D(1,2,3,10)           176.462          calculate D2E/DX2 analytically  !
 ! D15   D(16,2,3,5)           170.8695         calculate D2E/DX2 analytically  !
 ! D16   D(16,2,3,10)           -7.584          calculate D2E/DX2 analytically  !
 ! D17   D(1,2,16,17)         -173.1597         calculate D2E/DX2 analytically  !
 ! D18   D(1,2,16,19)           10.4521         calculate D2E/DX2 analytically  !
 ! D19   D(3,2,16,17)           12.5386         calculate D2E/DX2 analytically  !
 ! D20   D(3,2,16,19)         -163.8496         calculate D2E/DX2 analytically  !
 ! D21   D(2,3,5,4)              1.8818         calculate D2E/DX2 analytically  !
 ! D22   D(2,3,5,9)           -178.9104         calculate D2E/DX2 analytically  !
 ! D23   D(10,3,5,4)          -179.5275         calculate D2E/DX2 analytically  !
 ! D24   D(10,3,5,9)            -0.3197         calculate D2E/DX2 analytically  !
 ! D25   D(2,3,10,11)          179.0477         calculate D2E/DX2 analytically  !
 ! D26   D(2,3,10,18)           -1.9362         calculate D2E/DX2 analytically  !
 ! D27   D(5,3,10,11)            0.745          calculate D2E/DX2 analytically  !
 ! D28   D(5,3,10,18)          179.7611         calculate D2E/DX2 analytically  !
 ! D29   D(1,4,5,3)              2.324          calculate D2E/DX2 analytically  !
 ! D30   D(1,4,5,9)           -176.8896         calculate D2E/DX2 analytically  !
 ! D31   D(6,4,5,3)            179.0975         calculate D2E/DX2 analytically  !
 ! D32   D(6,4,5,9)             -0.1161         calculate D2E/DX2 analytically  !
 ! D33   D(1,4,6,7)            177.1559         calculate D2E/DX2 analytically  !
 ! D34   D(1,4,6,15)            -1.6359         calculate D2E/DX2 analytically  !
 ! D35   D(5,4,6,7)              1.0602         calculate D2E/DX2 analytically  !
 ! D36   D(5,4,6,15)          -177.7316         calculate D2E/DX2 analytically  !
 ! D37   D(3,5,9,8)           -179.9239         calculate D2E/DX2 analytically  !
 ! D38   D(3,5,9,12)            -0.2074         calculate D2E/DX2 analytically  !
 ! D39   D(4,5,9,8)             -0.8506         calculate D2E/DX2 analytically  !
 ! D40   D(4,5,9,12)           178.8659         calculate D2E/DX2 analytically  !
 ! D41   D(4,6,7,8)             -1.0525         calculate D2E/DX2 analytically  !
 ! D42   D(4,6,7,34)           179.2364         calculate D2E/DX2 analytically  !
 ! D43   D(15,6,7,8)           177.4547         calculate D2E/DX2 analytically  !
 ! D44   D(15,6,7,34)           -2.2564         calculate D2E/DX2 analytically  !
 ! D45   D(4,6,15,14)            3.4842         calculate D2E/DX2 analytically  !
 ! D46   D(4,6,15,33)         -179.5564         calculate D2E/DX2 analytically  !
 ! D47   D(7,6,15,14)         -175.0334         calculate D2E/DX2 analytically  !
 ! D48   D(7,6,15,33)            1.9259         calculate D2E/DX2 analytically  !
 ! D49   D(6,7,8,9)              0.1068         calculate D2E/DX2 analytically  !
 ! D50   D(6,7,8,35)          -179.6976         calculate D2E/DX2 analytically  !
 ! D51   D(34,7,8,9)           179.8202         calculate D2E/DX2 analytically  !
 ! D52   D(34,7,8,35)            0.0158         calculate D2E/DX2 analytically  !
 ! D53   D(7,8,9,5)              0.8292         calculate D2E/DX2 analytically  !
 ! D54   D(7,8,9,12)          -178.8141         calculate D2E/DX2 analytically  !
 ! D55   D(35,8,9,5)          -179.3691         calculate D2E/DX2 analytically  !
 ! D56   D(35,8,9,12)            0.9876         calculate D2E/DX2 analytically  !
 ! D57   D(5,9,12,11)            0.2488         calculate D2E/DX2 analytically  !
 ! D58   D(5,9,12,36)         -179.6862         calculate D2E/DX2 analytically  !
 ! D59   D(8,9,12,11)          179.8923         calculate D2E/DX2 analytically  !
 ! D60   D(8,9,12,36)           -0.0426         calculate D2E/DX2 analytically  !
 ! D61   D(3,10,11,12)          -0.7074         calculate D2E/DX2 analytically  !
 ! D62   D(3,10,11,37)         179.4345         calculate D2E/DX2 analytically  !
 ! D63   D(18,10,11,12)       -179.4915         calculate D2E/DX2 analytically  !
 ! D64   D(18,10,11,37)          0.6503         calculate D2E/DX2 analytically  !
 ! D65   D(3,10,18,17)           5.1961         calculate D2E/DX2 analytically  !
 ! D66   D(3,10,18,38)        -175.183          calculate D2E/DX2 analytically  !
 ! D67   D(11,10,18,17)       -176.0068         calculate D2E/DX2 analytically  !
 ! D68   D(11,10,18,38)          3.6141         calculate D2E/DX2 analytically  !
 ! D69   D(10,11,12,9)           0.2145         calculate D2E/DX2 analytically  !
 ! D70   D(10,11,12,36)       -179.8499         calculate D2E/DX2 analytically  !
 ! D71   D(37,11,12,9)        -179.927          calculate D2E/DX2 analytically  !
 ! D72   D(37,11,12,36)          0.0087         calculate D2E/DX2 analytically  !
 ! D73   D(1,13,14,15)          -2.2618         calculate D2E/DX2 analytically  !
 ! D74   D(1,13,14,32)        -179.5036         calculate D2E/DX2 analytically  !
 ! D75   D(31,13,14,15)        155.8445         calculate D2E/DX2 analytically  !
 ! D76   D(31,13,14,32)        -21.3973         calculate D2E/DX2 analytically  !
 ! D77   D(13,14,15,6)          -1.7192         calculate D2E/DX2 analytically  !
 ! D78   D(13,14,15,33)       -178.725          calculate D2E/DX2 analytically  !
 ! D79   D(32,14,15,6)         175.5018         calculate D2E/DX2 analytically  !
 ! D80   D(32,14,15,33)         -1.5039         calculate D2E/DX2 analytically  !
 ! D81   D(2,16,17,18)          -9.9374         calculate D2E/DX2 analytically  !
 ! D82   D(2,16,17,22)         169.4732         calculate D2E/DX2 analytically  !
 ! D83   D(19,16,17,18)        166.6901         calculate D2E/DX2 analytically  !
 ! D84   D(19,16,17,22)        -13.8993         calculate D2E/DX2 analytically  !
 ! D85   D(2,16,19,20)        -170.9805         calculate D2E/DX2 analytically  !
 ! D86   D(2,16,19,23)          16.6373         calculate D2E/DX2 analytically  !
 ! D87   D(17,16,19,20)         12.8033         calculate D2E/DX2 analytically  !
 ! D88   D(17,16,19,23)       -159.5789         calculate D2E/DX2 analytically  !
 ! D89   D(16,17,18,10)          0.6812         calculate D2E/DX2 analytically  !
 ! D90   D(16,17,18,38)       -178.9524         calculate D2E/DX2 analytically  !
 ! D91   D(22,17,18,10)       -178.7288         calculate D2E/DX2 analytically  !
 ! D92   D(22,17,18,38)          1.6376         calculate D2E/DX2 analytically  !
 ! D93   D(16,17,22,21)          4.5203         calculate D2E/DX2 analytically  !
 ! D94   D(16,17,22,39)       -175.5515         calculate D2E/DX2 analytically  !
 ! D95   D(18,17,22,21)       -176.0364         calculate D2E/DX2 analytically  !
 ! D96   D(18,17,22,39)          3.8917         calculate D2E/DX2 analytically  !
 ! D97   D(16,19,20,21)         -2.7098         calculate D2E/DX2 analytically  !
 ! D98   D(16,19,20,26)       -177.9898         calculate D2E/DX2 analytically  !
 ! D99   D(23,19,20,21)        170.2266         calculate D2E/DX2 analytically  !
 ! D100  D(23,19,20,26)         -5.0535         calculate D2E/DX2 analytically  !
 ! D101  D(16,19,23,24)        170.7481         calculate D2E/DX2 analytically  !
 ! D102  D(16,19,23,30)         -4.4326         calculate D2E/DX2 analytically  !
 ! D103  D(20,19,23,24)         -1.5783         calculate D2E/DX2 analytically  !
 ! D104  D(20,19,23,30)       -176.7589         calculate D2E/DX2 analytically  !
 ! D105  D(19,20,21,22)         -6.7633         calculate D2E/DX2 analytically  !
 ! D106  D(19,20,21,40)        178.117          calculate D2E/DX2 analytically  !
 ! D107  D(26,20,21,22)        168.6928         calculate D2E/DX2 analytically  !
 ! D108  D(26,20,21,40)         -6.4269         calculate D2E/DX2 analytically  !
 ! D109  D(19,20,26,25)          6.8529         calculate D2E/DX2 analytically  !
 ! D110  D(19,20,26,41)       -176.8001         calculate D2E/DX2 analytically  !
 ! D111  D(21,20,26,25)       -168.5983         calculate D2E/DX2 analytically  !
 ! D112  D(21,20,26,41)          7.7487         calculate D2E/DX2 analytically  !
 ! D113  D(20,21,22,17)          5.7461         calculate D2E/DX2 analytically  !
 ! D114  D(20,21,22,39)       -174.1806         calculate D2E/DX2 analytically  !
 ! D115  D(40,21,22,17)       -179.2563         calculate D2E/DX2 analytically  !
 ! D116  D(40,21,22,39)          0.817          calculate D2E/DX2 analytically  !
 ! D117  D(19,23,24,25)          6.6635         calculate D2E/DX2 analytically  !
 ! D118  D(19,23,24,27)       -171.5006         calculate D2E/DX2 analytically  !
 ! D119  D(30,23,24,25)       -177.4977         calculate D2E/DX2 analytically  !
 ! D120  D(30,23,24,27)          4.3383         calculate D2E/DX2 analytically  !
 ! D121  D(19,23,30,29)        168.9606         calculate D2E/DX2 analytically  !
 ! D122  D(24,23,30,29)         -6.4247         calculate D2E/DX2 analytically  !
 ! D123  D(23,24,25,26)         -5.1747         calculate D2E/DX2 analytically  !
 ! D124  D(23,24,25,42)        176.9866         calculate D2E/DX2 analytically  !
 ! D125  D(27,24,25,26)        173.0274         calculate D2E/DX2 analytically  !
 ! D126  D(27,24,25,42)         -4.8113         calculate D2E/DX2 analytically  !
 ! D127  D(23,24,27,28)          0.582          calculate D2E/DX2 analytically  !
 ! D128  D(23,24,27,43)        179.3821         calculate D2E/DX2 analytically  !
 ! D129  D(25,24,27,28)       -177.605          calculate D2E/DX2 analytically  !
 ! D130  D(25,24,27,43)          1.1952         calculate D2E/DX2 analytically  !
 ! D131  D(24,25,26,20)         -1.5761         calculate D2E/DX2 analytically  !
 ! D132  D(24,25,26,41)       -177.8422         calculate D2E/DX2 analytically  !
 ! D133  D(42,25,26,20)        176.2161         calculate D2E/DX2 analytically  !
 ! D134  D(42,25,26,41)         -0.0501         calculate D2E/DX2 analytically  !
 ! D135  D(24,27,28,29)         -4.0214         calculate D2E/DX2 analytically  !
 ! D136  D(24,27,28,44)        178.1217         calculate D2E/DX2 analytically  !
 ! D137  D(43,27,28,29)        177.2062         calculate D2E/DX2 analytically  !
 ! D138  D(43,27,28,44)         -0.6508         calculate D2E/DX2 analytically  !
 ! D139  D(27,28,29,30)          2.2018         calculate D2E/DX2 analytically  !
 ! D140  D(27,28,29,45)       -175.1913         calculate D2E/DX2 analytically  !
 ! D141  D(44,28,29,30)       -179.9278         calculate D2E/DX2 analytically  !
 ! D142  D(44,28,29,45)          2.6792         calculate D2E/DX2 analytically  !
 ! D143  D(28,29,30,23)          3.3361         calculate D2E/DX2 analytically  !
 ! D144  D(45,29,30,23)       -179.2787         calculate D2E/DX2 analytically  !
 --------------------------------------------------------------------------------
 Trust Radius=3.00D-01 FncErr=1.00D-07 GrdErr=1.00D-06 EigMax=2.50D+02 EigMin=1.00D-04
 Number of steps in this run=    270 maximum allowed number of steps=    270.
 Search for a saddle point of order  1.
 GradGradGradGradGradGradGradGradGradGradGradGradGradGradGradGradGradGrad

                          Input orientation:                          
 ---------------------------------------------------------------------
 Center     Atomic      Atomic             Coordinates (Angstroms)
 Number     Number       Type             X           Y           Z
 ---------------------------------------------------------------------
      1          6           0       -0.812082   -0.881510    0.570103
      2          6           0       -0.475876    0.529836    0.325939
      3          6           0       -1.701487    1.155290    0.002652
      4          6           0       -2.177001   -1.042609    0.235859
      5          6           0       -2.722068    0.200431   -0.076714
      6          6           0       -2.945232   -2.196197    0.262315
      7          6           0       -4.331125   -1.996964   -0.081582
      8          6           0       -4.857497   -0.746175   -0.391667
      9          6           0       -4.039299    0.442327   -0.390489
     10          6           0       -1.952653    2.499369   -0.250092
     11          6           0       -3.334349    2.807577   -0.576240
     12          6           0       -4.321918    1.841998   -0.646038
     13          6           0       -0.133718   -2.011679    1.031810
     14          6           0       -0.884132   -3.252297    1.033055
     15          6           0       -2.211468   -3.362592    0.655381
     16          6           0        0.690555    1.303715    0.255255
     17          6           0        0.456189    2.744340    0.130777
     18          6           0       -0.813144    3.312591   -0.118561
     19          6           0        2.056072    0.788047    0.221116
     20          6           0        3.103715    1.734093    0.347321
     21          6           0        2.828117    3.138729    0.443520
     22          6           0        1.574661    3.625360    0.282537
     23          6           0        2.420375   -0.596729   -0.090145
     24          6           0        3.813873   -0.917889   -0.285317
     25          6           0        4.814643    0.062537   -0.036979
     26          6           0        4.469600    1.337112    0.283700
     27          6           0        4.208418   -2.193426   -0.761573
     28          6           0        3.285954   -3.165549   -1.066047
     29          6           0        1.921018   -2.907757   -0.816033
     30          6           0        1.550095   -1.688346   -0.323177
     31          1           0        0.719178   -1.950340    1.693429
     32          1           0       -0.378640   -4.140958    1.395634
     33          1           0       -2.697876   -4.331453    0.708559
     34          1           0       -4.998590   -2.852799   -0.096886
     35          1           0       -5.912423   -0.675356   -0.635872
     36          1           0       -5.331558    2.149822   -0.898312
     37          1           0       -3.605201    3.839296   -0.776368
     38          1           0       -0.876968    4.392357   -0.210654
     39          1           0        1.396404    4.695188    0.264610
     40          1           0        3.667700    3.813556    0.569761
     41          1           0        5.232603    2.092224    0.438685
     42          1           0        5.856713   -0.219986   -0.143832
     43          1           0        5.267889   -2.380117   -0.900507
     44          1           0        3.598509   -4.127307   -1.458299
     45          1           0        1.180845   -3.685934   -0.974065
 ---------------------------------------------------------------------
                    Distance matrix (angstroms):
                    1          2          3          4          5
     1  C    0.000000
     2  C    1.471240   0.000000
     3  C    2.293817   1.413446   0.000000
     4  C    1.414452   2.318302   2.260809   0.000000
     5  C    2.288453   2.305649   1.399872   1.392820   0.000000
     6  C    2.524572   3.678726   3.584242   1.386234   2.430755
     7  C    3.748679   4.627498   4.105946   2.377354   2.723533
     8  C    4.160373   4.619715   3.705598   2.768884   2.356972
     9  C    3.618040   3.635782   2.475528   2.462824   1.375524
    10  C    3.661143   2.528190   1.390508   3.582190   2.430468
    11  C    4.613599   3.764691   2.394036   4.101572   2.724266
    12  C    4.606023   4.178343   2.785503   3.701266   2.361862
    13  C    1.396651   2.659817   3.680592   2.397424   3.580756
    14  C    2.416640   3.869266   4.599633   2.681371   4.065824
    15  C    2.849793   4.274553   4.593190   2.357861   3.673120
    16  C    2.670628   1.401587   2.409918   3.705198   3.601865
    17  C    3.866304   2.410573   2.682734   4.613644   4.076254
    18  C    4.250264   2.838143   2.336192   4.577498   3.651203
    19  C    3.336993   2.547238   3.781778   4.611987   4.823341
    20  C    4.714284   3.776793   4.852193   5.967282   6.039178
    21  C    5.424887   4.211475   4.964444   6.525176   6.301491
    22  C    5.107946   3.713335   4.112509   5.988913   5.506458
    23  C    3.311466   3.135370   4.479724   4.630438   5.203880
    24  C    4.704522   4.568532   5.899169   6.014794   6.634205
    25  C    5.737579   5.323502   6.607241   7.083705   7.538077
    26  C    5.735894   5.011109   6.180159   7.059934   7.289858
    27  C    5.357229   5.526432   6.835563   6.564513   7.364185
    28  C    4.968674   5.453885   6.684784   6.003808   6.957365
    29  C    3.673811   4.343529   5.504647   4.623745   5.636104
    30  C    2.651191   3.073474   4.331884   3.823708   4.677563
    31  H    2.179224   3.073997   4.285240   3.366948   4.427346
    32  H    3.390188   4.792705   5.633877   3.765494   5.148507
    33  H    3.934145   5.358714   5.620983   3.363220   4.599479
    34  H    4.675222   5.663563   5.190913   3.368809   3.808566
    35  H    5.245031   5.650983   4.635834   3.853332   3.355298
    36  H    5.636566   5.263154   3.870174   4.629167   3.359254
    37  H    5.648053   4.686180   3.381551   5.186266   3.809302
    38  H    5.331741   3.920188   3.347228   5.606096   4.581984
    39  H    6.005855   4.567204   4.711309   6.759613   6.105830
    40  H    6.489383   5.292588   6.017986   7.606205   7.368971
    41  H    6.737847   5.919502   7.010676   8.048015   8.192759
    42  H    6.739447   6.394107   7.683699   8.084642   8.589339
    43  H    6.432306   6.554604   7.866829   7.648963   8.436663
    44  H    5.839771   6.439961   7.624314   6.763287   7.783816
    45  H    3.771075   4.712478   5.718327   4.441420   5.580484
                    6          7          8          9         10
     6  C    0.000000
     7  C    1.441755   0.000000
     8  C    2.487371   1.392011   0.000000
     9  C    2.930008   2.476030   1.442909   0.000000
    10  C    4.826605   5.089453   4.357949   2.933466   0.000000
    11  C    5.088452   4.931720   3.870814   2.475049   1.452738
    12  C    4.362039   3.880248   2.655219   1.450606   2.490447
    13  C    2.920750   4.342590   5.093317   4.826867   5.030045
    14  C    2.440803   3.834063   4.908983   5.062786   5.989146
    15  C    1.432965   2.626975   3.865672   4.348818   5.937125
    16  C    5.046621   6.018738   5.949911   4.850824   2.944743
    17  C    5.999656   6.741175   6.379020   5.077440   2.451039
    18  C    5.919258   6.369375   5.736284   4.326712   1.406098
    19  C    5.824127   6.974539   7.108219   6.135726   4.384123
    20  C    7.214164   8.329561   8.371304   7.296278   5.148729
    21  C    7.862940   8.826427   8.652091   7.424793   4.872950
    22  C    7.370235   8.162194   7.806249   6.488545   3.740788
    23  C    5.610015   6.895178   7.285648   6.549598   5.360483
    24  C    6.900686   8.218692   8.673722   7.970794   6.703112
    25  C    8.087467   9.374892   9.712369   8.869132   7.195823
    26  C    8.213675   9.418187   9.580759   8.582338   6.548367
    27  C    7.226553   8.568826   9.188154   8.666587   7.761619
    28  C    6.444522   7.768826   8.521969   8.193441   7.758871
    29  C    5.034833   6.360680   7.127467   6.850513   6.675525
    30  C    4.561653   5.894265   6.476852   5.982109   5.459995
    31  H    3.941628   5.353354   6.074285   5.719325   5.542190
    32  H    3.413781   4.732971   5.897386   6.131652   7.019963
    33  H    2.195367   2.956631   4.327664   5.079006   6.937903
    34  H    2.185505   1.085448   2.131823   3.444459   6.160106
    35  H    3.453103   2.134101   1.085136   2.194999   5.089939
    36  H    5.092101   4.343242   2.977956   2.200763   3.458232
    37  H    6.159675   5.922130   4.768940   3.446265   2.191640
    38  H    6.921738   7.264385   6.502452   5.063143   2.177626
    39  H    8.144998   8.815290   8.315672   6.932737   4.037663
    40  H    8.941058   9.907956   9.715682   8.466705   5.829890
    41  H    9.235727  10.414270  10.514567   9.453986   7.229667
    42  H    9.030205  10.341836  10.729986   9.921217   8.269969
    43  H    8.297068   9.641500  10.268989   9.739099   8.738916
    44  H    7.036352   8.325431   9.169176   8.964256   8.728574
    45  H    4.557682   5.833606   6.741138   6.680794   6.971436
                   11         12         13         14         15
    11  C    0.000000
    12  C    1.382934   0.000000
    13  C    6.004589   5.933550   0.000000
    14  C    6.731676   6.370994   1.449916   0.000000
    15  C    6.391302   5.765019   2.506733   1.384422   0.000000
    16  C    4.376395   5.121227   3.503470   4.882812   5.509651
    17  C    3.856430   4.924223   4.876430   6.210493   6.684775
    18  C    2.611701   3.840882   5.489337   6.665509   6.863845
    19  C    5.811275   6.522386   3.645665   5.062452   5.968944
    20  C    6.591965   7.492558   4.998030   6.421623   7.370364
    21  C    6.255043   7.347901   5.970365   7.414416   8.228577
    22  C    5.050212   6.229950   5.937691   7.342418   7.956460
    23  C    6.703912   7.191309   3.127980   4.385588   5.446079
    24  C    8.066028   8.598732   4.302868   5.409142   6.570100
    25  C    8.615806   9.328139   5.470919   6.679007   7.847108
    26  C    7.987702   8.854948   5.741481   7.091308   8.176921
    27  C    9.051945   9.437406   4.701425   5.502360   6.677548
    28  C    8.930093   9.117656   4.174515   4.669408   5.764008
    29  C    7.767974   7.846230   2.905068   3.377381   4.410145
    30  C    6.643430   6.859162   2.185351   3.195429   4.232025
    31  H    6.649831   6.728119   1.081172   2.168361   3.414775
    32  H    7.804271   7.450747   2.173979   1.084760   2.124403
    33  H    7.281590   6.525637   3.472859   2.135309   1.085409
    34  H    5.919403   4.774994   5.064427   4.285456   2.931526
    35  H    4.333687   2.977731   6.161197   5.891490   4.752435
    36  H    2.127255   1.085251   6.932604   7.258971   6.521935
    37  H    1.085291   2.125998   7.039504   7.808260   7.473927
    38  H    2.946846   4.308314   6.565654   7.745166   7.916447
    39  H    5.162376   6.455167   6.921845   8.303847   8.837265
    40  H    7.166171   8.318606   6.971200   8.417844   9.277341
    41  H    8.656470   9.619153   6.781683   8.144423   9.231260
    42  H    9.686523  10.397525   6.362198   7.484582   8.695416
    43  H   10.050663  10.481193   5.748648   6.507436   7.702391
    44  H    9.845566   9.951157   4.960448   5.202553   6.229628
    45  H    7.919023   7.806794   2.924849   2.912164   3.777225
                   16         17         18         19         20
    16  C    0.000000
    17  C    1.464863   0.000000
    18  C    2.537012   1.412899   0.000000
    19  C    1.460040   2.528808   3.836809   0.000000
    20  C    2.452966   2.841986   4.248586   1.417211   0.000000
    21  C    2.823454   2.424746   3.688488   2.484195   1.434647
    22  C    2.484436   1.431854   2.441376   2.878519   2.432919
    23  C    2.592926   3.881955   5.073385   1.465334   2.468008
    24  C    3.870770   4.985890   6.271687   2.501311   2.817368
    25  C    4.316715   5.120189   6.499346   2.864034   2.422614
    26  C    3.779300   4.255719   5.654354   2.475986   1.423827
    27  C    5.063526   6.265544   7.479691   3.806239   4.227933
    28  C    5.334441   6.660837   7.724418   4.335934   5.102677
    29  C    4.516436   5.915097   6.830435   3.840948   4.929395
    30  C    3.166358   4.588182   5.534992   2.585496   3.817904
    31  H    3.557814   4.954903   5.773193   3.384340   4.590541
    32  H    5.664636   7.050116   7.618200   5.621602   6.909557
    33  H    6.591060   7.768449   7.916297   7.003349   8.401178
    34  H    7.054572   7.818850   7.451876   7.945133   9.321172
    35  H    6.950550   7.269201   6.494150   8.146956   9.384181
    36  H    6.189706   5.908510   4.730339   7.595040   8.536877
    37  H    5.093814   4.303107   2.916455   6.508080   7.120682
    38  H    3.494840   2.147054   1.085564   4.666926   4.819081
    39  H    3.464159   2.169729   2.634482   3.962676   3.419040
    40  H    3.906611   3.413170   4.560999   3.445664   2.166039
    41  H    4.613631   4.830548   6.192808   3.440721   2.160734
    42  H    5.400937   6.166709   7.547631   3.948948   3.411547
    43  H    5.988188   7.104651   8.366440   4.648771   4.813257
    44  H    6.394409   7.721326   8.752695   5.418510   6.153137
    45  H    5.162190   6.564619   7.327157   4.712853   5.900863
                   21         22         23         24         25
    21  C    0.000000
    22  C    1.354207   0.000000
    23  C    3.795352   4.322055   0.000000
    24  C    4.237814   5.096826   1.443285   0.000000
    25  C    3.693254   4.826311   2.483944   1.422831   0.000000
    26  C    2.442505   3.690088   2.842327   2.416358   1.358834
    27  C    5.638205   6.471871   2.489449   1.417561   2.445795
    28  C    6.498640   7.131875   2.881050   2.437255   3.717043
    29  C    6.242539   6.633886   2.473281   2.797165   4.219317
    30  C    5.051912   5.348174   1.415386   2.391595   3.715478
    31  H    5.648763   5.814714   2.812022   3.815564   4.880453
    32  H    8.011470   8.085176   4.754323   5.548958   6.833150
    33  H    9.295723   9.041401   6.386124   7.419103   8.735040
    34  H    9.871565   9.236782   7.754414   9.024350  10.237300
    35  H    9.597363   8.683090   8.351019   9.735633  10.769081
    36  H    8.328190   7.160131   8.263724   9.665688  10.394424
    37  H    6.585325   5.291315   7.513773   8.826925   9.257666
    38  H    3.965751   2.615723   5.981469   7.085780   7.153457
    39  H    2.122351   1.084725   5.401736   6.136221   5.765134
    40  H    1.084540   2.121020   4.630541   4.810311   3.969100
    41  H    2.622356   3.969311   3.926672   3.405548   2.126165
    42  H    4.560520   5.771000   3.457345   2.163396   1.084964
    43  H    6.181954   7.148796   3.456226   2.151914   2.630147
    44  H    7.550212   8.199410   3.965454   3.423833   4.588456
    45  H    7.162337   7.428941   3.443971   3.881917   5.304117
                   26         27         28         29         30
    26  C    0.000000
    27  C    3.691275   0.000000
    28  C    4.847349   1.374288   0.000000
    29  C    5.071843   2.396963   1.411387   0.000000
    30  C    4.247965   2.741164   2.397330   1.366548   0.000000
    31  H    5.182696   4.273280   3.959770   2.942527   2.196762
    32  H    7.399397   5.430242   4.521122   3.420626   3.562251
    33  H    9.147997   7.377625   6.349392   5.068084   5.108400
    34  H   10.360831   9.254490   8.346901   6.957095   6.655256
    35  H   10.615180  10.234831   9.539196   8.147323   7.537447
    36  H    9.905572  10.483017  10.126343   8.842270   7.900599
    37  H    8.519805   9.871504   9.830554   8.721433   7.572139
    38  H    6.177758   8.338897   8.670845   7.841357   6.548148
    39  H    4.552095   7.510891   8.193426   7.697258   6.412380
    40  H    2.618711   6.176460   7.178405   7.081481   5.962593
    41  H    1.084614   4.566878   5.804984   6.127048   5.332355
    42  H    2.128713   2.644418   4.016917   4.813072   4.553592
    43  H    3.982135   1.084728   2.138311   3.389260   3.825421
    44  H    5.801141   2.144134   1.084680   2.171125   3.381277
    45  H    6.134238   3.382149   2.170425   1.085537   2.133157
                   31         32         33         34         35
    31  H    0.000000
    32  H    2.468338   0.000000
    33  H    4.279711   2.426359   0.000000
    34  H    6.059087   5.023038   2.851043   0.000000
    35  H    7.143484   6.838141   5.050530   2.422159   0.000000
    36  H    7.754989   8.328715   7.178108   5.077339   2.896189
    37  H    7.636756   8.877654   8.354004   6.869306   5.071991
    38  H    6.811976   8.697468   8.959103   8.336246   7.156698
    39  H    6.831047   9.083362   9.921717   9.899431   9.114415
    40  H    6.571066   8.962657  10.338326  10.953962  10.648128
    41  H    6.187706   8.441230  10.209258  11.376177  11.533680
    42  H    5.723978   7.524866   9.529519  11.170117  11.788216
    43  H    5.253949   6.344771   8.357644  10.308726  11.312631
    44  H    4.791985   4.895185   6.661938   8.797041  10.151363
    45  H    3.215734   2.873067   4.276961   6.296743   7.713132
                   36         37         38         39         40
    36  H    0.000000
    37  H    2.418574   0.000000
    38  H    5.034403   2.840627   0.000000
    39  H    7.286752   5.179984   2.342179   0.000000
    40  H    9.268759   7.396473   4.647372   2.455438   0.000000
    41  H   10.648586   9.090401   6.560420   4.639197   2.330040
    42  H   11.461354  10.315313   8.162146   6.649821   4.644400
    43  H   11.526866  10.836431   9.170691   8.148978   6.563831
    44  H   10.929869  10.762213   9.704184   9.254950   8.196043
    45  H    8.744894   8.920449   8.371151   8.474903   8.050478
                   41         42         43         44         45
    41  H    0.000000
    42  H    2.464783   0.000000
    43  H    4.668674   2.363353   0.000000
    44  H    6.704579   4.700475   2.480047   0.000000
    45  H    7.197202   5.879271   4.291212   2.504874   0.000000
 Stoichiometry    C30H15(2)
 Framework group  C1[X(C30H15)]
 Deg. of freedom   129
 Full point group                 C1      NOp   1
 Largest Abelian subgroup         C1      NOp   1
 Largest concise Abelian subgroup C1      NOp   1
                         Standard orientation:                         
 ---------------------------------------------------------------------
 Center     Atomic      Atomic             Coordinates (Angstroms)
 Number     Number       Type             X           Y           Z
 ---------------------------------------------------------------------
      1          6           0       -0.812082   -0.881510    0.570103
      2          6           0       -0.475876    0.529836    0.325939
      3          6           0       -1.701487    1.155290    0.002652
      4          6           0       -2.177001   -1.042609    0.235859
      5          6           0       -2.722068    0.200431   -0.076714
      6          6           0       -2.945232   -2.196197    0.262315
      7          6           0       -4.331125   -1.996964   -0.081582
      8          6           0       -4.857497   -0.746175   -0.391667
      9          6           0       -4.039299    0.442327   -0.390489
     10          6           0       -1.952653    2.499369   -0.250092
     11          6           0       -3.334349    2.807577   -0.576240
     12          6           0       -4.321918    1.841998   -0.646038
     13          6           0       -0.133718   -2.011679    1.031810
     14          6           0       -0.884132   -3.252297    1.033055
     15          6           0       -2.211468   -3.362592    0.655381
     16          6           0        0.690555    1.303715    0.255255
     17          6           0        0.456189    2.744340    0.130777
     18          6           0       -0.813144    3.312591   -0.118561
     19          6           0        2.056072    0.788047    0.221116
     20          6           0        3.103715    1.734093    0.347321
     21          6           0        2.828117    3.138729    0.443520
     22          6           0        1.574661    3.625360    0.282537
     23          6           0        2.420375   -0.596729   -0.090145
     24          6           0        3.813873   -0.917889   -0.285317
     25          6           0        4.814643    0.062537   -0.036979
     26          6           0        4.469600    1.337112    0.283700
     27          6           0        4.208418   -2.193426   -0.761573
     28          6           0        3.285954   -3.165549   -1.066047
     29          6           0        1.921018   -2.907757   -0.816033
     30          6           0        1.550095   -1.688346   -0.323177
     31          1           0        0.719178   -1.950340    1.693429
     32          1           0       -0.378640   -4.140958    1.395634
     33          1           0       -2.697876   -4.331453    0.708559
     34          1           0       -4.998590   -2.852799   -0.096886
     35          1           0       -5.912423   -0.675356   -0.635872
     36          1           0       -5.331558    2.149822   -0.898312
     37          1           0       -3.605201    3.839296   -0.776368
     38          1           0       -0.876968    4.392357   -0.210654
     39          1           0        1.396404    4.695188    0.264610
     40          1           0        3.667700    3.813556    0.569761
     41          1           0        5.232603    2.092224    0.438685
     42          1           0        5.856713   -0.219986   -0.143832
     43          1           0        5.267889   -2.380117   -0.900507
     44          1           0        3.598509   -4.127307   -1.458299
     45          1           0        1.180845   -3.685934   -0.974065
 ---------------------------------------------------------------------
 Rotational constants (GHZ):           0.2722126           0.1536468           0.1022309
 Standard basis: 6-311+G(d,p) (5D, 7F)
 There are   780 symmetry adapted cartesian basis functions of A   symmetry.
 There are   750 symmetry adapted basis functions of A   symmetry.
   750 basis functions,  1200 primitive gaussians,   780 cartesian basis functions
    98 alpha electrons       97 beta electrons
       nuclear repulsion energy      2586.2668173228 Hartrees.
 NAtoms=   45 NActive=   45 NUniq=   45 SFac= 1.00D+00 NAtFMM=   60 NAOKFM=F Big=F
 Integral buffers will be    131072 words long.
 Raffenetti 2 integral format.
 Two-electron integral symmetry is turned on.
 One-electron integrals computed using PRISM.
 NBasis=   750 RedAO= T EigKep=  1.06D-06  NBF=   750
 NBsUse=   729 1.00D-06 EigRej=  9.17D-07 NBFU=   729
 ExpMin= 4.38D-02 ExpMax= 4.56D+03 ExpMxC= 6.82D+02 IAcc=2 IRadAn=         4 AccDes= 0.00D+00
 Harris functional with IExCor=  402 and IRadAn=       4 diagonalized for initial guess.
 HarFok:  IExCor=  402 AccDes= 0.00D+00 IRadAn=         4 IDoV= 1 UseB2=F ITyADJ=14
 ICtDFT=  3500011 ScaDFX=  1.000000  1.000000  1.000000  1.000000
 FoFCou: FMM=F IPFlag=           0 FMFlag=      100000 FMFlg1=           0
         NFxFlg=           0 DoJE=T BraDBF=F KetDBF=T FulRan=T
         wScrn=  0.000000 ICntrl=       500 IOpCl=  0 I1Cent=   200000004 NGrid=           0
         NMat0=    1 NMatS0=      1 NMatT0=    0 NMatD0=    1 NMtDS0=    0 NMtDT0=    0
 Petite list used in FoFCou.
 Initial guess <Sx>= 0.0000 <Sy>= 0.0000 <Sz>= 0.5000 <S**2>= 0.7500 S= 0.5000
 Requested convergence on RMS density matrix=1.00D-08 within 128 cycles.
 Requested convergence on MAX density matrix=1.00D-06.
 Requested convergence on             energy=1.00D-06.
 No special actions if energy rises.
 Restarting incremental Fock formation.
 SCF Done:  E(UB3LYP) =  -1152.43048923     A.U. after   24 cycles
            NFock= 24  Conv=0.92D-08     -V/T= 2.0044
 <Sx>= 0.0000 <Sy>= 0.0000 <Sz>= 0.5000 <S**2>= 0.7807 S= 0.5152
 <L.S>=  0.00000000000    
 Annihilation of the first spin contaminant:
 S**2 before annihilation     0.7807,   after     0.7506
 DoSCS=F DFT=T ScalE2(SS,OS)=  1.000000  1.000000
 Range of M.O.s used for correlation:     1   729
 NBasis=   750 NAE=    98 NBE=    97 NFC=     0 NFV=     0
 NROrb=    729 NOA=    98 NOB=    97 NVA=   631 NVB=   632

 **** Warning!!: The largest alpha MO coefficient is  0.13224445D+03


 **** Warning!!: The smallest alpha delta epsilon is  0.90925035D-01


 **** Warning!!: The largest beta MO coefficient is  0.12458480D+03

 Symmetrizing basis deriv contribution to polar:
 IMax=3 JMax=2 DiffMx= 0.00D+00
 G2DrvN: will do    46 centers at a time, making    1 passes.
 Calling FoFCou, ICntrl=  3107 FMM=F I1Cent=   0 AccDes= 0.00D+00.
 End of G2Drv F.D. properties file   721 does not exist.
 End of G2Drv F.D. properties file   722 does not exist.
 End of G2Drv F.D. properties file   788 does not exist.
          IDoAtm=111111111111111111111111111111111111111111111
          Differentiating once with respect to nuclear coordinates.
 CalDSu exits because no D1Ps are significant.
          There are   138 degrees of freedom in the 1st order CPHF.  IDoFFX=6 NUNeed=     0.
    132 vectors produced by pass  0 Test12= 1.23D-13 1.00D-09 XBig12= 6.61D-01 2.06D-01.
 AX will form   132 AO Fock derivatives at one time.
    132 vectors produced by pass  1 Test12= 1.23D-13 1.00D-09 XBig12= 1.56D-01 5.91D-02.
    132 vectors produced by pass  2 Test12= 1.23D-13 1.00D-09 XBig12= 3.03D-03 1.11D-02.
    132 vectors produced by pass  3 Test12= 1.23D-13 1.00D-09 XBig12= 5.21D-05 1.11D-03.
    132 vectors produced by pass  4 Test12= 1.23D-13 1.00D-09 XBig12= 4.13D-07 6.59D-05.
    132 vectors produced by pass  5 Test12= 1.23D-13 1.00D-09 XBig12= 2.74D-09 3.66D-06.
    131 vectors produced by pass  6 Test12= 1.23D-13 1.00D-09 XBig12= 1.07D-10 6.00D-07.
    117 vectors produced by pass  7 Test12= 1.23D-13 1.00D-09 XBig12= 2.19D-11 2.59D-07.
     88 vectors produced by pass  8 Test12= 1.23D-13 1.00D-09 XBig12= 3.64D-12 7.92D-08.
     44 vectors produced by pass  9 Test12= 1.23D-13 1.00D-09 XBig12= 6.98D-14 1.13D-08.
      3 vectors produced by pass 10 Test12= 1.23D-13 1.00D-09 XBig12= 8.89D-16 1.20D-09.
      2 vectors produced by pass 11 Test12= 1.23D-13 1.00D-09 XBig12= 1.50D-15 1.95D-09.
      2 vectors produced by pass 12 Test12= 1.23D-13 1.00D-09 XBig12= 7.26D-16 1.46D-09.
      2 vectors produced by pass 13 Test12= 1.23D-13 1.00D-09 XBig12= 8.67D-16 1.44D-09.
      1 vectors produced by pass 14 Test12= 1.23D-13 1.00D-09 XBig12= 4.73D-16 1.01D-09.
 InvSVY:  IOpt=1 It=  1 EMax= 1.11D-15
 Solved reduced A of dimension  1182 with   138 vectors.
 End of Minotr F.D. properties file   721 does not exist.
 End of Minotr F.D. properties file   722 does not exist.
 End of Minotr F.D. properties file   788 does not exist.

 **********************************************************************

            Population analysis using the SCF Density.

 **********************************************************************

 Orbital symmetries:
 Alpha Orbitals:
       Occupied  (A) (A) (A) (A) (A) (A) (A) (A) (A) (A) (A) (A)
                 (A) (A) (A) (A) (A) (A) (A) (A) (A) (A) (A) (A)
                 (A) (A) (A) (A) (A) (A) (A) (A) (A) (A) (A) (A)
                 (A) (A) (A) (A) (A) (A) (A) (A) (A) (A) (A) (A)
                 (A) (A) (A) (A) (A) (A) (A) (A) (A) (A) (A) (A)
                 (A) (A) (A) (A) (A) (A) (A) (A) (A) (A) (A) (A)
                 (A) (A) (A) (A) (A) (A) (A) (A) (A) (A) (A) (A)
                 (A) (A) (A) (A) (A) (A) (A) (A) (A) (A) (A) (A)
                 (A) (A)
       Virtual   (A) (A) (A) (A) (A) (A) (A) (A) (A) (A) (A) (A)
                 (A) (A) (A) (A) (A) (A) (A) (A) (A) (A) (A) (A)
                 (A) (A) (A) (A) (A) (A) (A) (A) (A) (A) (A) (A)
                 (A) (A) (A) (A) (A) (A) (A) (A) (A) (A) (A) (A)
                 (A) (A) (A) (A) (A) (A) (A) (A) (A) (A) (A) (A)
                 (A) (A) (A) (A) (A) (A) (A) (A) (A) (A) (A) (A)
                 (A) (A) (A) (A) (A) (A) (A) (A) (A) (A) (A) (A)
                 (A) (A) (A) (A) (A) (A) (A) (A) (A) (A) (A) (A)
                 (A) (A) (A) (A) (A) (A) (A) (A) (A) (A) (A) (A)
                 (A) (A) (A) (A) (A) (A) (A) (A) (A) (A) (A) (A)
                 (A) (A) (A) (A) (A) (A) (A) (A) (A) (A) (A) (A)
                 (A) (A) (A) (A) (A) (A) (A) (A) (A) (A) (A) (A)
                 (A) (A) (A) (A) (A) (A) (A) (A) (A) (A) (A) (A)
                 (A) (A) (A) (A) (A) (A) (A) (A) (A) (A) (A) (A)
                 (A) (A) (A) (A) (A) (A) (A) (A) (A) (A) (A) (A)
                 (A) (A) (A) (A) (A) (A) (A) (A) (A) (A) (A) (A)
                 (A) (A) (A) (A) (A) (A) (A) (A) (A) (A) (A) (A)
                 (A) (A) (A) (A) (A) (A) (A) (A) (A) (A) (A) (A)
                 (A) (A) (A) (A) (A) (A) (A) (A) (A) (A) (A) (A)
                 (A) (A) (A) (A) (A) (A) (A) (A) (A) (A) (A) (A)
                 (A) (A) (A) (A) (A) (A) (A) (A) (A) (A) (A) (A)
                 (A) (A) (A) (A) (A) (A) (A) (A) (A) (A) (A) (A)
                 (A) (A) (A) (A) (A) (A) (A) (A) (A) (A) (A) (A)
                 (A) (A) (A) (A) (A) (A) (A) (A) (A) (A) (A) (A)
                 (A) (A) (A) (A) (A) (A) (A) (A) (A) (A) (A) (A)
                 (A) (A) (A) (A) (A) (A) (A) (A) (A) (A) (A) (A)
                 (A) (A) (A) (A) (A) (A) (A) (A) (A) (A) (A) (A)
                 (A) (A) (A) (A) (A) (A) (A) (A) (A) (A) (A) (A)
                 (A) (A) (A) (A) (A) (A) (A) (A) (A) (A) (A) (A)
                 (A) (A) (A) (A) (A) (A) (A) (A) (A) (A) (A) (A)
                 (A) (A) (A) (A) (A) (A) (A) (A) (A) (A) (A) (A)
                 (A) (A) (A) (A) (A) (A) (A) (A) (A) (A) (A) (A)
                 (A) (A) (A) (A) (A) (A) (A) (A) (A) (A) (A) (A)
                 (A) (A) (A) (A) (A) (A) (A) (A) (A) (A) (A) (A)
                 (A) (A) (A) (A) (A) (A) (A) (A) (A) (A) (A) (A)
                 (A) (A) (A) (A) (A) (A) (A) (A) (A) (A) (A) (A)
                 (A) (A) (A) (A) (A) (A) (A) (A) (A) (A) (A) (A)
                 (A) (A) (A) (A) (A) (A) (A) (A) (A) (A) (A) (A)
                 (A) (A) (A) (A) (A) (A) (A) (A) (A) (A) (A) (A)
                 (A) (A) (A) (A) (A) (A) (A) (A) (A) (A) (A) (A)
                 (A) (A) (A) (A) (A) (A) (A) (A) (A) (A) (A) (A)
                 (A) (A) (A) (A) (A) (A) (A) (A) (A) (A) (A) (A)
                 (A) (A) (A) (A) (A) (A) (A) (A) (A) (A) (A) (A)
                 (A) (A) (A) (A) (A) (A) (A) (A) (A) (A) (A) (A)
                 (A) (A) (A) (A) (A) (A) (A) (A) (A) (A) (A) (A)
                 (A) (A) (A) (A) (A) (A) (A) (A) (A) (A) (A) (A)
                 (A) (A) (A) (A) (A) (A) (A) (A) (A) (A) (A) (A)
                 (A) (A) (A) (A) (A) (A) (A) (A) (A) (A) (A) (A)
                 (A) (A) (A) (A) (A) (A) (A) (A) (A) (A) (A) (A)
                 (A) (A) (A) (A) (A) (A) (A) (A) (A) (A) (A) (A)
                 (A) (A) (A) (A) (A) (A) (A) (A) (A) (A) (A) (A)
                 (A) (A) (A) (A) (A) (A) (A) (A) (A) (A) (A) (A)
                 (A) (A) (A) (A) (A) (A) (A)
 Beta  Orbitals:
       Occupied  (A) (A) (A) (A) (A) (A) (A) (A) (A) (A) (A) (A)
                 (A) (A) (A) (A) (A) (A) (A) (A) (A) (A) (A) (A)
                 (A) (A) (A) (A) (A) (A) (A) (A) (A) (A) (A) (A)
                 (A) (A) (A) (A) (A) (A) (A) (A) (A) (A) (A) (A)
                 (A) (A) (A) (A) (A) (A) (A) (A) (A) (A) (A) (A)
                 (A) (A) (A) (A) (A) (A) (A) (A) (A) (A) (A) (A)
                 (A) (A) (A) (A) (A) (A) (A) (A) (A) (A) (A) (A)
                 (A) (A) (A) (A) (A) (A) (A) (A) (A) (A) (A) (A)
                 (A)
       Virtual   (A) (A) (A) (A) (A) (A) (A) (A) (A) (A) (A) (A)
                 (A) (A) (A) (A) (A) (A) (A) (A) (A) (A) (A) (A)
                 (A) (A) (A) (A) (A) (A) (A) (A) (A) (A) (A) (A)
                 (A) (A) (A) (A) (A) (A) (A) (A) (A) (A) (A) (A)
                 (A) (A) (A) (A) (A) (A) (A) (A) (A) (A) (A) (A)
                 (A) (A) (A) (A) (A) (A) (A) (A) (A) (A) (A) (A)
                 (A) (A) (A) (A) (A) (A) (A) (A) (A) (A) (A) (A)
                 (A) (A) (A) (A) (A) (A) (A) (A) (A) (A) (A) (A)
                 (A) (A) (A) (A) (A) (A) (A) (A) (A) (A) (A) (A)
                 (A) (A) (A) (A) (A) (A) (A) (A) (A) (A) (A) (A)
                 (A) (A) (A) (A) (A) (A) (A) (A) (A) (A) (A) (A)
                 (A) (A) (A) (A) (A) (A) (A) (A) (A) (A) (A) (A)
                 (A) (A) (A) (A) (A) (A) (A) (A) (A) (A) (A) (A)
                 (A) (A) (A) (A) (A) (A) (A) (A) (A) (A) (A) (A)
                 (A) (A) (A) (A) (A) (A) (A) (A) (A) (A) (A) (A)
                 (A) (A) (A) (A) (A) (A) (A) (A) (A) (A) (A) (A)
                 (A) (A) (A) (A) (A) (A) (A) (A) (A) (A) (A) (A)
                 (A) (A) (A) (A) (A) (A) (A) (A) (A) (A) (A) (A)
                 (A) (A) (A) (A) (A) (A) (A) (A) (A) (A) (A) (A)
                 (A) (A) (A) (A) (A) (A) (A) (A) (A) (A) (A) (A)
                 (A) (A) (A) (A) (A) (A) (A) (A) (A) (A) (A) (A)
                 (A) (A) (A) (A) (A) (A) (A) (A) (A) (A) (A) (A)
                 (A) (A) (A) (A) (A) (A) (A) (A) (A) (A) (A) (A)
                 (A) (A) (A) (A) (A) (A) (A) (A) (A) (A) (A) (A)
                 (A) (A) (A) (A) (A) (A) (A) (A) (A) (A) (A) (A)
                 (A) (A) (A) (A) (A) (A) (A) (A) (A) (A) (A) (A)
                 (A) (A) (A) (A) (A) (A) (A) (A) (A) (A) (A) (A)
                 (A) (A) (A) (A) (A) (A) (A) (A) (A) (A) (A) (A)
                 (A) (A) (A) (A) (A) (A) (A) (A) (A) (A) (A) (A)
                 (A) (A) (A) (A) (A) (A) (A) (A) (A) (A) (A) (A)
                 (A) (A) (A) (A) (A) (A) (A) (A) (A) (A) (A) (A)
                 (A) (A) (A) (A) (A) (A) (A) (A) (A) (A) (A) (A)
                 (A) (A) (A) (A) (A) (A) (A) (A) (A) (A) (A) (A)
                 (A) (A) (A) (A) (A) (A) (A) (A) (A) (A) (A) (A)
                 (A) (A) (A) (A) (A) (A) (A) (A) (A) (A) (A) (A)
                 (A) (A) (A) (A) (A) (A) (A) (A) (A) (A) (A) (A)
                 (A) (A) (A) (A) (A) (A) (A) (A) (A) (A) (A) (A)
                 (A) (A) (A) (A) (A) (A) (A) (A) (A) (A) (A) (A)
                 (A) (A) (A) (A) (A) (A) (A) (A) (A) (A) (A) (A)
                 (A) (A) (A) (A) (A) (A) (A) (A) (A) (A) (A) (A)
                 (A) (A) (A) (A) (A) (A) (A) (A) (A) (A) (A) (A)
                 (A) (A) (A) (A) (A) (A) (A) (A) (A) (A) (A) (A)
                 (A) (A) (A) (A) (A) (A) (A) (A) (A) (A) (A) (A)
                 (A) (A) (A) (A) (A) (A) (A) (A) (A) (A) (A) (A)
                 (A) (A) (A) (A) (A) (A) (A) (A) (A) (A) (A) (A)
                 (A) (A) (A) (A) (A) (A) (A) (A) (A) (A) (A) (A)
                 (A) (A) (A) (A) (A) (A) (A) (A) (A) (A) (A) (A)
                 (A) (A) (A) (A) (A) (A) (A) (A) (A) (A) (A) (A)
                 (A) (A) (A) (A) (A) (A) (A) (A) (A) (A) (A) (A)
                 (A) (A) (A) (A) (A) (A) (A) (A) (A) (A) (A) (A)
                 (A) (A) (A) (A) (A) (A) (A) (A) (A) (A) (A) (A)
                 (A) (A) (A) (A) (A) (A) (A) (A) (A) (A) (A) (A)
                 (A) (A) (A) (A) (A) (A) (A) (A)
 The electronic state is 2-A.
 Alpha  occ. eigenvalues --  -10.20356 -10.20266 -10.20265 -10.20222 -10.19738
 Alpha  occ. eigenvalues --  -10.19654 -10.19600 -10.19585 -10.19370 -10.19149
 Alpha  occ. eigenvalues --  -10.19113 -10.19101 -10.19075 -10.19070 -10.19033
 Alpha  occ. eigenvalues --  -10.19015 -10.19008 -10.18952 -10.18689 -10.18654
 Alpha  occ. eigenvalues --  -10.18486 -10.18359 -10.18333 -10.18302 -10.18119
 Alpha  occ. eigenvalues --  -10.18084 -10.18063 -10.16914 -10.16511 -10.16441
 Alpha  occ. eigenvalues --   -0.92099  -0.89294  -0.87281  -0.85503  -0.84508
 Alpha  occ. eigenvalues --   -0.82335  -0.80965  -0.79463  -0.78758  -0.76093
 Alpha  occ. eigenvalues --   -0.74965  -0.74768  -0.72820  -0.72057  -0.71190
 Alpha  occ. eigenvalues --   -0.66640  -0.65186  -0.63689  -0.63015  -0.62285
 Alpha  occ. eigenvalues --   -0.60468  -0.59977  -0.58212  -0.56645  -0.54661
 Alpha  occ. eigenvalues --   -0.53400  -0.52363  -0.51611  -0.50891  -0.49982
 Alpha  occ. eigenvalues --   -0.49435  -0.47998  -0.47205  -0.46660  -0.44542
 Alpha  occ. eigenvalues --   -0.44466  -0.44100  -0.43871  -0.43500  -0.43318
 Alpha  occ. eigenvalues --   -0.42395  -0.41936  -0.41431  -0.41163  -0.40361
 Alpha  occ. eigenvalues --   -0.40099  -0.39825  -0.39337  -0.37886  -0.37391
 Alpha  occ. eigenvalues --   -0.36781  -0.36192  -0.35330  -0.35013  -0.34316
 Alpha  occ. eigenvalues --   -0.33523  -0.33355  -0.32776  -0.31917  -0.29618
 Alpha  occ. eigenvalues --   -0.29223  -0.28049  -0.25200  -0.25002  -0.23228
 Alpha  occ. eigenvalues --   -0.22451  -0.20921  -0.18578
 Alpha virt. eigenvalues --   -0.09486  -0.05585  -0.04571  -0.03897  -0.01670
 Alpha virt. eigenvalues --   -0.00061   0.00089   0.00478   0.00694   0.00866
 Alpha virt. eigenvalues --    0.01533   0.01645   0.01816   0.02437   0.02801
 Alpha virt. eigenvalues --    0.03099   0.03516   0.03743   0.04351   0.04536
 Alpha virt. eigenvalues --    0.04586   0.05216   0.05327   0.05797   0.05990
 Alpha virt. eigenvalues --    0.06518   0.06921   0.06957   0.07758   0.07882
 Alpha virt. eigenvalues --    0.08404   0.08516   0.08737   0.08964   0.09373
 Alpha virt. eigenvalues --    0.09777   0.10055   0.10367   0.10878   0.11295
 Alpha virt. eigenvalues --    0.11556   0.11611   0.12562   0.12663   0.12826
 Alpha virt. eigenvalues --    0.12932   0.13598   0.13954   0.14075   0.14298
 Alpha virt. eigenvalues --    0.14722   0.14883   0.15279   0.15775   0.16032
 Alpha virt. eigenvalues --    0.16172   0.16401   0.16594   0.16660   0.16765
 Alpha virt. eigenvalues --    0.17399   0.17505   0.17657   0.17931   0.18123
 Alpha virt. eigenvalues --    0.18437   0.18480   0.18843   0.18911   0.19230
 Alpha virt. eigenvalues --    0.19385   0.19454   0.19539   0.19846   0.20081
 Alpha virt. eigenvalues --    0.20305   0.20402   0.20629   0.21108   0.21336
 Alpha virt. eigenvalues --    0.21676   0.21774   0.21804   0.22117   0.22501
 Alpha virt. eigenvalues --    0.22588   0.22833   0.23175   0.23319   0.23552
 Alpha virt. eigenvalues --    0.23844   0.23916   0.24226   0.24365   0.24488
 Alpha virt. eigenvalues --    0.24808   0.24922   0.25280   0.25359   0.25559
 Alpha virt. eigenvalues --    0.25821   0.26105   0.26571   0.26705   0.26941
 Alpha virt. eigenvalues --    0.27216   0.27490   0.27993   0.28145   0.28270
 Alpha virt. eigenvalues --    0.28558   0.28634   0.28763   0.29032   0.29513
 Alpha virt. eigenvalues --    0.29878   0.30136   0.30250   0.30462   0.30541
 Alpha virt. eigenvalues --    0.31071   0.31289   0.31606   0.32130   0.32215
 Alpha virt. eigenvalues --    0.32757   0.32832   0.33359   0.33657   0.34023
 Alpha virt. eigenvalues --    0.34410   0.34762   0.34856   0.35643   0.36085
 Alpha virt. eigenvalues --    0.36479   0.36685   0.37615   0.37969   0.38505
 Alpha virt. eigenvalues --    0.39093   0.39235   0.40092   0.40287   0.40627
 Alpha virt. eigenvalues --    0.41310   0.42608   0.43141   0.43400   0.43756
 Alpha virt. eigenvalues --    0.44530   0.44827   0.46068   0.46511   0.47170
 Alpha virt. eigenvalues --    0.47872   0.48184   0.48614   0.49212   0.50225
 Alpha virt. eigenvalues --    0.51335   0.51858   0.52367   0.52899   0.53333
 Alpha virt. eigenvalues --    0.53505   0.53788   0.54257   0.54542   0.54893
 Alpha virt. eigenvalues --    0.55186   0.55522   0.55860   0.56552   0.56936
 Alpha virt. eigenvalues --    0.57331   0.57441   0.57635   0.58012   0.58110
 Alpha virt. eigenvalues --    0.58788   0.59406   0.59508   0.59815   0.60295
 Alpha virt. eigenvalues --    0.60462   0.60687   0.61501   0.62088   0.62383
 Alpha virt. eigenvalues --    0.62666   0.63044   0.64166   0.64591   0.64929
 Alpha virt. eigenvalues --    0.65091   0.65234   0.66055   0.66474   0.66685
 Alpha virt. eigenvalues --    0.67238   0.67272   0.67629   0.67834   0.68434
 Alpha virt. eigenvalues --    0.68541   0.69035   0.69773   0.70014   0.70875
 Alpha virt. eigenvalues --    0.71134   0.71278   0.71412   0.71575   0.71860
 Alpha virt. eigenvalues --    0.72256   0.72566   0.72785   0.73127   0.73609
 Alpha virt. eigenvalues --    0.73994   0.74539   0.74682   0.75264   0.75480
 Alpha virt. eigenvalues --    0.75777   0.76125   0.76692   0.77119   0.77783
 Alpha virt. eigenvalues --    0.78106   0.79214   0.79762   0.80421   0.81090
 Alpha virt. eigenvalues --    0.82398   0.83050   0.83527   0.84061   0.84330
 Alpha virt. eigenvalues --    0.84442   0.85018   0.86085   0.86989   0.87182
 Alpha virt. eigenvalues --    0.88025   0.88457   0.89200   0.89389   0.90199
 Alpha virt. eigenvalues --    0.90567   0.90777   0.91212   0.91657   0.92271
 Alpha virt. eigenvalues --    0.92492   0.92976   0.93103   0.93348   0.94194
 Alpha virt. eigenvalues --    0.94328   0.95002   0.95603   0.96096   0.96326
 Alpha virt. eigenvalues --    0.96522   0.96860   0.97409   0.97603   0.97858
 Alpha virt. eigenvalues --    0.98319   0.99379   1.00039   1.00125   1.00213
 Alpha virt. eigenvalues --    1.00957   1.01581   1.01728   1.02598   1.03532
 Alpha virt. eigenvalues --    1.03836   1.04247   1.04929   1.05164   1.06205
 Alpha virt. eigenvalues --    1.06664   1.07195   1.07593   1.08755   1.09172
 Alpha virt. eigenvalues --    1.09422   1.10125   1.10974   1.11796   1.12569
 Alpha virt. eigenvalues --    1.13185   1.13606   1.14242   1.14513   1.15452
 Alpha virt. eigenvalues --    1.16394   1.16552   1.17620   1.18050   1.18309
 Alpha virt. eigenvalues --    1.20092   1.21363   1.22549   1.23210   1.23747
 Alpha virt. eigenvalues --    1.26422   1.28316   1.29335   1.30667   1.31796
 Alpha virt. eigenvalues --    1.33058   1.34827   1.35959   1.36940   1.38474
 Alpha virt. eigenvalues --    1.39745   1.40213   1.40984   1.42300   1.43121
 Alpha virt. eigenvalues --    1.44870   1.46685   1.46860   1.47134   1.47814
 Alpha virt. eigenvalues --    1.48268   1.48844   1.49028   1.49269   1.49771
 Alpha virt. eigenvalues --    1.50556   1.50947   1.51640   1.52016   1.53018
 Alpha virt. eigenvalues --    1.53918   1.54413   1.55622   1.56010   1.56315
 Alpha virt. eigenvalues --    1.56798   1.57799   1.58136   1.58327   1.59119
 Alpha virt. eigenvalues --    1.59507   1.59674   1.60476   1.61244   1.62608
 Alpha virt. eigenvalues --    1.62688   1.66174   1.66292   1.66900   1.67009
 Alpha virt. eigenvalues --    1.68080   1.68510   1.69184   1.69346   1.70964
 Alpha virt. eigenvalues --    1.72687   1.72785   1.73164   1.73703   1.74595
 Alpha virt. eigenvalues --    1.75096   1.75593   1.76001   1.76039   1.77539
 Alpha virt. eigenvalues --    1.78407   1.78944   1.79311   1.80133   1.81172
 Alpha virt. eigenvalues --    1.82329   1.83108   1.83393   1.83934   1.84287
 Alpha virt. eigenvalues --    1.84792   1.85663   1.86093   1.86728   1.87615
 Alpha virt. eigenvalues --    1.87878   1.88177   1.88946   1.89162   1.89722
 Alpha virt. eigenvalues --    1.90121   1.90279   1.91339   1.91661   1.91779
 Alpha virt. eigenvalues --    1.92848   1.93605   1.94199   1.95076   1.95698
 Alpha virt. eigenvalues --    1.96186   1.97179   1.98329   1.98730   1.99329
 Alpha virt. eigenvalues --    2.00335   2.01276   2.02151   2.02658   2.03219
 Alpha virt. eigenvalues --    2.03440   2.04135   2.04648   2.05747   2.05961
 Alpha virt. eigenvalues --    2.06828   2.08233   2.08838   2.09058   2.10780
 Alpha virt. eigenvalues --    2.10903   2.12152   2.13282   2.13665   2.14834
 Alpha virt. eigenvalues --    2.15760   2.15833   2.17523   2.17839   2.18401
 Alpha virt. eigenvalues --    2.20318   2.21742   2.21877   2.23699   2.24291
 Alpha virt. eigenvalues --    2.24679   2.25616   2.26241   2.27473   2.28482
 Alpha virt. eigenvalues --    2.28698   2.32880   2.33357   2.35112   2.36089
 Alpha virt. eigenvalues --    2.36695   2.38844   2.40499   2.40758   2.42346
 Alpha virt. eigenvalues --    2.42742   2.43989   2.44555   2.45542   2.46518
 Alpha virt. eigenvalues --    2.47115   2.47502   2.47991   2.51825   2.53742
 Alpha virt. eigenvalues --    2.56226   2.56401   2.57147   2.58076   2.59924
 Alpha virt. eigenvalues --    2.61892   2.63136   2.63664   2.64541   2.65950
 Alpha virt. eigenvalues --    2.66703   2.67298   2.68805   2.69200   2.70405
 Alpha virt. eigenvalues --    2.70987   2.71089   2.72531   2.72964   2.73195
 Alpha virt. eigenvalues --    2.73509   2.73842   2.74741   2.74985   2.75677
 Alpha virt. eigenvalues --    2.75783   2.76066   2.76499   2.76744   2.77124
 Alpha virt. eigenvalues --    2.77222   2.77636   2.78236   2.78472   2.79211
 Alpha virt. eigenvalues --    2.80600   2.80843   2.80935   2.82199   2.82831
 Alpha virt. eigenvalues --    2.83414   2.84000   2.84573   2.85583   2.85661
 Alpha virt. eigenvalues --    2.87139   2.87942   2.88246   2.88406   2.89754
 Alpha virt. eigenvalues --    2.90473   2.91576   2.92036   2.93617   2.94718
 Alpha virt. eigenvalues --    2.95174   2.96234   2.99166   3.01339   3.02002
 Alpha virt. eigenvalues --    3.03159   3.05356   3.06096   3.08325   3.10929
 Alpha virt. eigenvalues --    3.12151   3.13304   3.13952   3.16473   3.17020
 Alpha virt. eigenvalues --    3.17876   3.18991   3.20310   3.21702   3.23130
 Alpha virt. eigenvalues --    3.23510   3.24897   3.27155   3.30506   3.31643
 Alpha virt. eigenvalues --    3.32944   3.35567   3.36140   3.37424   3.38153
 Alpha virt. eigenvalues --    3.39107   3.40490   3.42448   3.43388   3.43635
 Alpha virt. eigenvalues --    3.45258   3.46537   3.47081   3.48231   3.49146
 Alpha virt. eigenvalues --    3.50102   3.51893   3.54109   3.55793   3.56171
 Alpha virt. eigenvalues --    3.58864   3.60407   3.63515   3.63614   3.64244
 Alpha virt. eigenvalues --    3.69083   3.69564   3.73951   3.78565   3.84235
 Alpha virt. eigenvalues --    3.84388   3.89596   3.95070   4.01280   4.05538
 Alpha virt. eigenvalues --    4.06180   4.06528   4.07120   4.09261   4.10531
 Alpha virt. eigenvalues --    4.11290   4.15416   4.21467   4.26212   4.30039
 Alpha virt. eigenvalues --    4.36357   4.44635   4.67020   4.75048   4.75331
 Alpha virt. eigenvalues --    4.77008   4.81275   4.81752   4.82699   4.83443
 Alpha virt. eigenvalues --    4.87944  23.42430  23.56452  23.70308  23.78351
 Alpha virt. eigenvalues --   23.81793  23.83673  23.86093  23.88158  23.90831
 Alpha virt. eigenvalues --   23.91865  23.92768  23.95033  23.96731  23.98324
 Alpha virt. eigenvalues --   23.99032  23.99405  24.01153  24.03806  24.06457
 Alpha virt. eigenvalues --   24.09930  24.10688  24.11059  24.12553  24.12701
 Alpha virt. eigenvalues --   24.12894  24.16266  24.19094  24.20772  24.21953
 Alpha virt. eigenvalues --   24.22171
  Beta  occ. eigenvalues --  -10.20420 -10.20325 -10.20245 -10.20211 -10.19750
  Beta  occ. eigenvalues --  -10.19588 -10.19513 -10.19407 -10.19188 -10.19110
  Beta  occ. eigenvalues --  -10.19077 -10.19061 -10.19034 -10.18971 -10.18948
  Beta  occ. eigenvalues --  -10.18860 -10.18792 -10.18684 -10.18559 -10.18474
  Beta  occ. eigenvalues --  -10.18332 -10.18320 -10.18295 -10.18267 -10.18165
  Beta  occ. eigenvalues --  -10.18131 -10.18067 -10.16874 -10.16566 -10.16384
  Beta  occ. eigenvalues --   -0.91931  -0.89111  -0.87077  -0.85367  -0.84310
  Beta  occ. eigenvalues --   -0.82164  -0.80910  -0.79272  -0.78628  -0.75967
  Beta  occ. eigenvalues --   -0.74717  -0.74468  -0.72652  -0.71955  -0.71003
  Beta  occ. eigenvalues --   -0.66552  -0.65007  -0.63602  -0.62860  -0.62150
  Beta  occ. eigenvalues --   -0.60178  -0.59748  -0.57938  -0.56502  -0.54453
  Beta  occ. eigenvalues --   -0.53263  -0.52102  -0.51497  -0.50745  -0.49866
  Beta  occ. eigenvalues --   -0.49278  -0.47855  -0.47059  -0.46514  -0.44427
  Beta  occ. eigenvalues --   -0.44349  -0.43970  -0.43585  -0.43412  -0.42999
  Beta  occ. eigenvalues --   -0.42317  -0.41798  -0.41329  -0.41014  -0.40250
  Beta  occ. eigenvalues --   -0.39977  -0.39305  -0.39212  -0.37774  -0.37151
  Beta  occ. eigenvalues --   -0.36608  -0.36033  -0.35168  -0.34706  -0.34210
  Beta  occ. eigenvalues --   -0.33469  -0.33237  -0.32554  -0.31755  -0.29381
  Beta  occ. eigenvalues --   -0.28892  -0.27645  -0.25005  -0.23686  -0.22767
  Beta  occ. eigenvalues --   -0.22311  -0.20768
  Beta virt. eigenvalues --   -0.10110  -0.08217  -0.05469  -0.04016  -0.03456
  Beta virt. eigenvalues --   -0.01494  -0.00033   0.00484   0.00615   0.00707
  Beta virt. eigenvalues --    0.01172   0.01550   0.01682   0.02081   0.02564
  Beta virt. eigenvalues --    0.02814   0.03159   0.03617   0.03847   0.04372
  Beta virt. eigenvalues --    0.04576   0.04642   0.05237   0.05350   0.05880
  Beta virt. eigenvalues --    0.06058   0.06522   0.06937   0.06983   0.07826
  Beta virt. eigenvalues --    0.08038   0.08426   0.08526   0.08759   0.09044
[...]
 26,0.00001431,-0.00000265,0.00001025,-0.00002172,-0.00002312,-0.000014
 48,0.00001343,-0.00001413,0.00021297,-0.00001523,-0.00024100,-0.000079
 16,0.00000546,0.00001440,0.00002646,-0.00004499,0.00005800,-0.00001661
 ,0.00012143,-0.00004284,-0.00000239,-0.00000570,0.00001117,-0.00003311
 ,0.00003022,-0.00001567,0.00032753,-0.00048912,-0.00013490,0.00202687,
 0.00087131,0.00073201,-0.00039345,-0.00014328,-0.00002570,0.00007042,0
 .00020365,-0.00003269,-0.00042092,-0.00318668,-0.00079911,-0.01832812,
 0.00740256,0.00328952,-0.31083519,0.06674832,0.03214992,-0.00385256,-0
 .00031604,0.00038673,0.00063859,0.00219131,0.00073880,0.00020702,-0.00
 042504,-0.00018486,0.00023513,0.00002425,-0.00007288,-0.00079611,0.000
 16688,0.00047372,-0.00000384,0.00000338,-0.00000128,0.00000242,-0.0000
 1207,-0.00000864,-0.00000480,-0.00000569,-0.00000708,-0.00001035,-0.00
 000923,0.00000219,-0.00000826,0.00000073,-0.00000071,-0.00000434,0.000
 00056,-0.00000088,-0.00000096,0.00000992,-0.00000107,0.00000080,0.0000
 0887,-0.00000235,-0.00004212,0.00001242,0.00000396,0.00000736,0.000014
 28,0.00001320,0.00080480,0.00035512,-0.00025045,0.32964026,-0.00012850
 ,-0.00000633,0.00002765,0.00009087,-0.00012008,0.00002177,-0.00009915,
 0.00001296,-0.00004703,0.00014766,0.00002407,0.00005764,0.00002902,0.0
 0006922,-0.00000963,-0.00006554,-0.00002344,-0.00001350,0.00004550,-0.
 00001791,0.00001759,-0.00003005,0.00003500,-0.00001322,-0.00000747,-0.
 00004252,0.00000253,0.00001617,-0.00001078,0.00001473,-0.00003522,0.00
 002719,-0.00000105,0.00003787,0.00001954,0.00000664,0.00003873,0.00003
 228,-0.00010177,-0.00004088,-0.00002448,0.00001083,0.00000811,0.000026
 33,-0.00000315,-0.00012251,0.00017104,0.00029565,-0.00009369,-0.000067
 45,-0.00007449,0.00000181,0.00003569,-0.00000922,0.00005462,-0.0004296
 7,0.00003315,-0.00048437,-0.00445848,-0.00337684,0.00127821,0.00033372
 ,0.00005667,0.00002881,-0.00052877,0.00015044,-0.00229636,-0.00241662,
 -0.00185946,-0.02075995,0.00725603,0.00225212,0.06640943,-0.07295126,-
 0.01418204,0.03045795,-0.00341369,-0.00380251,-0.00173539,0.00045076,0
 .00100518,0.00040656,0.00005191,0.00005826,-0.00006144,0.00011327,0.00
 003175,-0.00078307,0.00006347,0.00032182,-0.00000100,-0.00000173,0.000
 00285,-0.00000155,-0.00000437,0.00000130,-0.00000082,-0.00000151,-0.00
 000117,0.00000030,0.00000108,-0.00000133,0.00000429,0.00000203,-0.0000
 0046,-0.00000199,0.00000353,-0.00000157,0.00000217,-0.00000663,0.00000
 065,-0.00000497,0.00000048,-0.00000127,0.00013620,-0.00005992,0.000037
 53,-0.00003230,-0.00003977,-0.00004436,-0.00026974,0.00059347,0.001493
 88,-0.07254503,0.07560751,0.00014266,0.00020534,-0.00007645,0.00006087
 ,-0.00012400,0.00002455,-0.00003784,0.00007835,0.00002357,-0.00016103,
 0.00000326,-0.00005295,0.00007189,-0.00004373,0.00003791,-0.00000998,0
 .00013224,-0.00001151,0.00004377,-0.00004047,0.00001768,0.00004219,0.0
 0008697,-0.00000353,-0.00013316,0.00002219,-0.00004144,-0.00007163,-0.
 00006732,-0.00001146,0.00004653,-0.00000592,0.00001752,-0.00002379,-0.
 00005968,-0.00000060,0.00033452,-0.00017234,-0.00018669,-0.00014592,-0
 .00003282,-0.00001412,0.00013686,-0.00010711,0.00005672,0.00011291,0.0
 0012044,-0.00082506,-0.00010840,-0.00002304,0.00006594,0.00008926,0.00
 003204,0.00004082,-0.00050898,-0.00090953,-0.00097076,0.00082643,-0.00
 327373,0.00811226,0.00065032,0.00012157,0.00005777,0.00011245,-0.00016
 648,-0.00041685,-0.00119012,-0.00101046,0.00404610,-0.00301175,0.00164
 209,0.00372616,0.03232560,-0.01619131,-0.04267072,0.00765129,-0.000124
 62,0.00416561,-0.00106890,0.00066541,-0.00226089,0.00031886,0.00026951
 ,-0.00025441,-0.00034838,0.00004550,0.00009241,-0.00026143,-0.00015188
 ,0.00029049,-0.00000439,0.00000770,0.00003806,0.00000011,0.00000023,0.
 00000178,0.00000211,0.00000203,-0.00000572,0.00000398,0.00000082,0.000
 00247,0.00000036,0.00000172,-0.00000092,-0.00000139,-0.00000100,0.0000
 0202,-0.00000055,-0.00000060,0.00000176,0.00000036,0.00000220,-0.00000
 372,0.00004580,-0.00001463,0.00004986,-0.00003755,-0.00001278,0.000066
 08,-0.00034297,0.00133221,-0.00482926,-0.03567085,0.01798901,0.0312227
 8,-0.00000952,-0.00005111,0.00009307,0.00000169,-0.00002096,0.00005682
 ,-0.00004641,0.00002976,-0.00001058,0.00003770,-0.00001402,0.00001771,
 -0.00001228,0.00004515,-0.00003940,-0.00003716,-0.00002537,-0.00003478
 ,0.00004318,0.00003041,-0.00001966,-0.00002451,0.00003177,0.00000315,0
 .00001511,-0.00003916,0.00002818,0.00005803,0.00000599,-0.00001085,0.0
 0001600,-0.00003302,-0.00003087,-0.00003392,0.00000909,-0.00002176,-0.
 00009593,0.00001076,-0.00000966,-0.00002680,0.00006714,0.00003665,0.00
 000781,-0.00003738,0.00005950,0.00002697,0.00017778,0.00001561,-0.0000
 8518,-0.00001622,-0.00001130,-0.00000216,0.00001604,-0.00001429,-0.000
 42720,-0.00041491,0.00002289,0.00026082,-0.00020339,0.00006468,0.00002
 944,0.00000284,0.00002452,0.00003440,0.00004908,-0.00002535,0.00146561
 ,0.00130676,0.00056494,-0.00727624,-0.00007256,0.00101366,0.00051367,-
 0.00206702,-0.00104619,0.00021517,0.00046519,-0.00000495,-0.31884720,0
 .04312626,0.04334226,-0.01616516,0.00615763,0.00437992,-0.00075738,-0.
 00403977,-0.00078163,0.00099583,-0.00039957,-0.00033330,0.00001704,-0.
 00000673,-0.00004750,0.00000657,0.00000471,-0.00003132,-0.00000436,-0.
 00000320,-0.00000505,-0.00001037,-0.00000836,0.00000277,-0.00001060,0.
 ,0.00000024,0.00000775,-0.00000301,0.00000242,-0.00000307,0.00001939,-
 0.00000313,-0.00000522,0.00000774,0.00000158,0.00000094,0.00000590,0.0
 0000994,0.00000288,0.00001362,0.00000482,-0.00002043,0.00005756,0.0000
 1745,0.00074000,0.00034241,0.00006507,0.33947065,-0.00005494,0.0000470
 4,-0.00002370,-0.00000939,-0.00004057,-0.00000704,-0.00005235,0.000027
 76,-0.00000717,0.00002808,0.00002467,0.00001395,0.00004040,0.00001698,
 0.00000551,-0.00004612,0.00001826,-0.00001568,0.00004625,-0.00002826,0
 .00001859,0.00000450,0.00004807,-0.00000837,-0.00004069,-0.00000893,-0
 .00001054,-0.00000840,-0.00001487,0.00000478,0.00000149,0.00000111,0.0
 0000133,0.00000290,-0.00000503,0.00000320,0.00028800,0.00004935,-0.000
 05343,-0.00000636,-0.00002458,-0.00002410,0.00005932,-0.00001092,0.000
 02578,-0.00011672,-0.00040409,-0.00012577,0.00010460,0.00001738,0.0000
 3743,-0.00000979,-0.00003706,0.00001670,0.00131057,0.00018600,-0.00016
 493,0.00024126,0.00009791,-0.00002391,-0.00011106,0.00002685,-0.000004
 27,0.00003244,-0.00002353,0.00001583,-0.00021516,-0.00382764,-0.002867
 76,0.02724804,-0.00231372,-0.00455082,0.00219213,0.00024571,0.00109235
 ,-0.00044332,0.00015844,0.00010967,0.04248002,-0.06168889,-0.01445408,
 -0.02316894,0.00779817,0.00357585,-0.00328847,-0.00172032,-0.00308568,
 -0.00050780,-0.00112246,0.00016101,-0.00002033,0.00001062,0.00007684,0
 .00000121,0.00000796,-0.00001779,0.00000006,0.00000051,0.00000130,0.00
 000077,-0.00000125,-0.00000004,-0.00000026,0.00000160,-0.00000070,-0.0
 0000234,0.00000098,-0.00000102,0.00000060,-0.00000132,-0.00000024,0.00
 001580,-0.00000656,-0.00000579,-0.00000618,0.,-0.00000228,0.00000299,-
 0.00002872,-0.00000742,-0.00000439,-0.00000093,-0.00007556,-0.00089566
 ,-0.00033808,-0.00016704,-0.04475566,0.06256677,0.00020430,-0.00029391
 ,0.00007229,-0.00003009,0.00003901,0.00003821,0.00005839,-0.00001845,-
 0.00001294,-0.00005524,-0.00002537,-0.00007324,-0.00001677,-0.00005226
 ,0.00001082,0.00008350,-0.00003708,0.00003242,-0.00005096,0.00004944,-
 0.00001213,-0.00000164,-0.00004827,0.00000290,0.00000763,0.00000599,0.
 00000750,-0.00001138,0.00001500,-0.00000734,-0.00001547,0.00002240,0.0
 0000640,0.00002455,-0.00000143,0.00000804,-0.00091161,0.00006437,0.000
 38619,0.00000370,0.00010631,0.00008934,-0.00006262,0.00006755,-0.00004
 107,-0.00002604,-0.00022731,0.00016721,0.00004454,-0.00000737,-0.00006
 657,0.00002306,-0.00004090,-0.00001519,0.00050790,-0.00004969,0.000097
 21,0.00006493,0.00006682,-0.00000707,-0.00004096,0.00003519,0.00003375
 ,0.00001227,-0.00000068,-0.00002403,0.00153420,-0.00257825,0.00358365,
 0.00987920,-0.00046709,0.00135005,0.00051455,0.00132270,-0.00280601,-0
 .00023502,0.00007220,0.00000123,0.04313559,-0.01548258,-0.04458030,-0.
 00640748,0.00120484,0.00528537,-0.00032974,-0.00345690,0.00616717,0.00
 031129,-0.00041337,-0.00171594,0.00002851,-0.00005038,-0.00016467,0.00
 000849,0.00001376,-0.00001123,-0.00000002,-0.00000027,0.00000063,0.000
 00096,0.00000184,-0.00000162,0.00000152,0.00000099,0.00000012,-0.00000
 038,0.00000182,-0.00000010,0.00000066,-0.00000175,0.00000135,0.0000009
 1,-0.00000102,0.00002819,-0.00000045,-0.00000110,-0.00000522,-0.000001
 17,-0.00000942,0.00000694,0.00000578,-0.00002847,0.00015305,-0.0004058
 8,-0.00027285,0.00021543,-0.04707625,0.01854062,0.03551488,-0.00014603
 ,-0.00021277,0.00018693,-0.00004094,-0.00021962,0.00003330,-0.00011958
 ,-0.00004886,-0.00003457,0.00029082,0.00001963,0.00008833,0.00003925,0
 .00013861,-0.00001800,-0.00008985,-0.00014052,0.00000027,0.00007888,-0
 .00001370,0.00002431,-0.00006148,0.00007528,-0.00002809,-0.00004844,-0
 .00008421,-0.00000850,0.00008517,0.00007950,0.00001753,-0.00003667,0.0
 0001759,-0.00000311,0.00003999,0.00001859,0.00000928,-0.00040992,0.000
 40583,0.00019875,0.00007647,0.00015338,0.00001372,-0.00012873,0.000052
 53,-0.00009641,-0.00000619,0.00002074,-0.00000658,0.00010120,-0.000034
 43,0.00000502,-0.00012172,0.00004654,-0.00002322,0.00009438,0.00034864
 ,-0.00004223,-0.00029824,0.00008496,-0.00000863,0.00012051,-0.00004666
 ,0.00000130,-0.00011578,-0.00006950,-0.00000599,-0.00084104,-0.0008216
 8,-0.00026140,-0.00256335,-0.00318993,-0.00002128,0.00080839,-0.000536
 50,-0.00016967,-0.00009078,-0.00041548,-0.00012202,0.01034796,-0.01977
 491,-0.00823443,-0.08072114,0.06998816,0.03159613,-0.00464365,0.027220
 14,0.01081028,-0.00395503,0.00079647,0.00188733,0.00005133,-0.00003327
 ,-0.00005278,-0.00000590,-0.00003631,0.00004323,-0.00002220,-0.0000141
 2,0.00000305,-0.00001152,-0.00000638,0.00000189,-0.00000345,0.00000499
 ,-0.00000195,-0.00000781,0.00000563,-0.00000135,-0.00000114,0.00000501
 ,-0.00000013,0.00000090,0.00000302,-0.00000059,0.00000270,0.00000371,0
 .00000098,0.00000515,0.00000561,0.00000018,0.00002592,-0.00011056,-0.0
 0001783,-0.00002559,0.00002623,-0.00000182,0.00077911,0.00064834,-0.00
 031945,0.08048346,0.00007620,0.00013679,-0.00002485,0.00001760,-0.0000
 4761,0.00006108,-0.00000575,0.00005106,-0.00000759,-0.00009806,-0.0000
 1597,-0.00001912,-0.00002747,-0.00002427,-0.00002455,0.00001704,0.0000
 5790,-0.00002545,-0.00001355,0.00003766,-0.00003365,-0.00000159,-0.000
 01227,0.00001481,0.00006649,-0.00002725,0.00004165,0.00004502,-0.00002
 637,-0.00001031,-0.00001456,-0.00002417,-0.00003894,-0.00003012,0.0000
 3734,-0.00002374,0.00002460,-0.00018944,0.00003374,-0.00000398,-0.0000
 2516,-0.00000999,0.00002646,-0.00004700,0.00005886,0.00002590,-0.00002
 190,-0.00002419,0.00007114,0.00002594,0.00000472,-0.00002485,0.0000027
 2,-0.00000238,0.00000888,0.00005116,0.00038355,-0.00014177,0.00007262,
 0.00000969,0.00009691,-0.00008060,0.00000615,-0.00008549,0.00000732,-0
 .00003575,-0.00032333,0.00006508,0.00025575,-0.00385758,0.00010777,-0.
 00287311,0.00087141,-0.00044544,-0.00035302,-0.00026691,-0.00034302,0.
 00007219,0.00930468,-0.01487555,-0.00784516,0.06848465,-0.27129021,-0.
 09692265,-0.00150383,-0.00080849,-0.00128556,0.00089225,0.00167318,-0.
 00160575,-0.00005023,0.00000006,0.00000664,-0.00000435,0.00001185,-0.0
 0000144,0.00000949,0.00000916,-0.00000272,-0.00000029,0.00000299,0.000
 00212,0.00000234,-0.00000357,0.00000249,0.00001907,-0.00000575,0.00000
 385,0.00000062,0.00000437,-0.00000134,0.00000087,-0.00000609,-0.000000
 04,0.00000843,-0.00000763,0.00000229,-0.00001079,-0.00000618,0.0000024
 1,0.00002577,-0.00011993,-0.00001375,-0.00005223,0.00002119,-0.0000309
 4,-0.00009136,0.00017108,0.00182533,-0.07404475,0.28579390,-0.00000220
 ,-0.00032291,0.00009760,-0.00003957,0.00030469,-0.00011906,0.00018436,
 -0.00001258,0.00005553,-0.00001334,0.00002295,-0.00003802,-0.00002413,
 -0.00007212,0.00000731,0.00008077,-0.00006154,0.00003987,-0.00002875,0
 .00002189,-0.00001363,0.00002562,-0.00003861,0.00000914,0.00004262,0.0
 0002907,0.00000746,0.00001360,0.00001900,-0.00001577,0.00000637,-0.000
 00512,-0.00001141,-0.00001655,0.00001381,-0.00000377,-0.00038635,0.000
 02603,0.00003727,0.00017145,0.00006014,0.00001160,-0.00009352,-0.00001
 354,-0.00002194,-0.00007051,-0.00001496,0.00004090,-0.00009691,0.00001
 962,-0.00001258,0.00004270,-0.00003606,0.00000839,0.00013607,0.0002001
 6,-0.00082974,-0.00009823,-0.00023042,0.00012459,-0.00010649,0.0001013
 5,0.00005694,0.00012916,0.00003780,0.00000123,-0.00002649,0.00055738,-
 0.00029253,-0.00079598,-0.00232708,0.00748692,0.00030812,-0.00028762,0
 .00019763,-0.00011870,0.00005831,-0.00053308,0.00280765,-0.00492978,0.
 00139421,0.03079232,-0.09673153,-0.07638453,0.00111569,-0.00522266,0.0
 0136192,0.00171888,-0.00120063,0.00439837,0.00015641,-0.00003105,-0.00
 008623,0.00001890,0.00001491,-0.00001059,0.00000711,0.00000904,0.00000
 269,0.00000322,0.00000230,0.00000162,0.00000017,-0.00000120,0.00000289
 ,0.00000408,-0.00000204,0.00000164,0.00000011,-0.00000203,0.00000092,-
 0.00000015,-0.00000082,0.00000952,0.00000056,-0.00000366,0.00000596,-0
 .00000217,0.00000438,-0.00000117,0.00001213,-0.00002286,-0.00002139,-0
 .00001448,-0.00002729,0.00010481,-0.00056826,0.00169511,-0.00389185,-0
 .03466756,0.10739615,0.06925494,0.00065994,-0.00076144,-0.00001168,0.0
 0006274,0.00044128,-0.00010374,0.00021904,0.00002125,0.00006448,-0.000
 32169,0.00001762,-0.00025416,-0.00006227,-0.00021176,0.00000950,0.0002
 7597,-0.00016609,0.00015318,-0.00025852,0.00012832,-0.00007076,0.00004
 435,-0.00024814,0.00003594,0.00008593,0.00012490,0.00001165,-0.0000993
 4,-0.00002287,-0.00001168,0.00003214,0.00002460,0.00002080,-0.00000567
 ,-0.00003312,0.00001804,-0.00121272,0.00071214,0.00137556,0.00089077,0
 .00030731,0.00012431,-0.00077219,0.00022885,-0.00033266,-0.00002945,-0
 .00012615,0.00006846,-0.00012675,0.00001457,-0.00001392,0.00013055,-0.
 00006594,0.00002677,0.00045301,-0.00001009,-0.00007561,0.00011531,0.00
 007044,-0.00012241,-0.00005180,0.00011528,-0.00000686,0.00011364,0.000
 03809,0.00001865,-0.00006971,0.00227279,0.00203845,0.00002811,0.000656
 31,0.00016316,-0.00011683,-0.00022389,-0.00022805,-0.00008024,0.000167
 74,0.00009113,-0.00433520,0.00236209,0.00250805,-0.01623963,-0.0232461
 3,-0.00380692,-0.18005556,-0.13542674,-0.01783673,0.00985621,0.0062794
 1,0.00002434,0.00011419,-0.00001833,-0.00024413,-0.00012502,0.00014705
 ,0.00019326,-0.00000745,-0.00000134,0.00000445,0.00000522,0.00001026,-
 0.00000495,0.00000860,-0.00000550,0.00000503,0.00000424,-0.00000288,0.
 00000002,0.00000189,-0.00001150,0.00000121,-0.00000238,-0.00000391,0.0
 0000123,0.00000028,-0.00000413,-0.00000422,-0.00000826,0.00001631,0.00
 000120,-0.00000223,-0.00001157,0.00000606,0.00005038,0.00003805,0.0000
 5658,-0.00084528,-0.00098545,-0.00045784,0.00108460,0.00055702,-0.0006
 0775,0.19059107,0.00055205,-0.00023028,-0.00012211,0.00005546,0.000111
 28,-0.00004927,0.00006246,0.00015393,-0.00000908,-0.00037644,-0.000009
 84,-0.00024813,0.00000689,-0.00022684,0.00006763,0.00003232,0.00029979
 ,-0.00004458,0.00010313,-0.00004913,0.00006183,0.00006775,0.00012032,-
 0.00001240,-0.00008345,-0.00004949,-0.00000629,0.00003039,-0.00007391,
 0.00002244,-0.00010254,0.00000660,-0.00001240,0.00004709,0.00006519,0.
 00000545,-0.00022436,-0.00023987,0.00050129,-0.00007792,0.00022191,-0.
 00004622,0.00045700,-0.00009689,0.00026366,-0.00007982,-0.00004420,-0.
 00000455,0.00006889,0.00002004,-0.00003657,-0.00000544,-0.00002084,0.0
 0000579,-0.00089686,0.00009710,-0.00007072,0.00016652,-0.00027303,0.00
 011752,-0.00005621,-0.00004138,-0.00001132,-0.00005353,-0.00004773,0.0
 0000657,0.00089332,-0.00233975,-0.00333247,0.00066256,-0.00008372,0.00
 013414,-0.00000991,0.00004310,0.00024783,0.00006059,-0.00002700,-0.000
 03030,0.00113102,0.00117864,-0.00145899,0.00602241,0.00759616,-0.00042
 980,-0.13915986,-0.19349892,-0.02757766,-0.01596412,-0.02225913,-0.004
 04435,-0.00004119,0.00001339,0.00009238,-0.00007035,0.00018866,-0.0000
 4162,-0.00001736,0.00001141,0.00000623,0.00000777,0.00000244,-0.000004
 13,0.00000061,0.00000483,-0.00000581,0.00000359,0.00000330,-0.00000077
 ,0.00000104,-0.00000285,-0.00000036,0.00000358,-0.00000612,0.00000619,
 0.00000382,-0.00000539,-0.00000150,0.00000345,-0.00003999,0.00000347,-
 0.00001320,-0.00000302,-0.00001576,-0.00005120,0.00001171,-0.00002937,
 0.00031980,0.00012448,0.00010999,-0.00031499,0.00011273,0.00100398,0.1
 4683525,0.20928231,0.00071611,-0.00139212,0.00042632,0.00002025,0.0003
 5249,0.00002438,0.00023732,-0.00010556,0.00002936,-0.00019891,-0.00008
 804,-0.00030115,-0.00003103,-0.00020767,0.00002923,0.00014546,-0.00010
 541,0.00001217,-0.00006540,0.00018710,-0.00005729,-0.00002700,-0.00008
 515,0.00000530,0.00000090,-0.00000597,0.00003433,0.00000508,0.00016117
 ,-0.00001240,-0.00002743,0.00008157,-0.00000776,0.00008457,-0.00000921
 ,0.00002490,-0.00439043,-0.00033994,0.00124259,-0.00017242,0.00018466,
 0.00053151,0.00002565,0.00022087,0.00007678,-0.00001376,-0.00003100,0.
 00008348,-0.00001641,0.00004182,-0.00001641,0.00000276,-0.00007425,0.0
 0001068,-0.00069994,0.00014120,0.00039092,-0.00028091,-0.00026126,-0.0
 0049162,-0.00003992,0.00001826,-0.00002374,-0.00005985,0.00000177,-0.0
 0000792,0.00145384,-0.00504078,0.00514412,0.00092125,-0.00092393,-0.00
 116414,0.00009457,0.00063050,-0.00053546,0.00035045,-0.00026856,0.0000
 3166,0.00267568,-0.00026413,0.00478595,0.00258963,0.00453849,0.0062742
 5,-0.01526201,-0.02998175,-0.04253310,-0.00538276,-0.00364960,-0.00250
 395,0.00044714,-0.00021975,-0.00099727,0.00023427,0.00022688,-0.000454
 62,-0.00001000,-0.00000791,0.00003211,-0.00000785,-0.00000557,0.000003
 34,-0.00000876,0.00000938,0.00000296,-0.00000154,0.00000719,-0.0000034
 9,0.00000415,0.00000427,0.00000129,-0.00000105,0.00000361,0.00000508,0
 .00000424,0.00000166,-0.00000322,-0.00000054,-0.00001995,-0.00000983,-
 0.00000239,-0.00001181,0.00004656,-0.00000956,-0.00004547,0.00015649,0
 .00029821,0.00030928,0.00017618,-0.00077422,0.00103250,-0.00243461,0.0
 1717258,0.03499013,0.03197603\\-0.00000861,0.00000946,-0.00000379,0.00
 000106,-0.00000817,-0.00000381,-0.00000192,0.00000262,-0.00000072,-0.0
 0000043,0.00000259,0.00000348,-0.00000036,-0.00000152,0.00000290,-0.00
 000325,0.00000294,-0.00000030,0.00000222,-0.00000171,-0.00000152,0.000
 00037,0.00000122,-0.00000179,-0.00000180,0.00000021,-0.00000133,0.0000
 0084,0.00000109,-0.00000064,-0.00000030,-0.00000067,-0.00000121,0.0000
 0100,0.00000010,-0.00000206,0.00001652,0.00000451,-0.00001190,-0.00000
 429,-0.00000482,0.00000033,0.00000521,-0.00000244,0.00000187,-0.000004
 13,0.00000080,-0.00000053,0.00000288,0.00000029,-0.00000145,-0.0000002
 5,-0.00000008,0.00000196,0.00000053,-0.00000094,-0.00000130,-0.0000009
 0,0.00000190,-0.00000002,-0.00000055,-0.00000022,-0.00000207,-0.000000
 15,-0.00000100,0.00000083,0.00000372,0.00000104,0.00000432,-0.00000026
 ,-0.00000109,0.00000255,-0.00000011,0.00000125,0.00000007,-0.00000020,
 -0.00000016,-0.00000107,-0.00000017,-0.00000042,0.00000185,-0.00000005
 ,0.00000043,-0.00000066,0.00000133,-0.00000028,-0.00000015,-0.00001172
 ,-0.00000661,0.00001296,0.00000217,0.00000045,0.00000034,-0.00000009,0
 .00000013,0.00000084,0.00000004,0.00000014,0.00000105,-0.00000005,0.,0
 .00000046,0.00000004,-0.00000006,-0.00000044,0.00000010,-0.00000020,-0
 .00000114,0.00000019,-0.00000016,-0.00000145,0.00000060,-0.00000003,-0
 .00000134,0.00000029,0.00000012,-0.00000159,-0.00000001,0.00000021,-0.
 00000079,-0.00000016,0.00000030,0.00000017,-0.00000001,-0.00000027,0.0
 0000171,0.00000021,-0.00000048,0.00000191,0.00000025,-0.00000039,0.000
 00183,0.00000021,-0.00000011,0.00000165\\\@


 COMMON SENSE IS NOT SO COMMON.   -- VOLTAIRE
 Job cpu time:       2 days  1 hours 21 minutes 43.6 seconds.
 Elapsed time:       0 days  2 hours 28 minutes 29.1 seconds.
 File lengths (MBytes):  RWF=   4303 Int=      0 D2E=      0 Chk=     63 Scr=      1
 Normal termination of Gaussian 16 at Thu Jul  4 04:29:46 2019.
