 Entering Gaussian System, Link 0=/share/apps/gaussian16/g16/g16
 Initial command:
 /share/apps/gaussian16/g16/l1.exe "/home/amen01//scratch/756/Gau-28662.inp" -scrdir="/home/amen01//scratch/756/"
 Entering Link 1 = /share/apps/gaussian16/g16/l1.exe PID=     28663.
  
 Copyright (c) 1988-2017, Gaussian, Inc.  All Rights Reserved.
  
 This is part of the Gaussian(R) 16 program.  It is based on
 the Gaussian(R) 09 system (copyright 2009, Gaussian, Inc.),
 the Gaussian(R) 03 system (copyright 2003, Gaussian, Inc.),
 the Gaussian(R) 98 system (copyright 1998, Gaussian, Inc.),
 the Gaussian(R) 94 system (copyright 1995, Gaussian, Inc.),
 the Gaussian 92(TM) system (copyright 1992, Gaussian, Inc.),
 the Gaussian 90(TM) system (copyright 1990, Gaussian, Inc.),
 the Gaussian 88(TM) system (copyright 1988, Gaussian, Inc.),
 the Gaussian 86(TM) system (copyright 1986, Carnegie Mellon
 University), and the Gaussian 82(TM) system (copyright 1983,
 Carnegie Mellon University). Gaussian is a federally registered
 trademark of Gaussian, Inc.
  
 This software contains proprietary and confidential information,
 including trade secrets, belonging to Gaussian, Inc.
  
 This software is provided under written license and may be
 used, copied, transmitted, or stored only in accord with that
 written license.
  
 The following legend is applicable only to US Government
 contracts under FAR:
  
                    RESTRICTED RIGHTS LEGEND
  
 Use, reproduction and disclosure by the US Government is
 subject to restrictions as set forth in subparagraphs (a)
 and (c) of the Commercial Computer Software - Restricted
 Rights clause in FAR 52.227-19.
  
 Gaussian, Inc.
 340 Quinnipiac St., Bldg. 40, Wallingford CT 06492
  
  
 ---------------------------------------------------------------
 Warning -- This program may not be used in any manner that
 competes with the business of Gaussian, Inc. or will provide
 assistance to any competitor of Gaussian, Inc.  The licensee
 of this program is prohibited from giving any competitor of
 Gaussian, Inc. access to this program.  By using this program,
 the user acknowledges that Gaussian, Inc. is engaged in the
 business of creating and licensing software in the field of
 computational chemistry and represents and warrants to the
 licensee that it is not a competitor of Gaussian, Inc. and that
 it will not use this program in any manner prohibited above.
 ---------------------------------------------------------------
  

 Cite this work as:
 Gaussian 16, Revision B.01,
 M. J. Frisch, G. W. Trucks, H. B. Schlegel, G. E. Scuseria, 
 M. A. Robb, J. R. Cheeseman, G. Scalmani, V. Barone, 
 G. A. Petersson, H. Nakatsuji, X. Li, M. Caricato, A. V. Marenich, 
 J. Bloino, B. G. Janesko, R. Gomperts, B. Mennucci, H. P. Hratchian, 
 J. V. Ortiz, A. F. Izmaylov, J. L. Sonnenberg, D. Williams-Young, 
 F. Ding, F. Lipparini, F. Egidi, J. Goings, B. Peng, A. Petrone, 
 T. Henderson, D. Ranasinghe, V. G. Zakrzewski, J. Gao, N. Rega, 
 G. Zheng, W. Liang, M. Hada, M. Ehara, K. Toyota, R. Fukuda, 
 J. Hasegawa, M. Ishida, T. Nakajima, Y. Honda, O. Kitao, H. Nakai, 
 T. Vreven, K. Throssell, J. A. Montgomery, Jr., J. E. Peralta, 
 F. Ogliaro, M. J. Bearpark, J. J. Heyd, E. N. Brothers, K. N. Kudin, 
 V. N. Staroverov, T. A. Keith, R. Kobayashi, J. Normand, 
 K. Raghavachari, A. P. Rendell, J. C. Burant, S. S. Iyengar, 
 J. Tomasi, M. Cossi, J. M. Millam, M. Klene, C. Adamo, R. Cammi, 
 J. W. Ochterski, R. L. Martin, K. Morokuma, O. Farkas, 
 J. B. Foresman, and D. J. Fox, Gaussian, Inc., Wallingford CT, 2016.
 
 ******************************************
 Gaussian 16:  ES64L-G16RevB.01 20-Dec-2017
                 1-Aug-2019 
 ******************************************
 %nprocshared=20
 Will use up to   20 processors via shared memory.
 %mem=180GB
 %chk=7-memb2-carbTSguess-2b.chk
 ---------------------------------------------------------------
 # opt=(ts,calcfc,noeigen) freq b3lyp/6-311+g(d,p) int=grid=fine
 ---------------------------------------------------------------
 1/5=1,10=4,11=1,18=20,26=3,38=1/1,3;
 2/9=110,12=2,17=6,18=5,40=1/2;
 3/5=4,6=6,7=111,11=2,25=1,30=1,71=2,74=-5,75=-4,140=1/1,2,3;
 4//1;
 5/5=2,38=5/2;
 8/6=4,10=90,11=11/1;
 11/6=1,8=1,9=11,15=111,16=1/1,2,10;
 10/6=1,13=1/2;
 6/7=2,8=2,9=2,10=2,28=1/1;
 7/10=1,18=20,25=1/1,2,3,16;
 1/5=1,10=4,11=1,18=20,26=3/3(2);
 2/9=110/2;
 99//99;
 2/9=110/2;
 3/5=4,6=6,7=111,11=2,25=1,30=1,71=1,74=-5,75=-4/1,2,3;
 4/5=5,16=3,69=1/1;
 5/5=2,38=5/2;
 7//1,2,3,16;
 1/5=1,11=1,18=20,26=3/3(-5);
 2/9=110/2;
 6/7=2,8=2,9=2,10=2,19=2,28=1/1;
 99/9=1/99;
 ----------------------
 7-memb2-carbTSguess-2b
 ----------------------
 Symbolic Z-matrix:
 Charge =  0 Multiplicity = 1
 C                     0.68831  -0.92754  -0.34654 
 C                     0.38408   0.52582  -0.08951 
 C                     1.61741   1.13855   0.17763 
 C                     2.08787  -1.06659  -0.09622 
 C                     2.6412    0.17915   0.20338 
 C                     2.89712  -2.1709   -0.34279 
 C                     4.31172  -1.94424  -0.15367 
 C                     4.83567  -0.69931   0.15422 
 C                     3.98808   0.45602   0.30729 
 C                     1.8941    2.50695   0.27516 
 C                     3.29646   2.82718   0.44732 
 C                     4.28702   1.86269   0.46495 
 C                     0.07936  -2.02373  -0.93918 
 C                     0.85572  -3.20122  -1.14669 
 C                     2.21014  -3.30631  -0.85325 
 C                    -0.73522   1.36509  -0.1224 
 C                    -0.50252   2.79829  -0.10034 
 C                     0.77976   3.34826   0.09625 
 C                    -2.07377   0.8625   -0.09986 
 C                    -3.15085   1.73683  -0.35797 
 C                    -2.89063   3.14432  -0.49689 
 C                    -1.64063   3.65022  -0.32218 
 C                    -2.33611  -0.49978   0.3014 
 C                    -3.6643   -1.01406   0.13475 
 C                    -4.71012  -0.13366  -0.21052 
 C                    -4.46436   1.20876  -0.4107 
 C                    -3.88951  -2.4408    0.25807 
 C                    -2.95815  -3.25217   0.79325 
 C                    -1.75547  -2.64069   1.43764 
 C                    -1.40412  -1.23547   1.07547 
 H                    -0.94119  -2.01319  -1.29567 
 H                     0.35767  -4.05672  -1.59106 
 H                     2.73886  -4.22845  -1.07017 
 H                     4.99653  -2.77481  -0.29266 
 H                     5.91193  -0.59493   0.24768 
 H                     5.319     2.18062   0.57481 
 H                     3.58498   3.86886   0.54437 
 H                     0.89067   4.42807   0.08538 
 H                    -1.47821   4.72231  -0.35987 
 H                    -3.72711   3.80736  -0.69117 
 H                    -5.28736   1.88132  -0.63067 
 H                    -5.71796  -0.52213  -0.31783 
 H                    -4.82083  -2.83749  -0.13466 
 H                    -3.08453  -4.33085   0.7906 
 H                    -0.87165  -3.28524   1.38727 
 H                    -1.94035  -2.56975   2.52542 
 

 GradGradGradGradGradGradGradGradGradGradGradGradGradGradGradGradGradGrad
 Berny optimization.
 Initialization pass.
                           ----------------------------
                           !    Initial Parameters    !
                           ! (Angstroms and Degrees)  !
 --------------------------                            --------------------------
 ! Name  Definition              Value          Derivative Info.                !
 --------------------------------------------------------------------------------
 ! R1    R(1,2)                  1.5069         calculate D2E/DX2 analytically  !
 ! R2    R(1,4)                  1.4286         calculate D2E/DX2 analytically  !
 ! R3    R(1,13)                 1.387          calculate D2E/DX2 analytically  !
 ! R4    R(2,3)                  1.4028         calculate D2E/DX2 analytically  !
 ! R5    R(2,16)                 1.3994         calculate D2E/DX2 analytically  !
 ! R6    R(3,5)                  1.4033         calculate D2E/DX2 analytically  !
 ! R7    R(3,10)                 1.3995         calculate D2E/DX2 analytically  !
 ! R8    R(4,5)                  1.3956         calculate D2E/DX2 analytically  !
 ! R9    R(4,6)                  1.3911         calculate D2E/DX2 analytically  !
 ! R10   R(5,9)                  1.379          calculate D2E/DX2 analytically  !
 ! R11   R(6,7)                  1.4451         calculate D2E/DX2 analytically  !
 ! R12   R(6,15)                 1.4219         calculate D2E/DX2 analytically  !
 ! R13   R(7,8)                  1.3853         calculate D2E/DX2 analytically  !
 ! R14   R(7,34)                 1.0854         calculate D2E/DX2 analytically  !
 ! R15   R(8,9)                  1.441          calculate D2E/DX2 analytically  !
 ! R16   R(8,35)                 1.0853         calculate D2E/DX2 analytically  !
 ! R17   R(9,12)                 1.4467         calculate D2E/DX2 analytically  !
 ! R18   R(10,11)                1.4487         calculate D2E/DX2 analytically  !
 ! R19   R(10,18)                1.4077         calculate D2E/DX2 analytically  !
 ! R20   R(11,12)                1.3827         calculate D2E/DX2 analytically  !
 ! R21   R(11,37)                1.0852         calculate D2E/DX2 analytically  !
 ! R22   R(12,36)                1.0854         calculate D2E/DX2 analytically  !
 ! R23   R(13,14)                1.4256         calculate D2E/DX2 analytically  !
 ! R24   R(13,31)                1.0811         calculate D2E/DX2 analytically  !
 ! R25   R(14,15)                1.3898         calculate D2E/DX2 analytically  !
 ! R26   R(14,32)                1.0851         calculate D2E/DX2 analytically  !
 ! R27   R(15,33)                1.0849         calculate D2E/DX2 analytically  !
 ! R28   R(16,17)                1.4521         calculate D2E/DX2 analytically  !
 ! R29   R(16,19)                1.43           calculate D2E/DX2 analytically  !
 ! R30   R(17,18)                1.409          calculate D2E/DX2 analytically  !
 ! R31   R(17,22)                1.4389         calculate D2E/DX2 analytically  !
 ! R32   R(18,38)                1.0855         calculate D2E/DX2 analytically  !
 ! R33   R(19,20)                1.4111         calculate D2E/DX2 analytically  !
 ! R34   R(19,23)                1.4442         calculate D2E/DX2 analytically  !
 ! R35   R(20,21)                1.4381         calculate D2E/DX2 analytically  !
 ! R36   R(20,26)                1.4167         calculate D2E/DX2 analytically  !
 ! R37   R(21,22)                1.3598         calculate D2E/DX2 analytically  !
 ! R38   R(21,40)                1.0849         calculate D2E/DX2 analytically  !
 ! R39   R(22,39)                1.085          calculate D2E/DX2 analytically  !
 ! R40   R(23,24)                1.434          calculate D2E/DX2 analytically  !
 ! R41   R(23,30)                1.4174         calculate D2E/DX2 analytically  !
 ! R42   R(24,25)                1.41           calculate D2E/DX2 analytically  !
 ! R43   R(24,27)                1.4497         calculate D2E/DX2 analytically  !
 ! R44   R(25,26)                1.3793         calculate D2E/DX2 analytically  !
 ! R45   R(25,42)                1.0854         calculate D2E/DX2 analytically  !
 ! R46   R(26,41)                1.0854         calculate D2E/DX2 analytically  !
 ! R47   R(27,28)                1.3462         calculate D2E/DX2 analytically  !
 ! R48   R(27,43)                1.0858         calculate D2E/DX2 analytically  !
 ! R49   R(28,29)                1.4952         calculate D2E/DX2 analytically  !
 ! R50   R(28,44)                1.0861         calculate D2E/DX2 analytically  !
 ! R51   R(29,30)                1.4931         calculate D2E/DX2 analytically  !
 ! R52   R(29,45)                1.095          calculate D2E/DX2 analytically  !
 ! R53   R(29,46)                1.1057         calculate D2E/DX2 analytically  !
 ! A1    A(2,1,4)              105.1753         calculate D2E/DX2 analytically  !
 ! A2    A(2,1,13)             138.2875         calculate D2E/DX2 analytically  !
 ! A3    A(4,1,13)             115.3459         calculate D2E/DX2 analytically  !
 ! A4    A(1,2,3)              106.0363         calculate D2E/DX2 analytically  !
 ! A5    A(1,2,16)             137.3816         calculate D2E/DX2 analytically  !
 ! A6    A(3,2,16)             116.4701         calculate D2E/DX2 analytically  !
 ! A7    A(2,3,5)              110.2605         calculate D2E/DX2 analytically  !
 ! A8    A(2,3,10)             127.8915         calculate D2E/DX2 analytically  !
 ! A9    A(5,3,10)             121.5315         calculate D2E/DX2 analytically  !
 ! A10   A(1,4,5)              109.8258         calculate D2E/DX2 analytically  !
 ! A11   A(1,4,6)              128.0345         calculate D2E/DX2 analytically  !
 ! A12   A(5,4,6)              121.0629         calculate D2E/DX2 analytically  !
 ! A13   A(3,5,4)              108.4847         calculate D2E/DX2 analytically  !
 ! A14   A(3,5,9)              125.2188         calculate D2E/DX2 analytically  !
 ! A15   A(4,5,9)              125.6365         calculate D2E/DX2 analytically  !
 ! A16   A(4,6,7)              114.9453         calculate D2E/DX2 analytically  !
 ! A17   A(4,6,15)             114.6123         calculate D2E/DX2 analytically  !
 ! A18   A(7,6,15)             130.1812         calculate D2E/DX2 analytically  !
 ! A19   A(6,7,8)              122.7024         calculate D2E/DX2 analytically  !
 ! A20   A(6,7,34)             118.7399         calculate D2E/DX2 analytically  !
 ! A21   A(8,7,34)             118.5214         calculate D2E/DX2 analytically  !
 ! A22   A(7,8,9)              121.4411         calculate D2E/DX2 analytically  !
 ! A23   A(7,8,35)             118.7249         calculate D2E/DX2 analytically  !
 ! A24   A(9,8,35)             119.8022         calculate D2E/DX2 analytically  !
 ! A25   A(5,9,8)              113.9235         calculate D2E/DX2 analytically  !
 ! A26   A(5,9,12)             113.9076         calculate D2E/DX2 analytically  !
 ! A27   A(8,9,12)             132.0348         calculate D2E/DX2 analytically  !
 ! A28   A(3,10,11)            114.5689         calculate D2E/DX2 analytically  !
 ! A29   A(3,10,18)            114.7725         calculate D2E/DX2 analytically  !
 ! A30   A(11,10,18)           130.4871         calculate D2E/DX2 analytically  !
 ! A31   A(10,11,12)           122.739          calculate D2E/DX2 analytically  !
 ! A32   A(10,11,37)           118.6944         calculate D2E/DX2 analytically  !
 ! A33   A(12,11,37)           118.5521         calculate D2E/DX2 analytically  !
 ! A34   A(9,12,11)            121.9266         calculate D2E/DX2 analytically  !
 ! A35   A(9,12,36)            119.4919         calculate D2E/DX2 analytically  !
 ! A36   A(11,12,36)           118.5618         calculate D2E/DX2 analytically  !
 ! A37   A(1,13,14)            118.4179         calculate D2E/DX2 analytically  !
 ! A38   A(1,13,31)            123.2075         calculate D2E/DX2 analytically  !
 ! A39   A(14,13,31)           118.3044         calculate D2E/DX2 analytically  !
 ! A40   A(13,14,15)           124.2251         calculate D2E/DX2 analytically  !
 ! A41   A(13,14,32)           117.4421         calculate D2E/DX2 analytically  !
 ! A42   A(15,14,32)           118.3046         calculate D2E/DX2 analytically  !
 ! A43   A(6,15,14)            119.0957         calculate D2E/DX2 analytically  !
 ! A44   A(6,15,33)            121.0022         calculate D2E/DX2 analytically  !
 ! A45   A(14,15,33)           119.8019         calculate D2E/DX2 analytically  !
 ! A46   A(2,16,17)            117.606          calculate D2E/DX2 analytically  !
 ! A47   A(2,16,19)            122.5174         calculate D2E/DX2 analytically  !
 ! A48   A(17,16,19)           119.7782         calculate D2E/DX2 analytically  !
 ! A49   A(16,17,18)           122.2206         calculate D2E/DX2 analytically  !
 ! A50   A(16,17,22)           117.0826         calculate D2E/DX2 analytically  !
 ! A51   A(18,17,22)           120.6799         calculate D2E/DX2 analytically  !
 ! A52   A(10,18,17)           120.322          calculate D2E/DX2 analytically  !
 ! A53   A(10,18,38)           120.9904         calculate D2E/DX2 analytically  !
 ! A54   A(17,18,38)           118.6749         calculate D2E/DX2 analytically  !
 ! A55   A(16,19,20)           119.5935         calculate D2E/DX2 analytically  !
 ! A56   A(16,19,23)           120.3948         calculate D2E/DX2 analytically  !
 ! A57   A(20,19,23)           119.7781         calculate D2E/DX2 analytically  !
 ! A58   A(19,20,21)           119.0773         calculate D2E/DX2 analytically  !
 ! A59   A(19,20,26)           118.9184         calculate D2E/DX2 analytically  !
 ! A60   A(21,20,26)           121.9382         calculate D2E/DX2 analytically  !
 ! A61   A(20,21,22)           121.2027         calculate D2E/DX2 analytically  !
 ! A62   A(20,21,40)           118.4203         calculate D2E/DX2 analytically  !
 ! A63   A(22,21,40)           120.2911         calculate D2E/DX2 analytically  !
 ! A64   A(17,22,21)           121.78           calculate D2E/DX2 analytically  !
 ! A65   A(17,22,39)           118.1642         calculate D2E/DX2 analytically  !
 ! A66   A(21,22,39)           120.0518         calculate D2E/DX2 analytically  !
 ! A67   A(19,23,24)           118.3111         calculate D2E/DX2 analytically  !
 ! A68   A(19,23,30)           121.4599         calculate D2E/DX2 analytically  !
 ! A69   A(24,23,30)           119.1002         calculate D2E/DX2 analytically  !
 ! A70   A(23,24,25)           119.4404         calculate D2E/DX2 analytically  !
 ! A71   A(23,24,27)           119.1418         calculate D2E/DX2 analytically  !
 ! A72   A(25,24,27)           121.3413         calculate D2E/DX2 analytically  !
 ! A73   A(24,25,26)           120.7356         calculate D2E/DX2 analytically  !
 ! A74   A(24,25,42)           119.3033         calculate D2E/DX2 analytically  !
 ! A75   A(26,25,42)           119.961          calculate D2E/DX2 analytically  !
 ! A76   A(20,26,25)           121.5052         calculate D2E/DX2 analytically  !
 ! A77   A(20,26,41)           118.66           calculate D2E/DX2 analytically  !
 ! A78   A(25,26,41)           119.8268         calculate D2E/DX2 analytically  !
 ! A79   A(24,27,28)           121.3008         calculate D2E/DX2 analytically  !
 ! A80   A(24,27,43)           117.5195         calculate D2E/DX2 analytically  !
 ! A81   A(28,27,43)           121.1328         calculate D2E/DX2 analytically  !
 ! A82   A(27,28,29)           118.7739         calculate D2E/DX2 analytically  !
 ! A83   A(27,28,44)           121.1412         calculate D2E/DX2 analytically  !
 ! A84   A(29,28,44)           120.0555         calculate D2E/DX2 analytically  !
 ! A85   A(28,29,30)           118.0113         calculate D2E/DX2 analytically  !
 ! A86   A(28,29,45)           112.872          calculate D2E/DX2 analytically  !
 ! A87   A(28,29,46)           108.4061         calculate D2E/DX2 analytically  !
 ! A88   A(30,29,45)           110.6637         calculate D2E/DX2 analytically  !
 ! A89   A(30,29,46)           102.5686         calculate D2E/DX2 analytically  !
 ! A90   A(45,29,46)           102.5901         calculate D2E/DX2 analytically  !
 ! A91   A(23,30,29)           117.7904         calculate D2E/DX2 analytically  !
 ! D1    D(4,1,2,3)              4.6638         calculate D2E/DX2 analytically  !
 ! D2    D(4,1,2,16)          -179.5381         calculate D2E/DX2 analytically  !
 ! D3    D(13,1,2,3)          -161.4764         calculate D2E/DX2 analytically  !
 ! D4    D(13,1,2,16)           14.3217         calculate D2E/DX2 analytically  !
 ! D5    D(2,1,4,5)             -3.5169         calculate D2E/DX2 analytically  !
 ! D6    D(2,1,4,6)           -171.5863         calculate D2E/DX2 analytically  !
 ! D7    D(13,1,4,5)           166.3246         calculate D2E/DX2 analytically  !
 ! D8    D(13,1,4,6)            -1.7447         calculate D2E/DX2 analytically  !
 ! D9    D(2,1,13,14)          169.8854         calculate D2E/DX2 analytically  !
 ! D10   D(2,1,13,31)           -7.012          calculate D2E/DX2 analytically  !
 ! D11   D(4,1,13,14)            4.7075         calculate D2E/DX2 analytically  !
 ! D12   D(4,1,13,31)         -172.1899         calculate D2E/DX2 analytically  !
 ! D13   D(1,2,3,5)             -4.2197         calculate D2E/DX2 analytically  !
 ! D14   D(1,2,3,10)           169.3205         calculate D2E/DX2 analytically  !
 ! D15   D(16,2,3,5)           178.9575         calculate D2E/DX2 analytically  !
 ! D16   D(16,2,3,10)           -7.5024         calculate D2E/DX2 analytically  !
 ! D17   D(1,2,16,17)         -165.5755         calculate D2E/DX2 analytically  !
 ! D18   D(1,2,16,19)           18.0426         calculate D2E/DX2 analytically  !
 ! D19   D(3,2,16,17)            9.9125         calculate D2E/DX2 analytically  !
 ! D20   D(3,2,16,19)         -166.4693         calculate D2E/DX2 analytically  !
 ! D21   D(2,3,5,4)              2.1278         calculate D2E/DX2 analytically  !
 ! D22   D(2,3,5,9)            173.2307         calculate D2E/DX2 analytically  !
 ! D23   D(10,3,5,4)          -171.893          calculate D2E/DX2 analytically  !
 ! D24   D(10,3,5,9)            -0.7901         calculate D2E/DX2 analytically  !
 ! D25   D(2,3,10,11)         -174.876          calculate D2E/DX2 analytically  !
 ! D26   D(2,3,10,18)            0.8716         calculate D2E/DX2 analytically  !
 ! D27   D(5,3,10,11)           -1.9892         calculate D2E/DX2 analytically  !
 ! D28   D(5,3,10,18)          173.7584         calculate D2E/DX2 analytically  !
 ! D29   D(1,4,5,3)              1.0472         calculate D2E/DX2 analytically  !
 ! D30   D(1,4,5,9)           -170.009          calculate D2E/DX2 analytically  !
 ! D31   D(6,4,5,3)            170.0894         calculate D2E/DX2 analytically  !
 ! D32   D(6,4,5,9)             -0.9668         calculate D2E/DX2 analytically  !
 ! D33   D(1,4,6,7)            171.7962         calculate D2E/DX2 analytically  !
 ! D34   D(1,4,6,15)            -2.94           calculate D2E/DX2 analytically  !
 ! D35   D(5,4,6,7)              4.9185         calculate D2E/DX2 analytically  !
 ! D36   D(5,4,6,15)          -169.8177         calculate D2E/DX2 analytically  !
 ! D37   D(3,5,9,8)           -173.1357         calculate D2E/DX2 analytically  !
 ! D38   D(3,5,9,12)             3.17           calculate D2E/DX2 analytically  !
 ! D39   D(4,5,9,8)             -3.5334         calculate D2E/DX2 analytically  !
 ! D40   D(4,5,9,12)           172.7723         calculate D2E/DX2 analytically  !
 ! D41   D(4,6,7,8)             -4.52           calculate D2E/DX2 analytically  !
 ! D42   D(4,6,7,34)           177.7052         calculate D2E/DX2 analytically  !
 ! D43   D(15,6,7,8)           169.2126         calculate D2E/DX2 analytically  !
 ! D44   D(15,6,7,34)           -8.5621         calculate D2E/DX2 analytically  !
 ! D45   D(4,6,15,14)            4.4426         calculate D2E/DX2 analytically  !
 ! D46   D(4,6,15,33)         -179.2045         calculate D2E/DX2 analytically  !
 ! D47   D(7,6,15,14)         -169.3069         calculate D2E/DX2 analytically  !
 ! D48   D(7,6,15,33)            7.046          calculate D2E/DX2 analytically  !
 ! D49   D(6,7,8,9)              0.0852         calculate D2E/DX2 analytically  !
 ! D50   D(6,7,8,35)          -177.8587         calculate D2E/DX2 analytically  !
 ! D51   D(34,7,8,9)           177.8646         calculate D2E/DX2 analytically  !
 ! D52   D(34,7,8,35)           -0.0794         calculate D2E/DX2 analytically  !
 ! D53   D(7,8,9,5)              3.8554         calculate D2E/DX2 analytically  !
 ! D54   D(7,8,9,12)          -171.5959         calculate D2E/DX2 analytically  !
 ! D55   D(35,8,9,5)          -178.2225         calculate D2E/DX2 analytically  !
 ! D56   D(35,8,9,12)            6.3262         calculate D2E/DX2 analytically  !
 ! D57   D(5,9,12,11)           -2.8185         calculate D2E/DX2 analytically  !
 ! D58   D(5,9,12,36)          178.8153         calculate D2E/DX2 analytically  !
 ! D59   D(8,9,12,11)          172.6333         calculate D2E/DX2 analytically  !
 ! D60   D(8,9,12,36)           -5.7329         calculate D2E/DX2 analytically  !
 ! D61   D(3,10,11,12)           2.2495         calculate D2E/DX2 analytically  !
 ! D62   D(3,10,11,37)        -179.1571         calculate D2E/DX2 analytically  !
 ! D63   D(18,10,11,12)       -172.6719         calculate D2E/DX2 analytically  !
 ! D64   D(18,10,11,37)          5.9216         calculate D2E/DX2 analytically  !
 ! D65   D(3,10,18,17)           2.7973         calculate D2E/DX2 analytically  !
 ! D66   D(3,10,18,38)        -175.8918         calculate D2E/DX2 analytically  !
 ! D67   D(11,10,18,17)        177.7103         calculate D2E/DX2 analytically  !
 ! D68   D(11,10,18,38)         -0.9788         calculate D2E/DX2 analytically  !
 ! D69   D(10,11,12,9)           0.189          calculate D2E/DX2 analytically  !
 ! D70   D(10,11,12,36)        178.5699         calculate D2E/DX2 analytically  !
 ! D71   D(37,11,12,9)        -178.4064         calculate D2E/DX2 analytically  !
 ! D72   D(37,11,12,36)         -0.0255         calculate D2E/DX2 analytically  !
 ! D73   D(1,13,14,15)          -3.3076         calculate D2E/DX2 analytically  !
 ! D74   D(1,13,14,32)         178.6591         calculate D2E/DX2 analytically  !
 ! D75   D(31,13,14,15)        173.7441         calculate D2E/DX2 analytically  !
 ! D76   D(31,13,14,32)         -4.2892         calculate D2E/DX2 analytically  !
 ! D77   D(13,14,15,6)          -1.6247         calculate D2E/DX2 analytically  !
 ! D78   D(13,14,15,33)       -178.0222         calculate D2E/DX2 analytically  !
 ! D79   D(32,14,15,6)         176.3929         calculate D2E/DX2 analytically  !
 ! D80   D(32,14,15,33)         -0.0046         calculate D2E/DX2 analytically  !
 ! D81   D(2,16,17,18)          -6.9614         calculate D2E/DX2 analytically  !
 ! D82   D(2,16,17,22)         171.5498         calculate D2E/DX2 analytically  !
 ! D83   D(19,16,17,18)        169.5236         calculate D2E/DX2 analytically  !
 ! D84   D(19,16,17,22)        -11.9652         calculate D2E/DX2 analytically  !
 ! D85   D(2,16,19,20)        -169.504          calculate D2E/DX2 analytically  !
 ! D86   D(2,16,19,23)          16.0611         calculate D2E/DX2 analytically  !
 ! D87   D(17,16,19,20)         14.1902         calculate D2E/DX2 analytically  !
 ! D88   D(17,16,19,23)       -160.2448         calculate D2E/DX2 analytically  !
 ! D89   D(16,17,18,10)          0.2508         calculate D2E/DX2 analytically  !
 ! D90   D(16,17,18,38)        178.9699         calculate D2E/DX2 analytically  !
 ! D91   D(22,17,18,10)       -178.2079         calculate D2E/DX2 analytically  !
 ! D92   D(22,17,18,38)          0.5112         calculate D2E/DX2 analytically  !
 ! D93   D(16,17,22,21)          2.3434         calculate D2E/DX2 analytically  !
 ! D94   D(16,17,22,39)       -176.9324         calculate D2E/DX2 analytically  !
 ! D95   D(18,17,22,21)       -179.1211         calculate D2E/DX2 analytically  !
 ! D96   D(18,17,22,39)          1.6031         calculate D2E/DX2 analytically  !
 ! D97   D(16,19,20,21)         -6.6146         calculate D2E/DX2 analytically  !
 ! D98   D(16,19,20,26)        176.2836         calculate D2E/DX2 analytically  !
 ! D99   D(23,19,20,21)        167.8551         calculate D2E/DX2 analytically  !
 ! D100  D(23,19,20,26)         -9.2467         calculate D2E/DX2 analytically  !
 ! D101  D(16,19,23,24)       -171.6126         calculate D2E/DX2 analytically  !
 ! D102  D(16,19,23,30)         20.6444         calculate D2E/DX2 analytically  !
 ! D103  D(20,19,23,24)         13.9627         calculate D2E/DX2 analytically  !
 ! D104  D(20,19,23,30)       -153.7803         calculate D2E/DX2 analytically  !
 ! D105  D(19,20,21,22)         -3.1131         calculate D2E/DX2 analytically  !
 ! D106  D(19,20,21,40)       -179.7528         calculate D2E/DX2 analytically  !
 ! D107  D(26,20,21,22)        173.8974         calculate D2E/DX2 analytically  !
 ! D108  D(26,20,21,40)         -2.7422         calculate D2E/DX2 analytically  !
 ! D109  D(19,20,26,25)          0.2707         calculate D2E/DX2 analytically  !
 ! D110  D(19,20,26,41)       -178.7005         calculate D2E/DX2 analytically  !
 ! D111  D(21,20,26,25)       -176.7444         calculate D2E/DX2 analytically  !
 ! D112  D(21,20,26,41)          4.2844         calculate D2E/DX2 analytically  !
 ! D113  D(20,21,22,17)          5.2002         calculate D2E/DX2 analytically  !
 ! D114  D(20,21,22,39)       -175.5374         calculate D2E/DX2 analytically  !
 ! D115  D(40,21,22,17)       -178.2225         calculate D2E/DX2 analytically  !
 ! D116  D(40,21,22,39)          1.0399         calculate D2E/DX2 analytically  !
 ! D117  D(19,23,24,25)         -9.8456         calculate D2E/DX2 analytically  !
 ! D118  D(19,23,24,27)        167.0164         calculate D2E/DX2 analytically  !
 ! D119  D(30,23,24,25)        158.193          calculate D2E/DX2 analytically  !
 ! D120  D(30,23,24,27)        -24.9449         calculate D2E/DX2 analytically  !
 ! D121  D(19,23,30,29)       -179.6433         calculate D2E/DX2 analytically  !
 ! D122  D(24,23,30,29)         12.708          calculate D2E/DX2 analytically  !
 ! D123  D(23,24,25,26)          1.0926         calculate D2E/DX2 analytically  !
 ! D124  D(23,24,25,42)       -178.8591         calculate D2E/DX2 analytically  !
 ! D125  D(27,24,25,26)       -175.6983         calculate D2E/DX2 analytically  !
 ! D126  D(27,24,25,42)          4.35           calculate D2E/DX2 analytically  !
 ! D127  D(23,24,27,28)         14.0868         calculate D2E/DX2 analytically  !
 ! D128  D(23,24,27,43)       -163.4481         calculate D2E/DX2 analytically  !
 ! D129  D(25,24,27,28)       -169.1129         calculate D2E/DX2 analytically  !
 ! D130  D(25,24,27,43)         13.3522         calculate D2E/DX2 analytically  !
 ! D131  D(24,25,26,20)          3.8763         calculate D2E/DX2 analytically  !
 ! D132  D(24,25,26,41)       -177.1643         calculate D2E/DX2 analytically  !
 ! D133  D(42,25,26,20)       -176.1723         calculate D2E/DX2 analytically  !
 ! D134  D(42,25,26,41)          2.7872         calculate D2E/DX2 analytically  !
 ! D135  D(24,27,28,29)          8.4192         calculate D2E/DX2 analytically  !
 ! D136  D(24,27,28,44)       -173.5519         calculate D2E/DX2 analytically  !
 ! D137  D(43,27,28,29)       -174.1349         calculate D2E/DX2 analytically  !
 ! D138  D(43,27,28,44)          3.894          calculate D2E/DX2 analytically  !
 ! D139  D(27,28,29,30)        -20.0482         calculate D2E/DX2 analytically  !
 ! D140  D(27,28,29,45)       -151.2122         calculate D2E/DX2 analytically  !
 ! D141  D(27,28,29,46)         95.8515         calculate D2E/DX2 analytically  !
 ! D142  D(44,28,29,30)        161.9009         calculate D2E/DX2 analytically  !
 ! D143  D(44,28,29,45)         30.7369         calculate D2E/DX2 analytically  !
 ! D144  D(44,28,29,46)        -82.1994         calculate D2E/DX2 analytically  !
 ! D145  D(28,29,30,23)          9.2075         calculate D2E/DX2 analytically  !
 ! D146  D(45,29,30,23)        141.3628         calculate D2E/DX2 analytically  !
 ! D147  D(46,29,30,23)       -109.8069         calculate D2E/DX2 analytically  !
 --------------------------------------------------------------------------------
 Trust Radius=3.00D-01 FncErr=1.00D-07 GrdErr=1.00D-06 EigMax=2.50D+02 EigMin=1.00D-04
 Number of steps in this run=    276 maximum allowed number of steps=    276.
 Search for a saddle point of order  1.
 GradGradGradGradGradGradGradGradGradGradGradGradGradGradGradGradGradGrad

                          Input orientation:                          
 ---------------------------------------------------------------------
 Center     Atomic      Atomic             Coordinates (Angstroms)
 Number     Number       Type             X           Y           Z
 ---------------------------------------------------------------------
      1          6           0        0.688305   -0.927535   -0.346535
      2          6           0        0.384084    0.525824   -0.089510
      3          6           0        1.617413    1.138554    0.177626
      4          6           0        2.087866   -1.066586   -0.096221
      5          6           0        2.641203    0.179154    0.203377
      6          6           0        2.897118   -2.170898   -0.342792
      7          6           0        4.311718   -1.944237   -0.153672
      8          6           0        4.835670   -0.699307    0.154220
      9          6           0        3.988083    0.456020    0.307289
     10          6           0        1.894098    2.506951    0.275157
     11          6           0        3.296465    2.827178    0.447316
     12          6           0        4.287022    1.862687    0.464947
     13          6           0        0.079356   -2.023726   -0.939184
     14          6           0        0.855724   -3.201220   -1.146691
     15          6           0        2.210135   -3.306312   -0.853245
     16          6           0       -0.735216    1.365090   -0.122404
     17          6           0       -0.502520    2.798288   -0.100335
     18          6           0        0.779764    3.348260    0.096247
     19          6           0       -2.073772    0.862501   -0.099863
     20          6           0       -3.150849    1.736825   -0.357967
     21          6           0       -2.890631    3.144317   -0.496894
     22          6           0       -1.640630    3.650216   -0.322184
     23          6           0       -2.336111   -0.499782    0.301398
     24          6           0       -3.664299   -1.014065    0.134747
     25          6           0       -4.710122   -0.133656   -0.210521
     26          6           0       -4.464359    1.208758   -0.410703
     27          6           0       -3.889512   -2.440800    0.258069
     28          6           0       -2.958153   -3.252169    0.793254
     29          6           0       -1.755472   -2.640690    1.437642
     30          6           0       -1.404119   -1.235470    1.075469
     31          1           0       -0.941187   -2.013194   -1.295667
     32          1           0        0.357670   -4.056720   -1.591064
     33          1           0        2.738860   -4.228449   -1.070169
     34          1           0        4.996529   -2.774805   -0.292657
     35          1           0        5.911925   -0.594934    0.247683
     36          1           0        5.318996    2.180619    0.574812
     37          1           0        3.584981    3.868861    0.544365
     38          1           0        0.890672    4.428069    0.085384
     39          1           0       -1.478208    4.722308   -0.359872
     40          1           0       -3.727107    3.807362   -0.691168
     41          1           0       -5.287360    1.881321   -0.630668
     42          1           0       -5.717960   -0.522132   -0.317832
     43          1           0       -4.820831   -2.837487   -0.134660
     44          1           0       -3.084531   -4.330847    0.790599
     45          1           0       -0.871650   -3.285236    1.387273
     46          1           0       -1.940346   -2.569750    2.525421
 ---------------------------------------------------------------------
                    Distance matrix (angstroms):
                    1          2          3          4          5
     1  C    0.000000
     2  C    1.506939   0.000000
     3  C    2.325233   1.402819   0.000000
     4  C    1.428553   2.332099   2.271335   0.000000
     5  C    2.311055   2.302292   1.403302   1.395639   0.000000
     6  C    2.534723   3.694834   3.586217   1.391111   2.426219
     7  C    3.768289   4.640218   4.107632   2.391462   2.725233
     8  C    4.183716   4.623523   3.706138   2.783530   2.364275
     9  C    3.637340   3.626449   2.470373   2.468192   1.378963
    10  C    3.692713   2.517536   1.399492   3.598004   2.445804
    11  C    4.640104   3.750517   2.396539   4.113094   2.738778
    12  C    4.625430   4.162637   2.780959   3.705649   2.368844
    13  C    1.386970   2.704628   3.689566   2.379247   3.566677
    14  C    2.416179   3.902683   4.600829   2.679239   4.054325
    15  C    2.869025   4.313122   4.601179   2.367363   3.667525
    16  C    2.707910   1.399386   2.382478   3.726060   3.593436
    17  C    3.919239   2.439319   2.706676   4.652673   4.103060
    18  C    4.299633   2.856084   2.364546   4.608583   3.676910
    19  C    3.300628   2.480829   3.711880   4.587006   4.773878
    20  C    4.673120   3.746244   4.835402   5.947416   6.024061
    21  C    5.423225   4.212627   4.980012   6.532815   6.315359
    22  C    5.136179   3.730339   4.144044   6.016724   5.537019
    23  C    3.122480   2.933281   4.281333   4.477828   5.024362
    24  C    4.379986   4.337160   5.703691   5.757040   6.417775
    25  C    5.458183   5.138141   6.465824   6.862657   7.369609
    26  C    5.578334   4.906828   6.110565   6.943180   7.205983
    27  C    4.859210   5.213952   6.568445   6.143536   7.036859
    28  C    4.472102   5.120845   6.371283   5.570480   6.593536
    29  C    3.477101   4.115423   5.219835   4.427390   5.367092
    30  C    2.548560   2.767129   3.946108   3.687186   4.373367
    31  H    2.175948   3.107695   4.318627   3.392624   4.459489
    32  H    3.383781   4.822351   5.630816   3.764178   5.135871
    33  H    3.952778   5.395347   5.623109   3.371905   4.588945
    34  H    4.687868   5.675392   5.191721   3.378893   3.810444
    35  H    5.267820   5.650383   4.631708   3.868353   3.361368
    36  H    5.652681   5.247192   3.865925   4.629776   3.363689
    37  H    5.673610   4.671556   3.385321   5.197147   3.823732
    38  H    5.376802   3.938875   3.370099   5.626499   4.596908
    39  H    6.051007   4.599098   4.766033   6.804241   6.158494
    40  H    6.483354   5.294561   6.036657   7.610732   7.383731
    41  H    6.609007   5.856236   6.991490   7.960512   8.152001
    42  H    6.419144   6.195586   7.537311   7.827928   8.404705
    43  H    5.834671   6.197180   7.573468   7.132157   8.055827
    44  H    5.206717   6.032672   7.238671   6.180254   7.312248
    45  H    3.316369   4.275738   5.218103   3.985210   5.073829
    46  H    4.225495   4.671554   5.649895   5.035772   5.825715
                    6          7          8          9         10
     6  C    0.000000
     7  C    1.445073   0.000000
     8  C    2.484066   1.385343   0.000000
     9  C    2.917792   2.465453   1.441046   0.000000
    10  C    4.823918   5.083489   4.352880   2.931232   0.000000
    11  C    5.075876   4.915112   3.858906   2.473931   1.448730
    12  C    4.342129   3.856938   2.638443   1.446697   2.485394
    13  C    2.883943   4.305373   5.056890   4.793848   5.029408
    14  C    2.423862   3.809198   4.877695   5.030023   5.973532
    15  C    1.421855   2.600250   3.834696   4.320079   5.930194
    16  C    5.074015   6.035244   5.947523   4.829140   2.893993
    17  C    6.025706   6.758053   6.387037   5.081131   2.443287
    18  C    5.927651   6.367706   5.730317   4.324685   1.407675
    19  C    5.828402   6.975325   7.088314   6.089096   4.311479
    20  C    7.200586   8.323573   8.365498   7.283363   5.142512
    21  C    7.859599   8.825249   8.654081   7.429021   4.888346
    22  C    7.380850   8.170480   7.815867   6.502425   3.762735
    23  C    5.531211   6.818150   7.176065   6.396016   5.189971
    24  C    6.679708   8.035251   8.505817   7.794220   6.581265
    25  C    7.876417   9.201904   9.569490   8.733534   7.129124
    26  C    8.100496   9.328825   9.510541   8.516214   6.525771
    27  C    6.818521   8.226559   8.897886   8.393479   7.611220
    28  C    6.061678   7.447038   8.226126   7.889044   7.548525
    29  C    5.003723   6.310953   6.989942   6.622366   6.416303
    30  C    4.624622   5.889306   6.330177   5.703252   5.052173
    31  H    3.957957   5.376050   6.099225   5.741445   5.562197
    32  H    3.400486   4.707778   5.862655   6.094954   6.994653
    33  H    2.188067   2.920869   4.283758   5.040059   6.920198
    34  H    2.185119   1.085415   2.129147   3.437314   6.151783
    35  H    3.452736   2.131283   1.085336   2.192995   5.075961
    36  H    5.063911   4.308101   2.950335   2.194798   3.453435
    37  H    6.143199   5.899789   4.752325   3.444732   2.187774
    38  H    6.910537   7.236504   6.469755   5.041862   2.175677
    39  H    8.164561   8.832247   8.338061   6.966108   4.084546
    40  H    8.929799   9.899116   9.713182   8.470689   5.850026
    41  H    9.137233  10.344308  10.476231   9.431070   7.265347
    42  H    8.771466  10.131326  10.565668   9.775215   8.214037
    43  H    7.749477   9.176149   9.894608   9.414854   8.591929
    44  H    6.459882   7.828924   8.736283   8.553920   8.473955
    45  H    4.294006   5.571364   6.385996   6.227388   6.514261
    46  H    5.637977   6.830601   7.418594   7.015815   6.748299
                   11         12         13         14         15
    11  C    0.000000
    12  C    1.382663   0.000000
    13  C    5.983598   5.897478   0.000000
    14  C    6.696242   6.325689   1.425587   0.000000
    15  C    6.363275   5.724477   2.488500   1.389814   0.000000
    16  C    4.326284   5.080892   3.579767   4.942817   5.570567
    17  C    3.838365   4.912698   4.928901   6.239694   6.722463
    18  C    2.593947   3.826712   5.515517   6.666810   6.872469
    19  C    5.744459   6.463674   3.697395   5.117775   6.024819
    20  C    6.588263   7.484314   4.991371   6.407730   7.376902
    21  C    6.266759   7.354347   5.977049   7.397517   8.231368
    22  C    5.064033   6.241145   5.960928   7.338513   7.968921
    23  C    6.543383   7.033768   3.113829   4.425216   5.466092
    24  C    7.956449   8.462165   4.023394   5.182310   6.382750
    25  C    8.561818   9.240684   5.200232   6.423784   7.639947
    26  C    7.974075   8.819357   5.601213   6.949307   8.070351
    27  C    8.912108   9.242213   4.166447   5.006881   6.260178
    28  C    8.729168   8.874801   3.706329   4.279210   5.424490
    29  C    7.510020   7.598571   3.065378   3.716358   4.627878
    30  C    6.244612   6.508487   2.623142   3.729485   4.590333
    31  H    6.665200   6.742135   1.081064   2.159280   3.434927
    32  H    7.757549   7.396375   2.153014   1.085083   2.130520
    33  H    7.238477   6.469569   3.457011   2.146452   1.084870
    34  H    5.900847   4.752231   5.016045   4.249408   2.891496
    35  H    4.311767   2.954220   6.121190   5.856806   4.718778
    36  H    2.127187   1.085413   6.886402   7.200594   6.466125
    37  H    1.085248   2.126947   7.015191   7.764957   7.438187
    38  H    2.912334   4.273224   6.582829   7.728213   7.902067
    39  H    5.200055   6.488115   6.947703   8.297507   8.849069
    40  H    7.182442   8.327342   6.967945   8.386302   9.267226
    41  H    8.702801   9.636883   6.644262   7.989742   9.119951
    42  H    9.646926  10.315026   6.020775   7.146876   8.419799
    43  H    9.915524  10.266652   5.032027   5.777524   7.083124
    44  H    9.595430   9.633572   4.280787   4.533736   5.637853
    45  H    7.457768   7.345998   2.812156   3.067874   3.810218
    46  H    7.801893   7.916575   4.047323   4.658451   5.402259
                   16         17         18         19         20
    16  C    0.000000
    17  C    1.452133   0.000000
    18  C    2.505182   1.409030   0.000000
    19  C    1.429978   2.493212   3.789476   0.000000
    20  C    2.455394   2.864738   4.272324   1.411083   0.000000
    21  C    2.819877   2.445418   3.723602   2.455927   1.438071
    22  C    2.466067   1.438851   2.474787   2.829911   2.437849
    23  C    2.494037   3.794827   4.955622   1.444177   2.470014
    24  C    3.782332   4.958442   6.227444   2.471097   2.841442
    25  C    4.248986   5.129557   6.508202   2.820446   2.439625
    26  C    3.743536   4.280082   5.686413   2.435451   1.416667
    27  C    4.957736   6.248857   7.439189   3.786400   4.286919
    28  C    5.205666   6.590650   7.617316   4.302359   5.123720
    29  C    4.418251   5.789451   6.640353   3.838956   4.932943
    30  C    2.940279   4.297278   5.170957   2.496262   3.733677
    31  H    3.582146   4.977108   5.800369   3.313958   4.452475
    32  H    5.722533   7.067767   7.606504   5.686328   6.884432
    33  H    6.652454   7.798856   7.912339   7.072531   8.413109
    34  H    7.072526   7.831724   7.444748   7.953384   9.313369
    35  H    6.939967   7.264997   6.473854   8.125039   9.377515
    36  H    6.148551   5.892995   4.711373   7.539605   8.532602
    37  H    5.037614   4.274275   2.888092   6.440087   7.122583
    38  H    3.473979   2.152130   1.085544   4.640638   4.875782
    39  H    3.446642   2.172828   2.682255   3.914130   3.422111
    40  H    3.903793   3.430055   4.598117   3.428610   2.174907
    41  H    4.609430   4.900691   6.284132   3.412755   2.158686
    42  H    5.331748   6.186543   7.574418   3.904462   3.419730
    43  H    5.861233   7.100067   8.347661   4.608411   4.874734
    44  H    6.228688   7.634469   8.624592   5.365205   6.175779
    45  H    4.891142   6.273635   6.956809   4.567318   5.784610
    46  H    4.893494   6.146362   6.951455   4.323224   5.322202
                   21         22         23         24         25
    21  C    0.000000
    22  C    1.359765   0.000000
    23  C    3.771501   4.253826   0.000000
    24  C    4.276643   5.104854   1.433995   0.000000
    25  C    3.760009   4.873596   2.456021   1.409991   0.000000
    26  C    2.496084   3.733899   2.820574   2.424573   1.379329
    27  C    5.723746   6.518791   2.486460   1.449656   2.493169
    28  C    6.525647   7.114983   2.864349   2.437495   3.715115
    29  C    6.204621   6.533427   2.492324   2.826140   4.210893
    30  C    4.885138   5.087170   1.417403   2.458128   3.714488
    31  H    5.571202   5.788877   2.605157   3.234143   4.349147
    32  H    7.975187   8.062265   4.846615   5.330329   6.555825
    33  H    9.293949   9.045042   6.445113   7.265296   8.543633
    34  H    9.863316   9.237621   7.700405   8.848323  10.059895
    35  H    9.592778   8.682576   8.248760   9.586057  10.641927
    36  H    8.335181   7.169429   8.115415   9.544593  10.322588
    37  H    6.598692   5.301483   7.362296   8.750018   9.241143
    38  H    4.035507   2.679302   5.894277   7.096973   7.229508
    39  H    2.122209   1.084980   5.333245   6.158703   5.835063
    40  H    1.084925   2.124672   4.633740   4.892059   4.090105
    41  H    2.712446   4.064824   3.904903   3.406383   2.137723
    42  H    4.633433   5.833792   3.438146   2.159710   1.085434
    43  H    6.295940   7.227664   3.439309   2.176009   2.707160
    44  H    7.587708   8.186605   3.934019   3.430352   4.610987
    45  H    6.997537   7.184293   3.329043   3.811289   5.217209
    46  H    6.533605   6.847384   3.063931   3.332790   4.592558
                   26         27         28         29         30
    26  C    0.000000
    27  C    3.754594   0.000000
    28  C    4.859839   1.346169   0.000000
    29  C    5.056946   2.446523   1.495187   0.000000
    30  C    4.189036   2.880649   2.561590   1.493071   0.000000
    31  H    4.855603   3.359994   3.157024   2.920238   2.538001
    32  H    7.236745   4.906021   4.162566   3.955195   4.263068
    33  H    9.049004   6.992512   6.073008   5.386011   5.543100
    34  H   10.266017   8.909354   8.042639   6.971473   6.723810
    35  H   10.552443   9.973740   9.275604   8.024344   7.390536
    36  H    9.880779  10.307980   9.903237   8.604510   7.557817
    37  H    8.531130   9.785798   9.673863   8.467150   7.157331
    38  H    6.267888   8.370265   8.619779   7.667988   6.190477
    39  H    4.611368   7.583294   8.192205   7.584304   6.128688
    40  H    2.715685   6.321942   7.254776   7.070824   5.826443
    41  H    1.085383   4.628667   5.814248   6.099240   5.263540
    42  H    2.139187   2.712226   4.037840   4.824032   4.589048
    43  H    4.071286   1.085795   2.121922   3.450694   3.962927
    44  H    5.833890   2.122230   1.086059   2.245371   3.533595
    45  H    6.027956   3.331016   2.169665   1.095042   2.140627
    46  H    5.410045   2.992785   2.121799   1.105655   2.042108
                   31         32         33         34         35
    31  H    0.000000
    32  H    2.439321   0.000000
    33  H    4.301273   2.443540   0.000000
    34  H    6.069807   4.984795   2.795474   0.000000
    35  H    7.166487   6.798140   5.000751   2.425233   0.000000
    36  H    7.763804   8.258945   7.102057   5.041103   2.856969
    37  H    7.646600   8.819888   8.299944   6.843345   5.042634
    38  H    6.837608   8.665230   8.926724   8.299540   7.104216
    39  H    6.821370   9.053044   9.919891   9.906232   9.124486
    40  H    6.481176   8.907244  10.321174  10.935518  10.638261
    41  H    5.873559   8.249185  10.096666  11.293898  11.503361
    42  H    5.098724   7.143368   9.263941  10.948764  11.643854
    43  H    4.132679   5.515842   7.743312   9.818831  10.971202
    44  H    3.783906   4.194784   6.114313   8.300496   9.756435
    45  H    2.970033   3.313141   4.468160   6.125213   7.386019
    46  H    3.988582   4.943420   6.129806   7.490250   8.411073
                   36         37         38         39         40
    36  H    0.000000
    37  H    2.420309   0.000000
    38  H    4.990053   2.789745   0.000000
    39  H    7.316816   5.213626   2.428255   0.000000
    40  H    9.277983   7.415993   4.723578   2.450394   0.000000
    41  H   10.678836   9.167849   6.720620   4.759640   2.479452
    42  H   11.398073  10.323222   8.266867   6.743991   4.779895
    43  H   11.335821  10.774686   9.244349   8.268878   6.757215
    44  H   10.633204  10.572523   9.644593   9.266255   8.296926
    45  H    8.298178   8.470724   8.018464   8.218345   7.923288
    46  H    8.892071   8.712608   7.933342   7.855737   7.362508
                   41         42         43         44         45
    41  H    0.000000
    42  H    2.461680   0.000000
    43  H    4.767685   2.489832   0.000000
    44  H    6.742662   4.761289   2.470013   0.000000
    45  H    7.089703   5.833425   4.255912   2.519159   0.000000
    46  H    6.401206   5.152397   3.930001   2.724010   1.717385
                   46
    46  H    0.000000
 Stoichiometry    C30H16
 Framework group  C1[X(C30H16)]
 Deg. of freedom   132
 Full point group                 C1      NOp   1
 Largest Abelian subgroup         C1      NOp   1
 Largest concise Abelian subgroup C1      NOp   1
                         Standard orientation:                         
 ---------------------------------------------------------------------
 Center     Atomic      Atomic             Coordinates (Angstroms)
 Number     Number       Type             X           Y           Z
 ---------------------------------------------------------------------
      1          6           0        0.688305   -0.927535   -0.346535
      2          6           0        0.384084    0.525824   -0.089510
      3          6           0        1.617413    1.138554    0.177626
      4          6           0        2.087866   -1.066586   -0.096221
      5          6           0        2.641203    0.179154    0.203377
      6          6           0        2.897118   -2.170898   -0.342792
      7          6           0        4.311718   -1.944237   -0.153672
      8          6           0        4.835670   -0.699307    0.154220
      9          6           0        3.988083    0.456020    0.307289
     10          6           0        1.894098    2.506951    0.275157
     11          6           0        3.296465    2.827178    0.447316
     12          6           0        4.287022    1.862687    0.464947
     13          6           0        0.079356   -2.023726   -0.939184
     14          6           0        0.855724   -3.201220   -1.146691
     15          6           0        2.210135   -3.306312   -0.853245
     16          6           0       -0.735216    1.365090   -0.122404
     17          6           0       -0.502520    2.798288   -0.100335
     18          6           0        0.779764    3.348260    0.096247
     19          6           0       -2.073772    0.862501   -0.099863
     20          6           0       -3.150849    1.736825   -0.357967
     21          6           0       -2.890631    3.144317   -0.496894
     22          6           0       -1.640630    3.650216   -0.322184
     23          6           0       -2.336111   -0.499782    0.301398
     24          6           0       -3.664299   -1.014065    0.134747
     25          6           0       -4.710122   -0.133656   -0.210521
     26          6           0       -4.464359    1.208758   -0.410703
     27          6           0       -3.889512   -2.440800    0.258069
     28          6           0       -2.958153   -3.252169    0.793254
     29          6           0       -1.755472   -2.640690    1.437642
     30          6           0       -1.404119   -1.235470    1.075469
     31          1           0       -0.941187   -2.013194   -1.295667
     32          1           0        0.357670   -4.056720   -1.591064
     33          1           0        2.738860   -4.228449   -1.070169
     34          1           0        4.996529   -2.774805   -0.292657
     35          1           0        5.911925   -0.594934    0.247683
     36          1           0        5.318996    2.180619    0.574812
     37          1           0        3.584981    3.868861    0.544365
     38          1           0        0.890672    4.428069    0.085384
     39          1           0       -1.478208    4.722308   -0.359872
     40          1           0       -3.727107    3.807362   -0.691168
     41          1           0       -5.287360    1.881321   -0.630668
     42          1           0       -5.717960   -0.522132   -0.317832
     43          1           0       -4.820831   -2.837487   -0.134660
     44          1           0       -3.084531   -4.330847    0.790599
     45          1           0       -0.871650   -3.285236    1.387273
     46          1           0       -1.940346   -2.569750    2.525421
 ---------------------------------------------------------------------
 Rotational constants (GHZ):           0.2703030           0.1590650           0.1051423
 Standard basis: 6-311+G(d,p) (5D, 7F)
 There are   786 symmetry adapted cartesian basis functions of A   symmetry.
 There are   756 symmetry adapted basis functions of A   symmetry.
   756 basis functions,  1208 primitive gaussians,   786 cartesian basis functions
    98 alpha electrons       98 beta electrons
       nuclear repulsion energy      2623.9440458836 Hartrees.
 NAtoms=   46 NActive=   46 NUniq=   46 SFac= 1.00D+00 NAtFMM=   60 NAOKFM=F Big=F
 Integral buffers will be    131072 words long.
 Raffenetti 2 integral format.
 Two-electron integral symmetry is turned on.
 One-electron integrals computed using PRISM.
 NBasis=   756 RedAO= T EigKep=  1.03D-06  NBF=   756
 NBsUse=   736 1.00D-06 EigRej=  9.07D-07 NBFU=   736
 ExpMin= 4.38D-02 ExpMax= 4.56D+03 ExpMxC= 6.82D+02 IAcc=2 IRadAn=         4 AccDes= 0.00D+00
 Harris functional with IExCor=  402 and IRadAn=       4 diagonalized for initial guess.
 HarFok:  IExCor=  402 AccDes= 0.00D+00 IRadAn=         4 IDoV= 1 UseB2=F ITyADJ=14
 ICtDFT=  3500011 ScaDFX=  1.000000  1.000000  1.000000  1.000000
 FoFCou: FMM=F IPFlag=           0 FMFlag=      100000 FMFlg1=           0
         NFxFlg=           0 DoJE=T BraDBF=F KetDBF=T FulRan=T
         wScrn=  0.000000 ICntrl=       500 IOpCl=  0 I1Cent=   200000004 NGrid=           0
         NMat0=    1 NMatS0=      1 NMatT0=    0 NMatD0=    1 NMtDS0=    0 NMtDT0=    0
 Petite list used in FoFCou.
 Requested convergence on RMS density matrix=1.00D-08 within 128 cycles.
 Requested convergence on MAX density matrix=1.00D-06.
 Requested convergence on             energy=1.00D-06.
 No special actions if energy rises.
 SCF Done:  E(RB3LYP) =  -1152.99884567     A.U. after   18 cycles
            NFock= 18  Conv=0.78D-08     -V/T= 2.0044
 DoSCS=F DFT=T ScalE2(SS,OS)=  1.000000  1.000000
 Range of M.O.s used for correlation:     1   736
 NBasis=   756 NAE=    98 NBE=    98 NFC=     0 NFV=     0
 NROrb=    736 NOA=    98 NOB=    98 NVA=   638 NVB=   638

 **** Warning!!: The largest alpha MO coefficient is  0.13232446D+03


 **** Warning!!: The smallest alpha delta epsilon is  0.86227100D-01

 Symmetrizing basis deriv contribution to polar:
 IMax=3 JMax=2 DiffMx= 0.00D+00
 G2DrvN: will do    47 centers at a time, making    1 passes.
 Calling FoFCou, ICntrl=  3107 FMM=F I1Cent=   0 AccDes= 0.00D+00.
 End of G2Drv F.D. properties file   721 does not exist.
 End of G2Drv F.D. properties file   722 does not exist.
 End of G2Drv F.D. properties file   788 does not exist.
          IDoAtm=1111111111111111111111111111111111111111111111
          Differentiating once with respect to nuclear coordinates.
 CalDSu exits because no D1Ps are significant.
          There are   141 degrees of freedom in the 1st order CPHF.  IDoFFX=6 NUNeed=     0.
    136 vectors produced by pass  0 Test12= 6.25D-14 1.00D-09 XBig12= 3.23D-01 1.38D-01.
 AX will form   136 AO Fock derivatives at one time.
    136 vectors produced by pass  1 Test12= 6.25D-14 1.00D-09 XBig12= 7.90D-02 5.28D-02.
    135 vectors produced by pass  2 Test12= 6.25D-14 1.00D-09 XBig12= 8.83D-04 4.49D-03.
    135 vectors produced by pass  3 Test12= 6.25D-14 1.00D-09 XBig12= 6.39D-06 2.58D-04.
    135 vectors produced by pass  4 Test12= 6.25D-14 1.00D-09 XBig12= 2.11D-08 1.85D-05.
    135 vectors produced by pass  5 Test12= 6.25D-14 1.00D-09 XBig12= 7.82D-11 7.32D-07.
    109 vectors produced by pass  6 Test12= 6.25D-14 1.00D-09 XBig12= 1.54D-11 2.73D-07.
     82 vectors produced by pass  7 Test12= 6.25D-14 1.00D-09 XBig12= 2.13D-12 8.07D-08.
     36 vectors produced by pass  8 Test12= 6.25D-14 1.00D-09 XBig12= 9.19D-14 1.61D-08.
      5 vectors produced by pass  9 Test12= 6.25D-14 1.00D-09 XBig12= 5.87D-16 1.36D-09.
      1 vectors produced by pass 10 Test12= 6.25D-14 1.00D-09 XBig12= 4.48D-16 1.20D-09.
 InvSVY:  IOpt=1 It=  1 EMax= 8.33D-16
 Solved reduced A of dimension  1045 with   141 vectors.
 End of Minotr F.D. properties file   721 does not exist.
 End of Minotr F.D. properties file   722 does not exist.
 End of Minotr F.D. properties file   788 does not exist.

 **********************************************************************

            Population analysis using the SCF Density.

 **********************************************************************

 Orbital symmetries:
       Occupied  (A) (A) (A) (A) (A) (A) (A) (A) (A) (A) (A) (A)
                 (A) (A) (A) (A) (A) (A) (A) (A) (A) (A) (A) (A)
                 (A) (A) (A) (A) (A) (A) (A) (A) (A) (A) (A) (A)
                 (A) (A) (A) (A) (A) (A) (A) (A) (A) (A) (A) (A)
                 (A) (A) (A) (A) (A) (A) (A) (A) (A) (A) (A) (A)
                 (A) (A) (A) (A) (A) (A) (A) (A) (A) (A) (A) (A)
                 (A) (A) (A) (A) (A) (A) (A) (A) (A) (A) (A) (A)
                 (A) (A) (A) (A) (A) (A) (A) (A) (A) (A) (A) (A)
                 (A) (A)
       Virtual   (A) (A) (A) (A) (A) (A) (A) (A) (A) (A) (A) (A)
                 (A) (A) (A) (A) (A) (A) (A) (A) (A) (A) (A) (A)
                 (A) (A) (A) (A) (A) (A) (A) (A) (A) (A) (A) (A)
                 (A) (A) (A) (A) (A) (A) (A) (A) (A) (A) (A) (A)
                 (A) (A) (A) (A) (A) (A) (A) (A) (A) (A) (A) (A)
                 (A) (A) (A) (A) (A) (A) (A) (A) (A) (A) (A) (A)
                 (A) (A) (A) (A) (A) (A) (A) (A) (A) (A) (A) (A)
                 (A) (A) (A) (A) (A) (A) (A) (A) (A) (A) (A) (A)
                 (A) (A) (A) (A) (A) (A) (A) (A) (A) (A) (A) (A)
                 (A) (A) (A) (A) (A) (A) (A) (A) (A) (A) (A) (A)
                 (A) (A) (A) (A) (A) (A) (A) (A) (A) (A) (A) (A)
                 (A) (A) (A) (A) (A) (A) (A) (A) (A) (A) (A) (A)
                 (A) (A) (A) (A) (A) (A) (A) (A) (A) (A) (A) (A)
                 (A) (A) (A) (A) (A) (A) (A) (A) (A) (A) (A) (A)
                 (A) (A) (A) (A) (A) (A) (A) (A) (A) (A) (A) (A)
                 (A) (A) (A) (A) (A) (A) (A) (A) (A) (A) (A) (A)
                 (A) (A) (A) (A) (A) (A) (A) (A) (A) (A) (A) (A)
                 (A) (A) (A) (A) (A) (A) (A) (A) (A) (A) (A) (A)
                 (A) (A) (A) (A) (A) (A) (A) (A) (A) (A) (A) (A)
                 (A) (A) (A) (A) (A) (A) (A) (A) (A) (A) (A) (A)
                 (A) (A) (A) (A) (A) (A) (A) (A) (A) (A) (A) (A)
                 (A) (A) (A) (A) (A) (A) (A) (A) (A) (A) (A) (A)
                 (A) (A) (A) (A) (A) (A) (A) (A) (A) (A) (A) (A)
                 (A) (A) (A) (A) (A) (A) (A) (A) (A) (A) (A) (A)
                 (A) (A) (A) (A) (A) (A) (A) (A) (A) (A) (A) (A)
                 (A) (A) (A) (A) (A) (A) (A) (A) (A) (A) (A) (A)
                 (A) (A) (A) (A) (A) (A) (A) (A) (A) (A) (A) (A)
                 (A) (A) (A) (A) (A) (A) (A) (A) (A) (A) (A) (A)
                 (A) (A) (A) (A) (A) (A) (A) (A) (A) (A) (A) (A)
                 (A) (A) (A) (A) (A) (A) (A) (A) (A) (A) (A) (A)
                 (A) (A) (A) (A) (A) (A) (A) (A) (A) (A) (A) (A)
                 (A) (A) (A) (A) (A) (A) (A) (A) (A) (A) (A) (A)
                 (A) (A) (A) (A) (A) (A) (A) (A) (A) (A) (A) (A)
                 (A) (A) (A) (A) (A) (A) (A) (A) (A) (A) (A) (A)
                 (A) (A) (A) (A) (A) (A) (A) (A) (A) (A) (A) (A)
                 (A) (A) (A) (A) (A) (A) (A) (A) (A) (A) (A) (A)
                 (A) (A) (A) (A) (A) (A) (A) (A) (A) (A) (A) (A)
                 (A) (A) (A) (A) (A) (A) (A) (A) (A) (A) (A) (A)
                 (A) (A) (A) (A) (A) (A) (A) (A) (A) (A) (A) (A)
                 (A) (A) (A) (A) (A) (A) (A) (A) (A) (A) (A) (A)
                 (A) (A) (A) (A) (A) (A) (A) (A) (A) (A) (A) (A)
                 (A) (A) (A) (A) (A) (A) (A) (A) (A) (A) (A) (A)
                 (A) (A) (A) (A) (A) (A) (A) (A) (A) (A) (A) (A)
                 (A) (A) (A) (A) (A) (A) (A) (A) (A) (A) (A) (A)
                 (A) (A) (A) (A) (A) (A) (A) (A) (A) (A) (A) (A)
                 (A) (A) (A) (A) (A) (A) (A) (A) (A) (A) (A) (A)
                 (A) (A) (A) (A) (A) (A) (A) (A) (A) (A) (A) (A)
                 (A) (A) (A) (A) (A) (A) (A) (A) (A) (A) (A) (A)
                 (A) (A) (A) (A) (A) (A) (A) (A) (A) (A) (A) (A)
                 (A) (A) (A) (A) (A) (A) (A) (A) (A) (A) (A) (A)
                 (A) (A) (A) (A) (A) (A) (A) (A) (A) (A) (A) (A)
                 (A) (A) (A) (A) (A) (A) (A) (A) (A) (A) (A) (A)
                 (A) (A) (A) (A) (A) (A) (A) (A) (A) (A) (A) (A)
                 (A) (A)
 The electronic state is 1-A.
 Alpha  occ. eigenvalues --  -10.20430 -10.19905 -10.19674 -10.19658 -10.19592
 Alpha  occ. eigenvalues --  -10.19516 -10.19432 -10.19379 -10.19169 -10.19126
 Alpha  occ. eigenvalues --  -10.18952 -10.18837 -10.18808 -10.18779 -10.18740
 Alpha  occ. eigenvalues --  -10.18729 -10.18707 -10.18671 -10.18636 -10.18504
 Alpha  occ. eigenvalues --  -10.18442 -10.18432 -10.18416 -10.18379 -10.18319
 Alpha  occ. eigenvalues --  -10.18217 -10.18091 -10.16976 -10.16835 -10.16707
 Alpha  occ. eigenvalues --   -0.91867  -0.89453  -0.86952  -0.85216  -0.84221
 Alpha  occ. eigenvalues --   -0.82057  -0.80856  -0.79164  -0.78941  -0.75970
 Alpha  occ. eigenvalues --   -0.74664  -0.74403  -0.72537  -0.72109  -0.71264
 Alpha  occ. eigenvalues --   -0.66547  -0.64644  -0.63894  -0.63011  -0.62407
 Alpha  occ. eigenvalues --   -0.60318  -0.59675  -0.57962  -0.56487  -0.54451
 Alpha  occ. eigenvalues --   -0.53300  -0.52511  -0.51411  -0.50509  -0.49687
 Alpha  occ. eigenvalues --   -0.49356  -0.47822  -0.47146  -0.46474  -0.44915
 Alpha  occ. eigenvalues --   -0.44327  -0.43983  -0.43738  -0.43423  -0.43113
 Alpha  occ. eigenvalues --   -0.42716  -0.42035  -0.41394  -0.41129  -0.40354
 Alpha  occ. eigenvalues --   -0.40174  -0.39847  -0.38866  -0.38275  -0.37913
 Alpha  occ. eigenvalues --   -0.36736  -0.36185  -0.35644  -0.35003  -0.34662
 Alpha  occ. eigenvalues --   -0.33610  -0.33174  -0.32972  -0.31669  -0.30637
 Alpha  occ. eigenvalues --   -0.29288  -0.28247  -0.26086  -0.24553  -0.23166
 Alpha  occ. eigenvalues --   -0.22318  -0.20965  -0.18412
 Alpha virt. eigenvalues --   -0.09789  -0.08696  -0.04942  -0.04409  -0.02552
 Alpha virt. eigenvalues --   -0.00415  -0.00144   0.00518   0.00718   0.01103
 Alpha virt. eigenvalues --    0.01586   0.01610   0.01857   0.02375   0.02617
 Alpha virt. eigenvalues --    0.02949   0.03114   0.03239   0.04205   0.04337
 Alpha virt. eigenvalues --    0.04640   0.04803   0.04926   0.05105   0.05856
 Alpha virt. eigenvalues --    0.06384   0.06635   0.07050   0.07282   0.07662
 Alpha virt. eigenvalues --    0.08034   0.08404   0.08744   0.08911   0.09470
 Alpha virt. eigenvalues --    0.09634   0.09730   0.10010   0.10702   0.11123
 Alpha virt. eigenvalues --    0.11217   0.11623   0.11860   0.11989   0.12448
 Alpha virt. eigenvalues --    0.12764   0.12970   0.13372   0.13820   0.14359
 Alpha virt. eigenvalues --    0.14855   0.15045   0.15205   0.15408   0.15846
 Alpha virt. eigenvalues --    0.16071   0.16358   0.16401   0.16564   0.16830
 Alpha virt. eigenvalues --    0.16988   0.17194   0.17397   0.17499   0.17937
 Alpha virt. eigenvalues --    0.18178   0.18492   0.18623   0.18856   0.19115
 Alpha virt. eigenvalues --    0.19159   0.19285   0.19335   0.19643   0.19997
 Alpha virt. eigenvalues --    0.20107   0.20599   0.20671   0.20911   0.21115
 Alpha virt. eigenvalues --    0.21398   0.21508   0.21680   0.21955   0.22082
 Alpha virt. eigenvalues --    0.22362   0.22469   0.22710   0.22799   0.23320
 Alpha virt. eigenvalues --    0.23593   0.23611   0.23735   0.23936   0.24196
 Alpha virt. eigenvalues --    0.24335   0.24578   0.25060   0.25249   0.25333
 Alpha virt. eigenvalues --    0.25395   0.25885   0.26365   0.26554   0.26796
 Alpha virt. eigenvalues --    0.26979   0.27053   0.27270   0.27440   0.27853
 Alpha virt. eigenvalues --    0.27909   0.28400   0.28606   0.28665   0.29043
 Alpha virt. eigenvalues --    0.29363   0.29540   0.29856   0.29915   0.30412
 Alpha virt. eigenvalues --    0.30795   0.30851   0.31074   0.31501   0.31986
 Alpha virt. eigenvalues --    0.32227   0.32449   0.32641   0.32907   0.33222
 Alpha virt. eigenvalues --    0.33814   0.34239   0.34393   0.34867   0.35136
 Alpha virt. eigenvalues --    0.35580   0.35795   0.36430   0.36648   0.37286
 Alpha virt. eigenvalues --    0.37405   0.38180   0.38557   0.39182   0.39808
 Alpha virt. eigenvalues --    0.40471   0.41365   0.41571   0.42104   0.43153
 Alpha virt. eigenvalues --    0.43274   0.43709   0.44201   0.45404   0.45917
 Alpha virt. eigenvalues --    0.46311   0.46465   0.47783   0.48002   0.48611
 Alpha virt. eigenvalues --    0.48878   0.50058   0.51130   0.51417   0.51800
 Alpha virt. eigenvalues --    0.52185   0.52525   0.53056   0.53811   0.54202
 Alpha virt. eigenvalues --    0.54441   0.54570   0.55155   0.55322   0.55827
 Alpha virt. eigenvalues --    0.56373   0.56886   0.57146   0.57401   0.57926
 Alpha virt. eigenvalues --    0.58240   0.58527   0.58578   0.59022   0.59287
 Alpha virt. eigenvalues --    0.59716   0.59997   0.60303   0.60924   0.61271
 Alpha virt. eigenvalues --    0.61667   0.61953   0.62880   0.63097   0.63535
 Alpha virt. eigenvalues --    0.64323   0.64997   0.65194   0.65701   0.65781
 Alpha virt. eigenvalues --    0.66396   0.66616   0.67061   0.67617   0.68176
 Alpha virt. eigenvalues --    0.68778   0.69008   0.69388   0.69634   0.69910
 Alpha virt. eigenvalues --    0.70258   0.70548   0.70781   0.70977   0.71325
 Alpha virt. eigenvalues --    0.71695   0.71807   0.72568   0.72631   0.73086
 Alpha virt. eigenvalues --    0.73391   0.73602   0.73979   0.74222   0.74613
 Alpha virt. eigenvalues --    0.75097   0.75221   0.75658   0.75828   0.76073
 Alpha virt. eigenvalues --    0.76970   0.77188   0.77908   0.78165   0.78605
 Alpha virt. eigenvalues --    0.78932   0.79660   0.81225   0.81761   0.82184
 Alpha virt. eigenvalues --    0.82787   0.83682   0.83877   0.84437   0.85191
 Alpha virt. eigenvalues --    0.85611   0.85801   0.86397   0.86881   0.87014
 Alpha virt. eigenvalues --    0.87694   0.88716   0.89207   0.89403   0.89724
 Alpha virt. eigenvalues --    0.90377   0.90762   0.91306   0.92046   0.92403
 Alpha virt. eigenvalues --    0.93178   0.93464   0.93900   0.93977   0.94826
 Alpha virt. eigenvalues --    0.95363   0.95869   0.96090   0.96433   0.96825
 Alpha virt. eigenvalues --    0.97162   0.97446   0.97749   0.98031   0.98668
 Alpha virt. eigenvalues --    0.99238   0.99314   1.00016   1.00633   1.00778
 Alpha virt. eigenvalues --    1.01377   1.02250   1.02618   1.03437   1.03602
 Alpha virt. eigenvalues --    1.04966   1.05252   1.06181   1.06591   1.06927
 Alpha virt. eigenvalues --    1.07224   1.07687   1.07943   1.08827   1.09669
 Alpha virt. eigenvalues --    1.11177   1.11424   1.11799   1.11993   1.13113
 Alpha virt. eigenvalues --    1.14476   1.15040   1.16644   1.17160   1.17415
 Alpha virt. eigenvalues --    1.18383   1.19102   1.20779   1.22014   1.23375
 Alpha virt. eigenvalues --    1.24017   1.24943   1.25685   1.26780   1.28522
 Alpha virt. eigenvalues --    1.29935   1.31006   1.32379   1.34336   1.35079
 Alpha virt. eigenvalues --    1.35446   1.37117   1.37676   1.39009   1.40102
 Alpha virt. eigenvalues --    1.40649   1.42605   1.43812   1.44665   1.45503
 Alpha virt. eigenvalues --    1.46284   1.46878   1.47455   1.47517   1.48184
 Alpha virt. eigenvalues --    1.49212   1.49797   1.50215   1.50641   1.51286
 Alpha virt. eigenvalues --    1.51683   1.52031   1.52597   1.53397   1.53813
 Alpha virt. eigenvalues --    1.54810   1.55250   1.55946   1.56698   1.56845
 Alpha virt. eigenvalues --    1.57361   1.57813   1.58457   1.60379   1.60794
 Alpha virt. eigenvalues --    1.61272   1.61378   1.61914   1.63652   1.63942
 Alpha virt. eigenvalues --    1.64934   1.65395   1.65850   1.67200   1.67720
 Alpha virt. eigenvalues --    1.68998   1.69263   1.70046   1.70403   1.71503
 Alpha virt. eigenvalues --    1.72539   1.72823   1.73629   1.74003   1.74682
 Alpha virt. eigenvalues --    1.75074   1.75457   1.76091   1.77485   1.77612
 Alpha virt. eigenvalues --    1.78268   1.78642   1.79269   1.80808   1.81738
 Alpha virt. eigenvalues --    1.82040   1.82524   1.83379   1.83903   1.84076
 Alpha virt. eigenvalues --    1.85213   1.85409   1.86528   1.87255   1.87624
 Alpha virt. eigenvalues --    1.88082   1.88443   1.89249   1.89817   1.90167
 Alpha virt. eigenvalues --    1.90459   1.91474   1.91726   1.92174   1.93030
 Alpha virt. eigenvalues --    1.93339   1.93954   1.94296   1.94714   1.95649
 Alpha virt. eigenvalues --    1.96441   1.97074   1.98301   1.99435   1.99555
 Alpha virt. eigenvalues --    2.00485   2.00696   2.01607   2.02703   2.03169
 Alpha virt. eigenvalues --    2.03856   2.04350   2.05138   2.05777   2.06608
 Alpha virt. eigenvalues --    2.07229   2.07624   2.08396   2.09652   2.10416
 Alpha virt. eigenvalues --    2.12797   2.12961   2.13628   2.14002   2.14816
 Alpha virt. eigenvalues --    2.15594   2.16776   2.17595   2.18074   2.18565
 Alpha virt. eigenvalues --    2.19820   2.21405   2.22910   2.23984   2.24840
 Alpha virt. eigenvalues --    2.25164   2.25846   2.26548   2.27436   2.28595
 Alpha virt. eigenvalues --    2.29269   2.31886   2.33431   2.34779   2.35313
 Alpha virt. eigenvalues --    2.37030   2.37613   2.39450   2.40144   2.41334
 Alpha virt. eigenvalues --    2.42587   2.43141   2.45205   2.45973   2.46592
 Alpha virt. eigenvalues --    2.46692   2.46988   2.48104   2.49322   2.49935
 Alpha virt. eigenvalues --    2.53609   2.56284   2.56808   2.57213   2.57541
 Alpha virt. eigenvalues --    2.59556   2.59946   2.61883   2.61976   2.64589
 Alpha virt. eigenvalues --    2.65061   2.65528   2.67460   2.67675   2.68681
 Alpha virt. eigenvalues --    2.69436   2.70363   2.71800   2.72243   2.72475
 Alpha virt. eigenvalues --    2.72775   2.73322   2.73606   2.74015   2.74622
 Alpha virt. eigenvalues --    2.75027   2.75588   2.75911   2.76356   2.76494
 Alpha virt. eigenvalues --    2.76984   2.77551   2.77706   2.78559   2.78962
 Alpha virt. eigenvalues --    2.79611   2.80253   2.80471   2.81204   2.81790
 Alpha virt. eigenvalues --    2.82809   2.83344   2.84052   2.85832   2.86057
 Alpha virt. eigenvalues --    2.86585   2.87179   2.88093   2.88547   2.89388
 Alpha virt. eigenvalues --    2.90522   2.90865   2.92205   2.92941   2.93439
 Alpha virt. eigenvalues --    2.95671   2.96464   2.97768   3.01005   3.02009
 Alpha virt. eigenvalues --    3.02690   3.03575   3.06187   3.07017   3.07797
 Alpha virt. eigenvalues --    3.09076   3.11099   3.12651   3.13815   3.15597
 Alpha virt. eigenvalues --    3.17457   3.18511   3.20664   3.21024   3.21741
 Alpha virt. eigenvalues --    3.22002   3.23703   3.24425   3.25131   3.26655
 Alpha virt. eigenvalues --    3.28698   3.31604   3.32546   3.34696   3.35856
 Alpha virt. eigenvalues --    3.36349   3.37703   3.40122   3.41369   3.42429
 Alpha virt. eigenvalues --    3.43568   3.45183   3.45677   3.46909   3.47157
 Alpha virt. eigenvalues --    3.48234   3.50080   3.51059   3.52946   3.53583
 Alpha virt. eigenvalues --    3.56517   3.58301   3.59643   3.61639   3.63326
 Alpha virt. eigenvalues --    3.63889   3.68950   3.72042   3.74827   3.78616
 Alpha virt. eigenvalues --    3.79771   3.83104   3.85740   3.92693   3.98978
 Alpha virt. eigenvalues --    4.02766   4.04622   4.06210   4.06687   4.07278
 Alpha virt. eigenvalues --    4.08009   4.09487   4.11908   4.15401   4.21927
 Alpha virt. eigenvalues --    4.25763   4.29416   4.35432   4.41231   4.63778
 Alpha virt. eigenvalues --    4.68216   4.75247   4.76211   4.78004   4.79157
 Alpha virt. eigenvalues --    4.81293   4.84507   4.88168  23.43296  23.60592
 Alpha virt. eigenvalues --   23.72078  23.78515  23.80996  23.82661  23.84606
 Alpha virt. eigenvalues --   23.87610  23.90398  23.92845  23.92878  23.94593
 Alpha virt. eigenvalues --   23.95703  23.98466  23.99160  23.99979  24.00717
 Alpha virt. eigenvalues --   24.03220  24.04619  24.07624  24.09158  24.09967
 Alpha virt. eigenvalues --   24.11764  24.12850  24.13735  24.15384  24.16040
 Alpha virt. eigenvalues --   24.20008  24.20080  24.22216
          Condensed to atoms (all electrons):
               1          2          3          4          5          6
     1  C   11.836173   0.227580  -1.351016   1.008886  -1.543459  -1.159413
     2  C    0.227580   9.192967   0.406122  -0.205480  -0.368590   0.013981
     3  C   -1.351016   0.406122   8.998569  -0.641227   1.338861   0.137218
     4  C    1.008886  -0.205480  -0.641227   8.826263  -1.473705   2.159649
     5  C   -1.543459  -0.368590   1.338861  -1.473705   9.293667  -1.059128
     6  C   -1.159413   0.013981   0.137218   2.159649  -1.059128  13.571203
     7  C   -2.534066   0.443426   0.295276  -3.844556   3.366808  -4.526383
     8  C    0.961375   0.039257  -1.480968   1.992219  -3.251662   0.047077
     9  C   -0.453172  -0.092749  -0.227283  -0.330684   1.739171  -0.339449
    10  C   -2.053945   0.240092   1.429744  -0.212298   0.563809  -0.401350
    11  C   -0.208472  -1.562157   0.419497  -0.638003   1.136676   0.051518
    12  C    0.220412  -0.512009   0.713312  -0.083723  -0.450352   0.257495
    13  C   -0.235831  -0.391297  -1.485014  -0.556321  -0.653544   0.723241
    14  C   -2.293973  -1.123964  -0.265857   1.235440  -0.099726   0.092664
    15  C    2.523867  -0.250948  -0.330581  -0.873751  -1.351825  -3.620121
    16  C    0.802340   0.226117   0.337016   0.214870  -0.183133  -0.170426
    17  C   -1.610927  -0.355182   0.049311  -0.408545  -0.119187   0.283792
    18  C    0.523934   1.141122   0.286075   0.029542  -0.530322  -0.125431
    19  C    0.504448  -0.310991  -0.104907  -0.025477  -0.497770   0.069511
    20  C    0.043093   0.286051  -0.543026   0.148130   0.124101  -0.081331
    21  C    0.159132  -0.455643  -0.301821  -0.035679   0.009210   0.006067
    22  C    0.177418  -0.794942  -1.164993  -0.101714   0.119387   0.056325
    23  C    0.920923  -0.371847  -0.576341   0.234381  -0.151554  -0.313131
    24  C    0.147496   0.023863  -0.044860  -0.057445   0.018697  -0.093796
    25  C    0.093770   0.112349   0.031129  -0.019583  -0.007760   0.025868
    26  C    0.074721   0.011163  -0.224020  -0.047532   0.009329  -0.011832
    27  C   -0.376004   0.179786   0.110951  -0.057988   0.027016   0.119369
    28  C    0.238868  -0.302853  -0.090764   0.038702  -0.059996  -0.123958
    29  C   -0.443823   0.755571   0.211751  -0.106889   0.203224   0.148362
    30  C   -0.799938  -0.691461   0.150635  -0.405376  -0.112354   0.280126
    31  H   -0.020423   0.029985   0.004374   0.038895   0.005328  -0.020552
    32  H    0.050173   0.000867   0.001926  -0.005342   0.001321  -0.015366
    33  H   -0.007534  -0.000596   0.004708   0.034501  -0.006622  -0.069468
    34  H   -0.008881   0.003513  -0.004363   0.030932  -0.016800  -0.117612
    35  H   -0.007359   0.003712  -0.015955  -0.018827   0.049895  -0.048307
    36  H    0.006457  -0.000711   0.007627  -0.008701   0.019220   0.010696
    37  H    0.003337  -0.006210   0.029806  -0.001574  -0.006431  -0.000217
    38  H   -0.004417  -0.023140   0.011377   0.002848  -0.006095   0.000137
    39  H    0.000033  -0.010379   0.011677  -0.000140   0.001401   0.000020
    40  H    0.000379   0.000085   0.001012   0.000078   0.000161  -0.000006
    41  H   -0.000589   0.003675  -0.000235   0.000050   0.000039  -0.000003
    42  H    0.000693  -0.000652  -0.000064  -0.000041  -0.000010  -0.000037
    43  H   -0.000905   0.000522  -0.000045   0.000134   0.000013  -0.000153
    44  H   -0.002038   0.003855   0.000516   0.000768   0.000322   0.001734
    45  H   -0.002181   0.006348  -0.003836  -0.003930  -0.001574   0.007150
    46  H   -0.015743   0.007008   0.000846   0.000497   0.001592   0.003996
               7          8          9         10         11         12
     1  C   -2.534066   0.961375  -0.453172  -2.053945  -0.208472   0.220412
     2  C    0.443426   0.039257  -0.092749   0.240092  -1.562157  -0.512009
     3  C    0.295276  -1.480968  -0.227283   1.429744   0.419497   0.713312
     4  C   -3.844556   1.992219  -0.330684  -0.212298  -0.638003  -0.083723
     5  C    3.366808  -3.251662   1.739171   0.563809   1.136676  -0.450352
     6  C   -4.526383   0.047077  -0.339449  -0.401350   0.051518   0.257495
     7  C   16.008223  -1.912903   0.581771   1.017699  -0.122795  -1.040869
     8  C   -1.912903  12.503212  -3.196331  -0.605485  -0.250698   0.236538
     9  C    0.581771  -3.196331  11.600605   1.276470  -1.316638  -1.534647
    10  C    1.017699  -0.605485   1.276470  12.753015  -1.246167  -1.994721
    11  C   -0.122795  -0.250698  -1.316638  -1.246167  10.774596   2.223035
    12  C   -1.040869   0.236538  -1.534647  -1.994721   2.223035   8.744291
    13  C    0.182116   0.758759  -0.045261  -0.512899  -0.277616  -0.139868
    14  C   -0.338616  -0.312501   0.310613  -0.130944   0.101470  -0.002974
    15  C   -1.659881   0.495984  -0.222082  -0.353226  -0.180109  -0.016084
    16  C   -0.208267   0.036432  -0.524580  -1.581498  -0.830394   0.013543
    17  C    0.217272  -0.408470  -0.382523   0.200714  -0.172535  -0.143707
    18  C   -0.105363   0.086771  -0.480352   0.936697  -1.497100  -0.277070
    19  C   -0.033128   0.020437  -0.025094  -0.947206  -0.258003  -0.029741
    20  C   -0.036068   0.007861  -0.070349  -0.382269   0.004717  -0.008341
[...]
 ,-0.09517823,-0.06388157,-0.01709557,-0.01220846,-0.00601505,0.0004074
 1,0.00308111,-0.00344712,0.00057877,0.00090451,0.00037340,-0.00000922,
 -0.00001872,-0.00002605,-0.00000638,0.00001445,0.00000257,-0.00000435,
 0.00000151,-0.00000136,-0.00000239,0.00000375,-0.00000088,-0.00000465,
 -0.00000100,-0.00000170,-0.00000509,-0.00000063,-0.00000098,0.00000013
 ,-0.00000451,-0.00000106,-0.00000242,-0.00000510,0.00000066,-0.0000024
 5,-0.00000447,0.00001370,0.00000454,-0.00000967,0.00000056,-0.00000585
 ,-0.00004722,0.00002010,0.00038311,-0.00050256,-0.00014524,0.28606045,
 -0.00006359,-0.00000677,0.00003383,0.00000733,-0.00005626,0.00000318,0
 .00002187,0.00002081,0.00000771,0.00000453,0.00000803,0.00004465,-0.00
 004762,-0.00002359,-0.00001762,-0.00000021,0.00001391,0.00001350,-0.00
 001712,-0.00000118,-0.00000559,0.00000827,0.00001366,0.00000328,0.0000
 2961,0.00000289,-0.00000712,0.00002034,-0.00002118,0.00001641,-0.00002
 011,0.00001298,-0.00000283,-0.00000011,-0.00002166,0.00000286,-0.00003
 534,0.00002233,-0.00001795,-0.00000476,-0.00000238,0.00001724,-0.00001
 943,0.00002775,-0.00002237,0.00002440,-0.00034419,0.00027695,-0.000092
 32,0.00000164,0.00000847,-0.00002097,-0.00002469,-0.00003077,-0.001462
 18,0.00010630,0.00021689,-0.00008481,0.00012353,-0.00008798,0.00008122
 ,0.00003647,-0.00004009,-0.00002146,-0.00001420,0.00001926,0.00058573,
 -0.00454766,0.00084351,-0.02726391,-0.00869710,-0.00729414,-0.00156138
 ,0.00129596,-0.00020079,0.00038230,0.00012929,0.00010651,-0.09686476,-
 0.09981744,-0.02553765,0.01827373,0.01124971,0.00563636,0.00136602,-0.
 00171720,0.00247269,0.00062438,-0.00076799,0.00014932,-0.00000499,-0.0
 0001547,-0.00000613,-0.00000329,0.00000821,0.00000975,-0.00000075,0.00
 000345,-0.00000107,-0.00000214,0.00000282,-0.00000012,-0.00000446,0.00
 000068,0.00000048,-0.00000396,-0.00000068,0.00000035,-0.00000133,-0.00
 000305,-0.00000223,-0.00001038,-0.00000866,-0.00001290,0.00000244,-0.0
 0000266,0.00000728,0.00000271,-0.00002908,0.00000210,0.00000961,-0.000
 03312,-0.00004833,0.00106049,-0.00024813,0.00004905,0.10390511,0.10220
 366,-0.00024032,-0.00002279,0.00018365,0.00006595,0.00016713,-0.000095
 94,-0.00009344,-0.00003410,-0.00002640,0.00008239,-0.00001195,0.000090
 35,-0.00002517,-0.00006735,-0.00002514,-0.00000741,0.00001221,-0.00000
 526,0.00000381,0.00000187,-0.00000033,-0.00000057,-0.00000365,-0.00000
 331,0.00001177,0.00000236,-0.00000920,0.00000502,0.00004162,0.00000905
 ,-0.00001900,0.00001175,-0.00000465,-0.00000261,-0.00001738,-0.0000012
 5,-0.00002711,-0.00007159,-0.00010665,-0.00002773,-0.00000713,-0.00001
 141,0.00001880,-0.00000157,0.00000201,0.00016423,-0.00000807,-0.000017
 72,0.00000585,-0.00004678,-0.00000173,0.00001858,-0.00001388,-0.000005
 27,-0.00008232,0.00008015,0.00019569,-0.00020824,-0.00008866,0.0000374
 8,0.00007093,0.00014564,0.00000392,-0.00010527,-0.00001667,-0.00001539
 ,-0.00109204,0.00104156,0.00210035,0.00303434,0.00558008,0.00232592,0.
 00081372,-0.00069265,-0.00115591,0.00040768,0.00031320,-0.00017121,-0.
 06299328,-0.02868947,-0.05303015,-0.01237159,-0.00357464,0.00015710,-0
 .00362281,0.00336712,0.00953001,0.00060207,-0.00089006,-0.00044530,0.0
 0000957,0.00000081,0.00001395,0.00000428,0.00000184,0.00000714,-0.0000
 0492,0.00000530,-0.00000050,-0.00000450,0.00000385,0.00000139,-0.00000
 577,-0.00000086,0.00000008,-0.00000542,-0.00000192,0.00000183,-0.00000
 227,-0.00000487,-0.00000030,-0.00000292,-0.00000583,0.00000578,-0.0000
 0285,-0.00000553,-0.00000244,0.00000626,-0.00000472,0.00000072,0.00000
 101,0.00001559,0.00006183,0.00005078,-0.00008522,0.00024868,0.07267360
 ,0.02385128,0.04582169,0.00028257,-0.00057006,-0.00044341,0.00014188,0
 .00052532,-0.00025678,-0.00016872,0.00003024,-0.00015761,-0.00021060,-
 0.00008248,-0.00002612,0.00015244,0.00001720,0.00005022,-0.00003154,-0
 .00008061,-0.00006033,0.00002454,0.00003458,0.00001522,-0.00001013,-0.
 00005732,-0.00001392,-0.00012985,-0.00006909,-0.00001930,-0.00011352,0
 .00010902,-0.00001761,0.00011318,0.00001034,0.00002778,-0.00008525,0.0
 0010367,-0.00002005,0.00029590,0.00019331,0.00002150,0.00013184,-0.000
 01447,-0.00007069,-0.00003166,0.00003597,-0.00004193,0.00078159,-0.000
 09348,0.00026324,0.00000036,0.00001048,0.00005742,0.00014848,-0.000080
 63,0.00001907,-0.00018806,-0.00079756,0.00094804,-0.00054117,0.0001097
 9,-0.00013610,0.00002326,0.00001243,-0.00006178,-0.00008685,-0.0000365
 4,-0.00000183,-0.00272762,0.00075756,-0.00058157,-0.00166524,0.0021581
 6,-0.00498783,0.00060253,0.00044705,-0.00002157,0.00017513,0.00041473,
 0.00023608,0.00680194,0.02396975,-0.00284850,-0.05775456,-0.03287762,-
 0.00401513,-0.00018914,-0.02236910,0.00165013,-0.00100797,-0.00248658,
 -0.00073429,-0.00004279,-0.00005119,0.00002638,-0.00001921,0.00001311,
 0.00007983,-0.00002397,-0.00000077,0.00002602,-0.00000672,0.00000002,0
 .00000706,0.00000023,0.00000125,0.00000033,-0.00000077,0.00000356,0.00
 000466,-0.00000333,-0.00000296,0.00000557,0.00000124,-0.00000465,-0.00
 001062,0.00000255,-0.00000668,-0.00000748,-0.00000140,-0.00000212,0.00
 000164,0.00001061,0.00012534,-0.00004703,-0.00002679,-0.00004818,-0.00
 009945,0.00019304,0.00001433,0.00247619,0.05419340,0.00046459,-0.00030
 906,-0.00056993,0.00005938,0.00022560,-0.00006277,-0.00014286,-0.00003
 156,-0.00006939,-0.00013369,-0.00004205,-0.00000410,0.00014523,0.00000
 147,0.00006882,-0.00000781,0.00000404,0.00000426,0.00001623,0.00001756
 ,0.00000547,0.00002651,-0.00005056,-0.00000431,-0.00016693,-0.00007726
 ,-0.00004906,-0.00007201,0.00005234,-0.00001260,0.00008972,-0.00000030
 ,0.00001993,-0.00003661,0.00011931,-0.00000529,0.00013690,0.00026725,0
 .00017842,0.00014204,-0.00017871,-0.00006477,-0.00006831,0.00012251,-0
 .00007536,0.00025254,-0.00001206,0.00011311,-0.00010738,0.00000201,-0.
 00003309,0.00009894,-0.00006203,0.00000684,-0.00025672,0.00000609,0.00
 014799,0.00031214,0.00006801,0.00001141,-0.00000594,0.00000250,0.00000
 709,0.00001880,0.00002169,0.00000687,-0.00016015,0.00028065,-0.0000961
 0,0.00305150,0.00049117,0.00093830,-0.00087503,-0.00025482,0.00036622,
 0.00020844,-0.00042613,-0.00002524,-0.00531703,-0.01390976,-0.00032617
 ,-0.02736617,-0.32776702,0.01709405,0.00140353,-0.00625149,0.00176535,
 -0.00192627,0.00015581,-0.00056958,-0.00000794,-0.00005187,0.00002325,
 -0.00001667,0.00003425,0.00006418,-0.00001794,0.00000178,0.00001081,-0
 .00000608,0.00000685,0.00000367,-0.00000951,-0.00000133,-0.00000022,-0
 .00000966,0.00000067,0.00000148,-0.00000144,-0.00000849,-0.00000179,-0
 .00000278,-0.00000667,0.00000316,-0.00000482,-0.00001063,0.00000284,0.
 00001015,-0.00000197,-0.00000320,-0.00001678,-0.00010819,-0.00005927,0
 .00005423,0.00004862,0.00007323,0.00050011,0.00079259,-0.00027477,0.03
 063256,0.34658808,0.00093075,-0.00018146,-0.00092885,0.00006506,0.0001
 4768,-0.00000540,-0.00025745,-0.00013308,-0.00007618,-0.00023649,-0.00
 009184,-0.00018714,0.00038590,0.00010037,0.00020983,-0.00005851,0.0000
 6171,0.00001384,0.00010082,0.00002696,0.00000060,0.00006833,-0.0001821
 4,-0.00001291,-0.00050313,-0.00013658,-0.00011473,-0.00013282,0.000029
 31,-0.00002930,0.00018887,-0.00008441,0.00002985,0.00001812,0.00032295
 ,0.00000780,0.00023447,0.00051242,0.00053994,0.00019753,-0.00020975,-0
 .00000583,-0.00006436,0.00016492,-0.00009351,-0.00010642,0.00007318,0.
 00004514,-0.00029432,0.00001433,-0.00019746,0.00017233,-0.00012061,0.0
 0001232,-0.00046258,0.00095709,-0.00094469,0.00196004,-0.00011431,0.00
 026121,0.00004015,-0.00012156,0.00011572,0.00020593,0.00020865,0.00000
 858,0.00221516,-0.00147612,0.00058988,-0.00454471,-0.00113464,0.008923
 72,-0.00051445,0.00297947,-0.00069084,-0.00140820,-0.00175722,-0.00052
 025,-0.00073527,0.01469767,0.00398880,-0.00358203,0.01288950,-0.037415
 99,0.00064329,-0.01166110,0.00523556,-0.00558108,0.00210048,-0.0002887
 8,-0.00003851,0.00004537,0.00006745,0.00003802,-0.00001835,-0.00003294
 ,-0.00001065,-0.00001225,0.00002011,0.00000167,0.00000836,0.00000792,-
 0.00001192,-0.00000874,0.00000046,-0.00001330,-0.00000038,0.00000113,0
 .00000874,-0.00000689,-0.00000557,-0.00000100,0.00000650,0.00002858,0.
 00000316,-0.00000074,0.00002334,0.00001009,0.00001215,-0.00000639,-0.0
 0001289,0.00003687,-0.00001066,0.00002313,0.00014607,0.00034432,0.0020
 7674,-0.00095668,-0.00542285,0.00879200,-0.01842023,0.02671137,-0.0000
 8843,0.00015100,0.00203791,-0.00001961,0.00020920,0.00006535,-0.000047
 13,-0.00007747,-0.00004974,0.00018406,-0.00008083,0.00015581,0.0001405
 2,0.00002039,-0.00003690,-0.00022249,-0.00011658,-0.00029937,0.0000721
 8,0.00007454,0.00004150,-0.00000634,-0.00009574,-0.00000849,-0.0001355
 8,-0.00003635,0.00000311,-0.00005432,0.00005941,0.00001904,0.00005885,
 -0.00002050,0.00000527,-0.00001971,0.00006721,-0.00000406,-0.00175702,
 -0.00136095,0.00176525,0.00108939,-0.00106174,0.00037700,-0.00030449,0
 .00031287,-0.00066261,-0.00016838,-0.00011645,0.00001025,-0.00007008,0
 .00009384,-0.00003874,0.00006313,-0.00002317,0.00001774,-0.00000724,0.
 00067823,0.00000707,0.00042224,-0.00008566,-0.00006095,-0.00002204,-0.
 00012701,-0.00004275,0.00009531,-0.00000115,0.00001449,0.00115933,-0.0
 0124925,0.00224745,-0.00050957,-0.00124853,0.00054245,-0.00015155,0.00
 049971,-0.00008839,-0.00027355,-0.00030668,0.00012014,-0.00305398,-0.0
 0304294,-0.00063183,-0.02088252,0.01637362,0.00398735,-0.20293731,0.11
 654281,0.03737067,0.00373155,0.00183957,-0.00509910,0.00000337,0.00013
 739,-0.00015217,0.00001927,-0.00000449,-0.00013229,-0.00001685,-0.0000
 0624,0.00000278,-0.00000151,-0.00000317,0.00000649,0.00000446,0.000001
 07,0.00000153,0.00000237,0.00000189,-0.00000061,-0.00000278,0.00000147
 ,0.00000034,-0.00000048,-0.00000099,-0.00000687,0.00000375,0.00000069,
 0.00001251,-0.00000438,-0.00000520,-0.00000497,-0.00000495,0.00001004,
 0.00001902,0.00006281,-0.00001833,-0.00005316,-0.00042173,0.00047830,-
 0.00133513,0.00129970,-0.00038352,-0.00054666,0.22524892,-0.00010943,-
 0.00034982,-0.00068755,0.00008432,-0.00038744,0.00028180,-0.00006455,-
 0.00003706,0.00006499,0.00007755,0.00006041,0.00013914,-0.00016024,-0.
 00027451,-0.00005527,0.00007553,0.00014959,0.00028192,-0.00010163,-0.0
 0006439,-0.00007785,0.00008362,0.00006836,0.00002925,0.00020488,0.0000
 7467,-0.00001385,0.00013630,-0.00002483,0.00004462,-0.00024824,-0.0000
 0357,-0.00004871,0.00011717,-0.00021534,0.00002898,0.00075742,0.000240
 29,0.00028010,-0.00077330,0.00062963,-0.00007703,0.00002356,0.00011714
 ,0.00029413,-0.00081824,-0.00033732,0.00010452,0.00000653,0.00037265,-
 0.00017772,-0.00013833,0.00001038,-0.00000929,0.00082851,0.00152580,0.
 00032538,0.00045991,-0.00046566,0.00001377,0.00006618,-0.00020475,-0.0
 0001618,0.00016288,0.00001264,0.00000684,0.00065895,-0.00497690,0.0035
 9033,-0.00176958,-0.00212996,-0.00055659,0.00011390,0.00053618,0.00001
 090,-0.00058889,-0.00016715,0.00010268,-0.00231767,0.00100800,-0.00218
 798,-0.01041178,0.00984227,0.00368500,0.12203206,-0.13776442,-0.027995
 29,0.01900528,-0.01305956,-0.00729416,-0.00001267,-0.00005831,0.000127
 82,0.00001903,-0.00002180,-0.00009280,0.00006161,-0.00001833,-0.000037
 63,0.00001935,0.00000142,-0.00000572,-0.00000608,0.00000035,0.00000699
 ,0.00000004,-0.00000431,-0.00000267,0.00000421,0.00000488,-0.00001459,
 -0.00001263,-0.00000129,0.00001389,0.00000434,0.00000171,0.00002102,-0
 .00000938,-0.00003427,-0.00001454,0.00000985,-0.00000319,0.00000286,0.
 00006634,-0.00002553,-0.00000839,-0.00014731,0.00013524,-0.00073546,0.
 00060277,0.00062436,0.00034241,-0.13024613,0.14687035,-0.00071331,0.00
 015062,0.00003625,0.00019041,-0.00023388,0.00004421,-0.00011239,-0.000
 17327,-0.00000079,0.00040108,0.00016801,-0.00007547,-0.00027840,-0.000
 26003,-0.00009288,-0.00010927,-0.00016332,0.00000108,0.00013551,0.0000
 1479,0.00000846,0.00001580,-0.00009012,-0.00002835,0.00022626,0.000183
 22,0.00003660,0.00021599,0.00004576,0.00005010,-0.00033416,0.00007217,
 -0.00005906,0.00008165,-0.00037490,-0.00000272,0.00086605,0.00095076,-
 0.00155247,-0.00090150,0.00037567,-0.00016082,0.00091764,0.00006954,0.
 00047530,-0.00041171,-0.00005877,-0.00018535,0.00011020,0.00008158,0.0
 0000812,-0.00018409,0.00008209,-0.00002759,-0.00012098,0.00035234,-0.0
 0008479,-0.00023660,0.00041796,0.00009632,-0.00006778,0.00010317,-0.00
 001020,-0.00006993,0.00001182,-0.00001376,0.00241087,0.00196065,-0.001
 26017,-0.00071622,0.00073148,0.00033111,0.00034025,-0.00101070,0.00031
 837,0.00057354,0.00058054,-0.00012402,-0.00111574,-0.00283771,0.000261
 23,-0.01279373,0.00822598,-0.00041876,0.03909281,-0.02901352,-0.037346
 05,-0.01034314,0.00814985,-0.00230290,-0.00006830,-0.00001120,0.000000
 52,0.00002959,-0.00004242,-0.00010547,-0.00001848,0.00002206,0.0000193
 5,-0.00001746,0.00001176,0.00002205,-0.00001882,-0.00000793,0.00000241
 ,-0.00000811,-0.00000974,-0.00000147,-0.00000584,-0.00000587,-0.000002
 49,-0.00000300,-0.00001097,0.00000801,-0.00000292,-0.00000900,-0.00000
 159,0.00001121,0.00002443,-0.00000128,0.00000102,0.00001162,-0.0000106
 3,0.00003082,-0.00000893,-0.00001363,-0.00044447,0.00025795,-0.0005763
 8,0.00087753,-0.00000091,0.00024063,-0.04137787,0.03158318,0.05110796,
 -0.00110021,0.00036785,0.00190571,0.00030512,0.00033583,-0.00001437,-0
 .00031913,-0.00010921,-0.00013469,0.00056071,-0.00007652,0.00032769,-0
 .00001889,-0.00028058,-0.00010363,-0.00003585,0.00020955,-0.00001337,-
 0.00001429,-0.00002151,-0.00001702,-0.00009694,0.00006765,-0.00000969,
 0.00012933,-0.00004284,0.00002536,-0.00008914,0.00020139,0.00001695,0.
 00001865,-0.00000877,0.00000032,-0.00004664,-0.00002867,-0.00001319,-0
 .00150837,-0.00098650,0.00105424,0.00079083,-0.00079828,0.00010242,-0.
 00013165,-0.00002624,-0.00044290,-0.00016872,0.00005735,-0.00003715,-0
 .00011428,0.00002448,0.00002482,0.00015131,0.00000302,0.00002902,0.000
 10190,0.00060288,-0.00013743,0.00048687,0.00017978,0.00000559,-0.00010
 349,-0.00011470,0.00001429,0.00012116,-0.00003795,0.00000572,0.0002687
 5,0.00001946,0.00077051,0.00120201,-0.00116653,-0.00078131,-0.00031459
 ,0.00054114,0.00003282,-0.00002942,-0.00047417,0.00011292,-0.00242681,
 -0.00255102,-0.00015169,-0.00420078,-0.00220218,-0.02902907,-0.0365113
 2,-0.00514385,0.00272581,0.00072371,0.00377678,0.00378922,0.00004563,0
 .00003339,-0.00010061,-0.00001087,0.00002068,-0.00001680,-0.00004012,0
 .00000995,0.00001463,-0.00001990,0.00000233,0.00000944,-0.00000399,-0.
 00000108,0.00000428,-0.00000283,-0.00000272,0.00000387,-0.00000852,-0.
 00000528,0.00000563,0.00000634,-0.00001057,-0.00001959,0.00000106,-0.0
 0000561,0.00001057,-0.00000201,0.00000311,-0.00000678,-0.00001341,0.00
 000216,-0.00004137,0.00005431,-0.00010361,-0.00000605,-0.00102785,0.00
 070867,0.00175589,-0.00030956,-0.00050350,0.00073649,-0.00247717,0.002
 25396,0.02394597,0.04617907,-0.00173746,0.00040731,0.00210791,0.000483
 03,0.00031225,0.00022715,-0.00040457,-0.00013064,-0.00016265,0.0009619
 2,0.00005928,0.00046509,-0.00035250,-0.00049040,-0.00024817,0.00015791
 ,0.00031013,0.00025117,-0.00004466,-0.00011012,-0.00005607,-0.00006681
 ,0.00014535,0.00001366,0.00048102,0.00013478,0.00006471,0.00012406,0.0
 0018766,0.00008776,-0.00034653,-0.00001162,-0.00006515,0.00011545,-0.0
 0034784,0.00001253,-0.00043282,-0.00109250,-0.00080704,-0.00049140,0.0
 0040192,-0.00025662,-0.00016965,-0.00001984,0.00019936,-0.00061225,-0.
 00000343,-0.00014644,0.00005138,0.00005005,0.00001033,-0.00005651,0.00
 003806,-0.00001919,0.00077309,0.00031351,-0.00039342,-0.00018706,0.000
 07591,0.00025642,0.00007966,-0.00007828,-0.00003921,-0.00005058,0.0000
 6748,-0.00004584,0.00427387,-0.00325160,-0.00106355,-0.00031317,-0.000
 38472,-0.00077224,0.00055676,-0.00067111,0.00064865,0.00040003,0.00055
 361,-0.00005652,-0.00043730,-0.00208038,-0.00009900,-0.00163965,0.0001
 3569,-0.01261498,-0.00293104,-0.03242335,-0.01364039,-0.00491203,-0.00
 599045,0.02807619,0.00008817,-0.00002009,0.00004275,-0.00002259,0.0000
 2300,0.00006142,0.00001178,-0.00000086,-0.00001201,-0.00000523,0.00000
 107,-0.00000103,-0.00000710,-0.00000127,0.00000093,-0.00000261,-0.0000
 1573,-0.00000120,-0.00000435,-0.00000259,-0.00000290,0.00000070,-0.000
 01350,-0.00000170,0.00000630,-0.00000708,0.00001466,-0.00000023,0.0000
 0107,0.00002105,0.00000480,0.00000801,-0.00008570,0.00006746,-0.000076
 70,0.00001386,-0.00025518,0.00019239,0.00073421,-0.00060041,-0.0003732
 7,0.00094462,0.00216580,-0.00165663,-0.02031584,0.00528048,0.04583549,
 0.00061572,-0.00038174,-0.00165097,-0.00017010,-0.00030326,0.00010974,
 0.00012299,-0.00002140,0.00009205,-0.00041261,0.00001269,-0.00020950,0
 .00007750,0.00015930,0.00011196,-0.00000385,-0.00003369,0.00002926,0.0
 0004984,0.00004502,0.00000337,0.00006687,-0.00010249,-0.00000653,-0.00
 017150,0.00000656,-0.00003109,0.00006012,-0.00009609,-0.00000021,-0.00
 001972,-0.00000201,-0.00001087,0.00001871,0.00003240,0.00000785,0.0007
 9936,0.00107132,0.00025831,-0.00015124,0.00009983,0.00002433,-0.000054
 16,0.00010982,0.00011034,-0.00015201,-0.00017466,0.00001711,0.00002977
 ,0.00013371,-0.00006569,-0.00009634,-0.00002340,-0.00000331,-0.0002199
 7,0.00053524,-0.00005612,0.00018081,-0.00000133,0.00001827,0.00001985,
 0.00003274,0.00003133,-0.00000831,0.00003835,-0.00001113,0.00168515,0.
 00006055,-0.00013598,-0.00001907,0.00049741,-0.00053883,0.00027897,-0.
 00024507,0.00027471,-0.00000138,0.00010822,-0.00001684,0.00033481,-0.0
 0272251,0.00103153,-0.00603951,-0.00265508,-0.01115334,0.00789077,-0.0
 2010602,-0.27419790,0.00110578,0.00860150,-0.01071258,-0.00007979,-0.0
 0006938,0.00013168,0.00000673,-0.00001404,0.00001061,0.00001062,-0.000
 01388,0.00000074,0.00001171,-0.00000099,-0.00000032,0.00000093,-0.0000
 0112,-0.00000024,0.00000117,0.00000285,-0.00000101,0.00000440,0.000003
 13,-0.00000825,-0.00000622,0.00000555,0.00001246,0.00000125,0.00000122
 ,0.00000044,0.00000021,0.00001060,-0.00000462,-0.00000222,0.00000290,-
 0.00001417,0.00001460,-0.00003477,0.00000851,-0.00032431,0.00024150,0.
 00033607,-0.00090498,-0.00018860,-0.00043784,0.00180215,-0.00127324,-0
 .00860899,-0.00635349,0.01665241,0.30525566\\0.00001275,0.00002388,-0.
 00001957,-0.00001046,-0.00000912,0.00003661,-0.00000148,0.00000444,0.0
 0001487,0.00000225,-0.00000321,0.00000010,0.00000013,-0.00000334,0.000
 00148,-0.00000153,0.00000365,-0.00000198,-0.00000055,-0.00000304,-0.00
 000326,0.00000191,0.00000080,-0.00000440,0.00000020,-0.00000074,-0.000
 00217,-0.00000119,-0.00000101,-0.00000120,0.00000074,0.00000053,-0.000
 00564,0.00000171,-0.00000169,-0.00000494,-0.00001864,-0.00000713,0.000
 00784,-0.00000661,-0.00000049,-0.00000351,0.00000115,-0.00000268,0.000
 00041,0.00001768,-0.00000206,-0.00001527,-0.00000738,0.00000447,-0.000
 00481,0.00000261,-0.00000012,-0.00000437,0.00000404,0.00001299,0.00000
 050,-0.00000298,-0.00000174,0.00000348,-0.00000076,0.00000052,0.000003
 03,-0.00000179,-0.00000310,0.00000043,0.00001059,-0.00000355,-0.000011
 65,-0.00000213,-0.00000201,-0.00000022,0.00000091,0.00000101,0.0000064
 9,0.00000056,0.00000184,0.00000357,0.00000013,-0.00000078,0.00000078,-
 0.00000160,0.00000272,0.00000207,-0.00000158,-0.00000027,0.00000483,0.
 00000455,-0.00000716,-0.00000128,-0.00000651,0.00000306,0.00000148,-0.
 00000200,0.00000009,-0.00000062,-0.00000074,0.00000010,-0.00000306,-0.
 00000067,-0.00000091,-0.00000362,0.00000021,-0.00000096,-0.00000280,0.
 00000064,-0.00000130,-0.00000134,0.00000046,-0.00000062,0.00000047,0.0
 0000046,-0.00000035,0.00000022,0.00000021,0.00000009,0.00000054,0.0000
 0022,0.00000051,0.00000197,-0.00000022,0.00000050,0.00000299,0.0000001
 7,0.00000088,0.00000315,-0.00000034,0.00000079,0.00000209,0.00000039,0
 .00000047,0.00000026,0.00000114,0.00000015,-0.00000479,0.00000337,-0.0
 0000609,0.00000081\\\@


 EDUCATION IS NOT TRAINING BUT RATHER THE PROCESS THAT EQUIPS YOU TO
 ENTERTAIN YOURSELF, A FRIEND, OR AN IDEA.  -- WALLACE STERLING
 Job cpu time:       1 days  1 hours 22 minutes  3.3 seconds.
 Elapsed time:       0 days  1 hours 16 minutes 19.7 seconds.
 File lengths (MBytes):  RWF=   2281 Int=      0 D2E=      0 Chk=     57 Scr=      1
 Normal termination of Gaussian 16 at Fri Aug  2 02:33:53 2019.
