 Entering Gaussian System, Link 0=/share/apps/gaussian16/g16/g16
 Initial command:
 /share/apps/gaussian16/g16/l1.exe "/home/amen01//scratch/690/Gau-22783.inp" -scrdir="/home/amen01//scratch/690/"
 Entering Link 1 = /share/apps/gaussian16/g16/l1.exe PID=     22784.
  
 Copyright (c) 1988-2017, Gaussian, Inc.  All Rights Reserved.
  
 This is part of the Gaussian(R) 16 program.  It is based on
 the Gaussian(R) 09 system (copyright 2009, Gaussian, Inc.),
 the Gaussian(R) 03 system (copyright 2003, Gaussian, Inc.),
 the Gaussian(R) 98 system (copyright 1998, Gaussian, Inc.),
 the Gaussian(R) 94 system (copyright 1995, Gaussian, Inc.),
 the Gaussian 92(TM) system (copyright 1992, Gaussian, Inc.),
 the Gaussian 90(TM) system (copyright 1990, Gaussian, Inc.),
 the Gaussian 88(TM) system (copyright 1988, Gaussian, Inc.),
 the Gaussian 86(TM) system (copyright 1986, Carnegie Mellon
 University), and the Gaussian 82(TM) system (copyright 1983,
 Carnegie Mellon University). Gaussian is a federally registered
 trademark of Gaussian, Inc.
  
 This software contains proprietary and confidential information,
 including trade secrets, belonging to Gaussian, Inc.
  
 This software is provided under written license and may be
 used, copied, transmitted, or stored only in accord with that
 written license.
  
 The following legend is applicable only to US Government
 contracts under FAR:
  
                    RESTRICTED RIGHTS LEGEND
  
 Use, reproduction and disclosure by the US Government is
 subject to restrictions as set forth in subparagraphs (a)
 and (c) of the Commercial Computer Software - Restricted
 Rights clause in FAR 52.227-19.
  
 Gaussian, Inc.
 340 Quinnipiac St., Bldg. 40, Wallingford CT 06492
  
  
 ---------------------------------------------------------------
 Warning -- This program may not be used in any manner that
 competes with the business of Gaussian, Inc. or will provide
 assistance to any competitor of Gaussian, Inc.  The licensee
 of this program is prohibited from giving any competitor of
 Gaussian, Inc. access to this program.  By using this program,
 the user acknowledges that Gaussian, Inc. is engaged in the
 business of creating and licensing software in the field of
 computational chemistry and represents and warrants to the
 licensee that it is not a competitor of Gaussian, Inc. and that
 it will not use this program in any manner prohibited above.
 ---------------------------------------------------------------
  

 Cite this work as:
 Gaussian 16, Revision B.01,
 M. J. Frisch, G. W. Trucks, H. B. Schlegel, G. E. Scuseria, 
 M. A. Robb, J. R. Cheeseman, G. Scalmani, V. Barone, 
 G. A. Petersson, H. Nakatsuji, X. Li, M. Caricato, A. V. Marenich, 
 J. Bloino, B. G. Janesko, R. Gomperts, B. Mennucci, H. P. Hratchian, 
 J. V. Ortiz, A. F. Izmaylov, J. L. Sonnenberg, D. Williams-Young, 
 F. Ding, F. Lipparini, F. Egidi, J. Goings, B. Peng, A. Petrone, 
 T. Henderson, D. Ranasinghe, V. G. Zakrzewski, J. Gao, N. Rega, 
 G. Zheng, W. Liang, M. Hada, M. Ehara, K. Toyota, R. Fukuda, 
 J. Hasegawa, M. Ishida, T. Nakajima, Y. Honda, O. Kitao, H. Nakai, 
 T. Vreven, K. Throssell, J. A. Montgomery, Jr., J. E. Peralta, 
 F. Ogliaro, M. J. Bearpark, J. J. Heyd, E. N. Brothers, K. N. Kudin, 
 V. N. Staroverov, T. A. Keith, R. Kobayashi, J. Normand, 
 K. Raghavachari, A. P. Rendell, J. C. Burant, S. S. Iyengar, 
 J. Tomasi, M. Cossi, J. M. Millam, M. Klene, C. Adamo, R. Cammi, 
 J. W. Ochterski, R. L. Martin, K. Morokuma, O. Farkas, 
 J. B. Foresman, and D. J. Fox, Gaussian, Inc., Wallingford CT, 2016.
 
 ******************************************
 Gaussian 16:  ES64L-G16RevB.01 20-Dec-2017
                 6-Jul-2019 
 ******************************************
 %nprocshared=20
 Will use up to   20 processors via shared memory.
 %mem=100GB
 %chk=7-memb2-haddTSguess-3a.chk
 ---------------------------------------------------------------------
 # opt=(ts,modredundant,noeigen) freq b3lyp/6-311+g(d,p) int=grid=fine
 ---------------------------------------------------------------------
 1/5=1,11=1,18=120,26=3,38=1/1,3;
 2/9=110,12=2,17=6,18=5,40=1/2;
 3/5=4,6=6,7=111,11=2,25=1,30=1,71=1,74=-5,75=-4/1,2,3;
 4//1;
 5/5=2,38=5/2;
 6/7=2,8=2,9=2,10=2,28=1/1;
 7//1,2,3,16;
 1/5=1,11=1,18=20,26=3/3(2);
 2/9=110/2;
 99//99;
 2/9=110/2;
 3/5=4,6=6,7=111,11=2,25=1,30=1,71=1,74=-5,75=-4/1,2,3;
 4/5=5,16=3,69=1/1;
 5/5=2,38=5/2;
 7//1,2,3,16;
 1/5=1,11=1,18=20,26=3/3(-5);
 2/9=110/2;
 6/7=2,8=2,9=2,10=2,19=2,28=1/1;
 99/9=1/99;
 ----------------------
 7-memb2-haddTSguess-3a
 ----------------------
 Symbolic Z-matrix:
 Charge =  0 Multiplicity = 2
 C                     0.7147   -0.90017   0.13418 
 C                     0.54184   0.53277   0.28052 
 C                     1.83662   1.07238   0.46237 
 C                     2.05048  -1.18236   0.21755 
 C                     2.7682    0.03068   0.41678 
 C                     2.72489  -2.36124  -0.24412 
 C                     4.1808   -2.21201  -0.37551 
 C                     4.82879  -1.0257   -0.16522 
 C                     4.10642   0.20374   0.18395 
 C                     2.21724   2.40349   0.32863 
 C                     3.64234   2.62829   0.24034 
 C                     4.54293   1.57872   0.1592 
 C                    -0.2276   -1.88245  -0.44664 
 C                     0.41158  -3.30492  -0.29915 
 C                     1.91234  -3.40103  -0.56975 
 C                    -0.5404    1.37867   0.04847 
 C                    -0.18261   2.80116  -0.01331 
 C                     1.1384    3.28219   0.11723 
 C                    -1.92726   0.92668  -0.11973 
 C                    -2.87761   1.96762  -0.32154 
 C                    -2.4922    3.34412  -0.43841 
 C                    -1.21337   3.7516   -0.28207 
 C                    -2.42693  -0.46044   0.00658 
 C                    -3.85634  -0.61872   0.10411 
 C                    -4.74629   0.47336  -0.09913 
 C                    -4.27413   1.71516  -0.35141 
 C                    -4.47271  -1.86401   0.37899 
 C                    -3.7283   -3.00476   0.51198 
 C                    -2.35193  -2.92071   0.31211 
 C                    -1.66415  -1.7203    0.08453 
 H                    -0.29512  -1.66076  -1.52843 
 H                     0.26019  -3.63984   0.73932 
 H                     2.29999  -4.34233  -0.94648 
 H                     4.76084  -3.08168  -0.66747 
 H                     5.90447  -0.98423  -0.30467 
 H                     5.5959    1.8044    0.02368 
 H                     4.01595   3.64486   0.17239 
 H                     1.30244   4.348    -0.00652 
 H                    -0.95179   4.80167  -0.3533 
 H                    -3.27791   4.06682  -0.62907 
 H                    -4.94946   2.54537  -0.52512 
 H                    -5.81233   0.28035  -0.05494 
 H                    -5.5531   -1.88967   0.46603 
 H                    -4.19321  -3.96094   0.72239 
 H                    -1.7857   -3.83855   0.35219 
 H                    -1.02484  -1.46439   1.90856 
 H                    -0.11075  -4.0198   -0.93771 
 
 Add virtual bond connecting atoms H46        and C30        Dist= 3.68D+00.
 The following ModRedundant input section has been read:
 

 GradGradGradGradGradGradGradGradGradGradGradGradGradGradGradGradGradGrad
 Berny optimization.
 Initialization pass.
                           ----------------------------
                           !    Initial Parameters    !
                           ! (Angstroms and Degrees)  !
 --------------------------                            --------------------------
 ! Name  Definition              Value          Derivative Info.                !
 --------------------------------------------------------------------------------
 ! R1    R(1,2)                  1.4507         estimate D2E/DX2                !
 ! R2    R(1,4)                  1.3678         estimate D2E/DX2                !
 ! R3    R(1,13)                 1.4799         estimate D2E/DX2                !
 ! R4    R(2,3)                  1.4145         estimate D2E/DX2                !
 ! R5    R(2,16)                 1.3931         estimate D2E/DX2                !
 ! R6    R(3,5)                  1.3982         estimate D2E/DX2                !
 ! R7    R(3,10)                 1.3909         estimate D2E/DX2                !
 ! R8    R(4,5)                  1.4235         estimate D2E/DX2                !
 ! R9    R(4,6)                  1.4345         estimate D2E/DX2                !
 ! R10   R(5,9)                  1.3693         estimate D2E/DX2                !
 ! R11   R(6,7)                  1.4694         estimate D2E/DX2                !
 ! R12   R(6,15)                 1.3592         estimate D2E/DX2                !
 ! R13   R(7,8)                  1.368          estimate D2E/DX2                !
 ! R14   R(7,34)                 1.0854         estimate D2E/DX2                !
 ! R15   R(8,9)                  1.4681         estimate D2E/DX2                !
 ! R16   R(8,35)                 1.0855         estimate D2E/DX2                !
 ! R17   R(9,12)                 1.4428         estimate D2E/DX2                !
 ! R18   R(10,11)                1.4454         estimate D2E/DX2                !
 ! R19   R(10,18)                1.4074         estimate D2E/DX2                !
 ! R20   R(11,12)                1.3854         estimate D2E/DX2                !
 ! R21   R(11,37)                1.0852         estimate D2E/DX2                !
 ! R22   R(12,36)                1.0854         estimate D2E/DX2                !
 ! R23   R(13,14)                1.5664         estimate D2E/DX2                !
 ! R24   R(13,30)                1.5402         estimate D2E/DX2                !
 ! R25   R(13,31)                1.1063         estimate D2E/DX2                !
 ! R26   R(14,15)                1.528          estimate D2E/DX2                !
 ! R27   R(14,32)                1.1016         estimate D2E/DX2                !
 ! R28   R(14,47)                1.0916         estimate D2E/DX2                !
 ! R29   R(15,33)                1.0855         estimate D2E/DX2                !
 ! R30   R(16,17)                1.4681         estimate D2E/DX2                !
 ! R31   R(16,19)                1.4683         estimate D2E/DX2                !
 ! R32   R(17,18)                1.4119         estimate D2E/DX2                !
 ! R33   R(17,22)                1.4276         estimate D2E/DX2                !
 ! R34   R(18,38)                1.0854         estimate D2E/DX2                !
 ! R35   R(19,20)                1.4239         estimate D2E/DX2                !
 ! R36   R(19,23)                1.4798         estimate D2E/DX2                !
 ! R37   R(20,21)                1.4342         estimate D2E/DX2                !
 ! R38   R(20,26)                1.4195         estimate D2E/DX2                !
 ! R39   R(21,22)                1.3513         estimate D2E/DX2                !
 ! R40   R(21,40)                1.0844         estimate D2E/DX2                !
 ! R41   R(22,39)                1.0845         estimate D2E/DX2                !
 ! R42   R(23,24)                1.4414         estimate D2E/DX2                !
 ! R43   R(23,30)                1.4748         estimate D2E/DX2                !
 ! R44   R(24,25)                1.4234         estimate D2E/DX2                !
 ! R45   R(24,27)                1.4164         estimate D2E/DX2                !
 ! R46   R(25,26)                1.3523         estimate D2E/DX2                !
 ! R47   R(25,42)                1.0843         estimate D2E/DX2                !
 ! R48   R(26,41)                1.0842         estimate D2E/DX2                !
 ! R49   R(27,28)                1.3686         estimate D2E/DX2                !
 ! R50   R(27,43)                1.0842         estimate D2E/DX2                !
 ! R51   R(28,29)                1.3933         estimate D2E/DX2                !
 ! R52   R(28,44)                1.0838         estimate D2E/DX2                !
 ! R53   R(29,30)                1.4021         estimate D2E/DX2                !
 ! R54   R(29,45)                1.0792         estimate D2E/DX2                !
 ! R55   R(30,46)                1.9497         estimate D2E/DX2                !
 ! A1    A(2,1,4)              108.3001         estimate D2E/DX2                !
 ! A2    A(2,1,13)             128.2665         estimate D2E/DX2                !
 ! A3    A(4,1,13)             120.5843         estimate D2E/DX2                !
 ! A4    A(1,2,3)              106.3028         estimate D2E/DX2                !
 ! A5    A(1,2,16)             132.4961         estimate D2E/DX2                !
 ! A6    A(3,2,16)             120.06           estimate D2E/DX2                !
 ! A7    A(2,3,5)              108.7515         estimate D2E/DX2                !
 ! A8    A(2,3,10)             127.1014         estimate D2E/DX2                !
 ! A9    A(5,3,10)             121.8391         estimate D2E/DX2                !
 ! A10   A(1,4,5)              108.9731         estimate D2E/DX2                !
 ! A11   A(1,4,6)              127.5218         estimate D2E/DX2                !
 ! A12   A(5,4,6)              120.5521         estimate D2E/DX2                !
 ! A13   A(3,5,4)              107.6688         estimate D2E/DX2                !
 ! A14   A(3,5,9)              124.2296         estimate D2E/DX2                !
 ! A15   A(4,5,9)              125.2164         estimate D2E/DX2                !
 ! A16   A(4,6,7)              114.2763         estimate D2E/DX2                !
 ! A17   A(4,6,15)             115.1345         estimate D2E/DX2                !
 ! A18   A(7,6,15)             130.4344         estimate D2E/DX2                !
 ! A19   A(6,7,8)              122.9318         estimate D2E/DX2                !
 ! A20   A(6,7,34)             118.1764         estimate D2E/DX2                !
 ! A21   A(8,7,34)             118.885          estimate D2E/DX2                !
 ! A22   A(7,8,9)              121.9855         estimate D2E/DX2                !
 ! A23   A(7,8,35)             118.8671         estimate D2E/DX2                !
 ! A24   A(9,8,35)             119.0897         estimate D2E/DX2                !
 ! A25   A(5,9,8)              114.5497         estimate D2E/DX2                !
 ! A26   A(5,9,12)             114.7736         estimate D2E/DX2                !
 ! A27   A(8,9,12)             130.175          estimate D2E/DX2                !
 ! A28   A(3,10,11)            115.1198         estimate D2E/DX2                !
 ! A29   A(3,10,18)            113.7153         estimate D2E/DX2                !
 ! A30   A(11,10,18)           130.5045         estimate D2E/DX2                !
 ! A31   A(10,11,12)           121.7817         estimate D2E/DX2                !
 ! A32   A(10,11,37)           119.272          estimate D2E/DX2                !
 ! A33   A(12,11,37)           118.8317         estimate D2E/DX2                !
 ! A34   A(9,12,11)            121.622          estimate D2E/DX2                !
 ! A35   A(9,12,36)            119.5906         estimate D2E/DX2                !
 ! A36   A(11,12,36)           118.7147         estimate D2E/DX2                !
 ! A37   A(1,13,14)            107.8165         estimate D2E/DX2                !
 ! A38   A(1,13,30)            112.8708         estimate D2E/DX2                !
 ! A39   A(1,13,31)            106.8353         estimate D2E/DX2                !
 ! A40   A(14,13,30)           116.342          estimate D2E/DX2                !
 ! A41   A(14,13,31)           107.3941         estimate D2E/DX2                !
 ! A42   A(30,13,31)           105.0225         estimate D2E/DX2                !
 ! A43   A(13,14,15)           116.1821         estimate D2E/DX2                !
 ! A44   A(13,14,32)           107.9854         estimate D2E/DX2                !
 ! A45   A(13,14,47)           110.1436         estimate D2E/DX2                !
 ! A46   A(15,14,32)           106.4277         estimate D2E/DX2                !
 ! A47   A(15,14,47)           108.9758         estimate D2E/DX2                !
 ! A48   A(32,14,47)           106.6527         estimate D2E/DX2                !
 ! A49   A(6,15,14)            119.7756         estimate D2E/DX2                !
 ! A50   A(6,15,33)            122.212          estimate D2E/DX2                !
 ! A51   A(14,15,33)           117.8253         estimate D2E/DX2                !
 ! A52   A(2,16,17)            113.9559         estimate D2E/DX2                !
 ! A53   A(2,16,19)            124.4677         estimate D2E/DX2                !
 ! A54   A(17,16,19)           121.5762         estimate D2E/DX2                !
 ! A55   A(16,17,18)           123.658          estimate D2E/DX2                !
 ! A56   A(16,17,22)           118.4923         estimate D2E/DX2                !
 ! A57   A(18,17,22)           117.783          estimate D2E/DX2                !
 ! A58   A(10,18,17)           121.224          estimate D2E/DX2                !
 ! A59   A(10,18,38)           120.9535         estimate D2E/DX2                !
 ! A60   A(17,18,38)           117.7352         estimate D2E/DX2                !
 ! A61   A(16,19,20)           114.9357         estimate D2E/DX2                !
 ! A62   A(16,19,23)           126.7059         estimate D2E/DX2                !
 ! A63   A(20,19,23)           118.1651         estimate D2E/DX2                !
 ! A64   A(19,20,21)           122.265          estimate D2E/DX2                !
 ! A65   A(19,20,26)           121.9784         estimate D2E/DX2                !
 ! A66   A(21,20,26)           115.6815         estimate D2E/DX2                !
 ! A67   A(20,21,22)           122.2974         estimate D2E/DX2                !
 ! A68   A(20,21,40)           117.3382         estimate D2E/DX2                !
 ! A69   A(22,21,40)           120.3369         estimate D2E/DX2                !
 ! A70   A(17,22,21)           120.2878         estimate D2E/DX2                !
 ! A71   A(17,22,39)           118.8713         estimate D2E/DX2                !
 ! A72   A(21,22,39)           120.8403         estimate D2E/DX2                !
 ! A73   A(19,23,24)           116.3305         estimate D2E/DX2                !
 ! A74   A(19,23,30)           129.0959         estimate D2E/DX2                !
 ! A75   A(24,23,30)           114.551          estimate D2E/DX2                !
 ! A76   A(23,24,25)           121.7438         estimate D2E/DX2                !
 ! A77   A(23,24,27)           122.7654         estimate D2E/DX2                !
 ! A78   A(25,24,27)           115.4788         estimate D2E/DX2                !
 ! A79   A(24,25,26)           120.8567         estimate D2E/DX2                !
 ! A80   A(24,25,42)           118.1863         estimate D2E/DX2                !
 ! A81   A(26,25,42)           120.9548         estimate D2E/DX2                !
 ! A82   A(20,26,25)           120.1933         estimate D2E/DX2                !
 ! A83   A(20,26,41)           118.6843         estimate D2E/DX2                !
 ! A84   A(25,26,41)           121.0366         estimate D2E/DX2                !
 ! A85   A(24,27,28)           120.9954         estimate D2E/DX2                !
 ! A86   A(24,27,43)           118.0366         estimate D2E/DX2                !
 ! A87   A(28,27,43)           120.9616         estimate D2E/DX2                !
 ! A88   A(27,28,29)           118.233          estimate D2E/DX2                !
 ! A89   A(27,28,44)           121.3918         estimate D2E/DX2                !
 ! A90   A(29,28,44)           120.3177         estimate D2E/DX2                !
 ! A91   A(28,29,30)           124.0216         estimate D2E/DX2                !
 ! A92   A(28,29,45)           117.4938         estimate D2E/DX2                !
 ! A93   A(30,29,45)           118.477          estimate D2E/DX2                !
 ! A94   A(13,30,23)           123.6494         estimate D2E/DX2                !
 ! A95   A(13,30,29)           115.0487         estimate D2E/DX2                !
 ! A96   A(13,30,46)            91.7552         estimate D2E/DX2                !
 ! A97   A(23,30,29)           119.0933         estimate D2E/DX2                !
 ! A98   A(23,30,46)            96.1371         estimate D2E/DX2                !
 ! A99   A(29,30,46)            96.9712         estimate D2E/DX2                !
 ! D1    D(4,1,2,3)             -0.3987         estimate D2E/DX2                !
 ! D2    D(4,1,2,16)           166.9662         estimate D2E/DX2                !
 ! D3    D(13,1,2,3)          -161.036          estimate D2E/DX2                !
 ! D4    D(13,1,2,16)            6.3289         estimate D2E/DX2                !
 ! D5    D(2,1,4,5)              0.037          estimate D2E/DX2                !
 ! D6    D(2,1,4,6)           -160.3108         estimate D2E/DX2                !
 ! D7    D(13,1,4,5)           162.4366         estimate D2E/DX2                !
 ! D8    D(13,1,4,6)             2.0888         estimate D2E/DX2                !
 ! D9    D(2,1,13,14)         -177.1941         estimate D2E/DX2                !
 ! D10   D(2,1,13,30)          -47.2968         estimate D2E/DX2                !
 ! D11   D(2,1,13,31)           67.6356         estimate D2E/DX2                !
 ! D12   D(4,1,13,14)           24.2533         estimate D2E/DX2                !
 ! D13   D(4,1,13,30)          154.1506         estimate D2E/DX2                !
 ! D14   D(4,1,13,31)          -90.917          estimate D2E/DX2                !
 ! D15   D(1,2,3,5)              0.6131         estimate D2E/DX2                !
 ! D16   D(1,2,3,10)           163.4109         estimate D2E/DX2                !
 ! D17   D(16,2,3,5)          -168.6474         estimate D2E/DX2                !
 ! D18   D(16,2,3,10)           -5.8496         estimate D2E/DX2                !
 ! D19   D(1,2,16,17)         -164.5558         estimate D2E/DX2                !
 ! D20   D(1,2,16,19)           15.6398         estimate D2E/DX2                !
 ! D21   D(3,2,16,17)            1.4059         estimate D2E/DX2                !
 ! D22   D(3,2,16,19)         -178.3985         estimate D2E/DX2                !
 ! D23   D(2,3,5,4)             -0.5987         estimate D2E/DX2                !
 ! D24   D(2,3,5,9)            160.9742         estimate D2E/DX2                !
 ! D25   D(10,3,5,4)          -164.4784         estimate D2E/DX2                !
 ! D26   D(10,3,5,9)            -2.9055         estimate D2E/DX2                !
 ! D27   D(2,3,10,11)         -165.1195         estimate D2E/DX2                !
 ! D28   D(2,3,10,18)            6.562          estimate D2E/DX2                !
 ! D29   D(5,3,10,11)           -4.3669         estimate D2E/DX2                !
 ! D30   D(5,3,10,18)          167.3145         estimate D2E/DX2                !
 ! D31   D(1,4,5,3)              0.3457         estimate D2E/DX2                !
 ! D32   D(1,4,5,9)           -160.9978         estimate D2E/DX2                !
 ! D33   D(6,4,5,3)            162.3024         estimate D2E/DX2                !
 ! D34   D(6,4,5,9)              0.9589         estimate D2E/DX2                !
 ! D35   D(1,4,6,7)            162.8379         estimate D2E/DX2                !
 ! D36   D(1,4,6,15)           -13.1182         estimate D2E/DX2                !
 ! D37   D(5,4,6,7)              4.511          estimate D2E/DX2                !
 ! D38   D(5,4,6,15)          -171.4451         estimate D2E/DX2                !
 ! D39   D(3,5,9,8)           -164.812          estimate D2E/DX2                !
 ! D40   D(3,5,9,12)             7.9036         estimate D2E/DX2                !
 ! D41   D(4,5,9,8)             -6.4448         estimate D2E/DX2                !
 ! D42   D(4,5,9,12)           166.2707         estimate D2E/DX2                !
 ! D43   D(4,6,7,8)             -4.2933         estimate D2E/DX2                !
 ! D44   D(4,6,7,34)           176.6695         estimate D2E/DX2                !
 ! D45   D(15,6,7,8)           170.8951         estimate D2E/DX2                !
 ! D46   D(15,6,7,34)           -8.1421         estimate D2E/DX2                !
 ! D47   D(4,6,15,14)           -6.0683         estimate D2E/DX2                !
 ! D48   D(4,6,15,33)          179.0122         estimate D2E/DX2                !
 ! D49   D(7,6,15,14)          178.7766         estimate D2E/DX2                !
 ! D50   D(7,6,15,33)            3.8571         estimate D2E/DX2                !
 ! D51   D(6,7,8,9)             -1.2825         estimate D2E/DX2                !
 ! D52   D(6,7,8,35)          -178.4933         estimate D2E/DX2                !
 ! D53   D(34,7,8,9)           177.7482         estimate D2E/DX2                !
 ! D54   D(34,7,8,35)            0.5374         estimate D2E/DX2                !
 ! D55   D(7,8,9,5)              6.552          estimate D2E/DX2                !
 ! D56   D(7,8,9,12)          -164.782          estimate D2E/DX2                !
 ! D57   D(35,8,9,5)          -176.2432         estimate D2E/DX2                !
 ! D58   D(35,8,9,12)           12.4228         estimate D2E/DX2                !
 ! D59   D(5,9,12,11)           -5.7821         estimate D2E/DX2                !
 ! D60   D(5,9,12,36)          177.3603         estimate D2E/DX2                !
 ! D61   D(8,9,12,11)          165.5362         estimate D2E/DX2                !
 ! D62   D(8,9,12,36)          -11.3214         estimate D2E/DX2                !
 ! D63   D(3,10,11,12)           6.239          estimate D2E/DX2                !
 ! D64   D(3,10,11,37)        -177.699          estimate D2E/DX2                !
 ! D65   D(18,10,11,12)       -163.7284         estimate D2E/DX2                !
 ! D66   D(18,10,11,37)         12.3336         estimate D2E/DX2                !
 ! D67   D(3,10,18,17)          -3.252          estimate D2E/DX2                !
 ! D68   D(3,10,18,38)        -179.7787         estimate D2E/DX2                !
 ! D69   D(11,10,18,17)        166.8276         estimate D2E/DX2                !
 ! D70   D(11,10,18,38)         -9.6991         estimate D2E/DX2                !
 ! D71   D(10,11,12,9)          -1.1854         estimate D2E/DX2                !
 ! D72   D(10,11,12,36)        175.6989         estimate D2E/DX2                !
 ! D73   D(37,11,12,9)        -177.2642         estimate D2E/DX2                !
 ! D74   D(37,11,12,36)         -0.3799         estimate D2E/DX2                !
 ! D75   D(1,13,14,15)         -40.5554         estimate D2E/DX2                !
 ! D76   D(1,13,14,32)          78.8474         estimate D2E/DX2                !
 ! D77   D(1,13,14,47)        -165.0485         estimate D2E/DX2                !
 ! D78   D(30,13,14,15)       -168.4831         estimate D2E/DX2                !
 ! D79   D(30,13,14,32)        -49.0802         estimate D2E/DX2                !
 ! D80   D(30,13,14,47)         67.0239         estimate D2E/DX2                !
 ! D81   D(31,13,14,15)         74.2456         estimate D2E/DX2                !
 ! D82   D(31,13,14,32)       -166.3516         estimate D2E/DX2                !
 ! D83   D(31,13,14,47)        -50.2475         estimate D2E/DX2                !
 ! D84   D(1,13,30,23)          55.6939         estimate D2E/DX2                !
 ! D85   D(1,13,30,29)        -141.4            estimate D2E/DX2                !
 ! D86   D(1,13,30,46)         -42.8684         estimate D2E/DX2                !
 ! D87   D(14,13,30,23)       -178.8968         estimate D2E/DX2                !
 ! D88   D(14,13,30,29)        -15.9907         estimate D2E/DX2                !
 ! D89   D(14,13,30,46)         82.5409         estimate D2E/DX2                !
 ! D90   D(31,13,30,23)        -60.3245         estimate D2E/DX2                !
 ! D91   D(31,13,30,29)        102.5817         estimate D2E/DX2                !
 ! D92   D(31,13,30,46)       -158.8867         estimate D2E/DX2                !
 ! D93   D(13,14,15,6)          33.7938         estimate D2E/DX2                !
 ! D94   D(13,14,15,33)       -151.0663         estimate D2E/DX2                !
 ! D95   D(32,14,15,6)         -86.4506         estimate D2E/DX2                !
 ! D96   D(32,14,15,33)         88.6894         estimate D2E/DX2                !
 ! D97   D(47,14,15,6)         158.884          estimate D2E/DX2                !
 ! D98   D(47,14,15,33)        -25.976          estimate D2E/DX2                !
 ! D99   D(2,16,17,18)           1.4202         estimate D2E/DX2                !
 ! D100  D(2,16,17,22)         178.381          estimate D2E/DX2                !
 ! D101  D(19,16,17,18)       -178.7691         estimate D2E/DX2                !
 ! D102  D(19,16,17,22)         -1.8082         estimate D2E/DX2                !
 ! D103  D(2,16,19,20)         178.8174         estimate D2E/DX2                !
 ! D104  D(2,16,19,23)           3.9999         estimate D2E/DX2                !
 ! D105  D(17,16,19,20)         -0.9728         estimate D2E/DX2                !
 ! D106  D(17,16,19,23)       -175.7904         estimate D2E/DX2                !
 ! D107  D(16,17,18,10)         -0.4333         estimate D2E/DX2                !
 ! D108  D(16,17,18,38)        176.2014         estimate D2E/DX2                !
 ! D109  D(22,17,18,10)       -177.4143         estimate D2E/DX2                !
 ! D110  D(22,17,18,38)         -0.7795         estimate D2E/DX2                !
 ! D111  D(16,17,22,21)          1.7673         estimate D2E/DX2                !
 ! D112  D(16,17,22,39)       -178.5111         estimate D2E/DX2                !
 ! D113  D(18,17,22,21)        178.9081         estimate D2E/DX2                !
 ! D114  D(18,17,22,39)         -1.3703         estimate D2E/DX2                !
 ! D115  D(16,19,20,21)          3.8988         estimate D2E/DX2                !
 ! D116  D(16,19,20,26)       -172.8118         estimate D2E/DX2                !
 ! D117  D(23,19,20,21)        179.187          estimate D2E/DX2                !
 ! D118  D(23,19,20,26)          2.4765         estimate D2E/DX2                !
 ! D119  D(16,19,23,24)        166.1246         estimate D2E/DX2                !
 ! D120  D(16,19,23,30)        -12.0352         estimate D2E/DX2                !
 ! D121  D(20,19,23,24)         -8.5444         estimate D2E/DX2                !
 ! D122  D(20,19,23,30)        173.2958         estimate D2E/DX2                !
 ! D123  D(19,20,21,22)         -4.202          estimate D2E/DX2                !
 ! D124  D(19,20,21,40)        177.7008         estimate D2E/DX2                !
 ! D125  D(26,20,21,22)        172.702          estimate D2E/DX2                !
 ! D126  D(26,20,21,40)         -5.3951         estimate D2E/DX2                !
 ! D127  D(19,20,26,25)          4.3298         estimate D2E/DX2                !
 ! D128  D(19,20,26,41)       -179.0031         estimate D2E/DX2                !
 ! D129  D(21,20,26,25)       -172.584          estimate D2E/DX2                !
 ! D130  D(21,20,26,41)          4.0831         estimate D2E/DX2                !
 ! D131  D(20,21,22,17)          1.1163         estimate D2E/DX2                !
 ! D132  D(20,21,22,39)       -178.5998         estimate D2E/DX2                !
 ! D133  D(40,21,22,17)        179.1577         estimate D2E/DX2                !
 ! D134  D(40,21,22,39)         -0.5584         estimate D2E/DX2                !
 ! D135  D(19,23,24,25)          8.5885         estimate D2E/DX2                !
 ! D136  D(19,23,24,27)       -172.7318         estimate D2E/DX2                !
 ! D137  D(30,23,24,25)       -172.9816         estimate D2E/DX2                !
 ! D138  D(30,23,24,27)          5.6981         estimate D2E/DX2                !
 ! D139  D(19,23,30,13)        -22.901          estimate D2E/DX2                !
 ! D140  D(19,23,30,29)        174.8416         estimate D2E/DX2                !
 ! D141  D(19,23,30,46)         73.3323         estimate D2E/DX2                !
 ! D142  D(24,23,30,13)        158.9122         estimate D2E/DX2                !
 ! D143  D(24,23,30,29)         -3.3451         estimate D2E/DX2                !
 ! D144  D(24,23,30,46)       -104.8544         estimate D2E/DX2                !
 ! D145  D(23,24,25,26)         -2.1022         estimate D2E/DX2                !
 ! D146  D(23,24,25,42)        177.3577         estimate D2E/DX2                !
 ! D147  D(27,24,25,26)        179.1276         estimate D2E/DX2                !
 ! D148  D(27,24,25,42)         -1.4125         estimate D2E/DX2                !
 ! D149  D(23,24,27,28)         -2.7848         estimate D2E/DX2                !
 ! D150  D(23,24,27,43)        178.1275         estimate D2E/DX2                !
 ! D151  D(25,24,27,28)        175.9715         estimate D2E/DX2                !
 ! D152  D(25,24,27,43)         -3.1162         estimate D2E/DX2                !
 ! D153  D(24,25,26,20)         -4.5729         estimate D2E/DX2                !
 ! D154  D(24,25,26,41)        178.8396         estimate D2E/DX2                !
 ! D155  D(42,25,26,20)        175.9823         estimate D2E/DX2                !
 ! D156  D(42,25,26,41)         -0.6052         estimate D2E/DX2                !
 ! D157  D(24,27,28,29)         -2.7559         estimate D2E/DX2                !
 ! D158  D(24,27,28,44)        179.9935         estimate D2E/DX2                !
 ! D159  D(43,27,28,29)        176.305          estimate D2E/DX2                !
 ! D160  D(43,27,28,44)         -0.9456         estimate D2E/DX2                !
 ! D161  D(27,28,29,30)          5.1686         estimate D2E/DX2                !
 ! D162  D(27,28,29,45)       -175.8516         estimate D2E/DX2                !
 ! D163  D(44,28,29,30)       -177.5501         estimate D2E/DX2                !
 ! D164  D(44,28,29,45)          1.4296         estimate D2E/DX2                !
 ! D165  D(28,29,30,13)       -165.6955         estimate D2E/DX2                !
 ! D166  D(28,29,30,23)         -1.9567         estimate D2E/DX2                !
 ! D167  D(28,29,30,46)         99.0716         estimate D2E/DX2                !
 ! D168  D(45,29,30,13)         15.3341         estimate D2E/DX2                !
 ! D169  D(45,29,30,23)        179.0729         estimate D2E/DX2                !
 ! D170  D(45,29,30,46)        -79.8988         estimate D2E/DX2                !
 --------------------------------------------------------------------------------
 Trust Radius=3.00D-01 FncErr=1.00D-07 GrdErr=1.00D-06 EigMax=2.50D+02 EigMin=1.00D-04
 Number of steps in this run=    282 maximum allowed number of steps=    282.
 Search for a saddle point of order  1.
 GradGradGradGradGradGradGradGradGradGradGradGradGradGradGradGradGradGrad

                          Input orientation:                          
 ---------------------------------------------------------------------
 Center     Atomic      Atomic             Coordinates (Angstroms)
 Number     Number       Type             X           Y           Z
 ---------------------------------------------------------------------
      1          6           0        0.714702   -0.900172    0.134184
      2          6           0        0.541838    0.532770    0.280520
      3          6           0        1.836620    1.072384    0.462368
      4          6           0        2.050476   -1.182356    0.217554
      5          6           0        2.768196    0.030676    0.416778
      6          6           0        2.724885   -2.361237   -0.244118
      7          6           0        4.180800   -2.212010   -0.375508
      8          6           0        4.828792   -1.025698   -0.165221
      9          6           0        4.106420    0.203738    0.183954
     10          6           0        2.217235    2.403489    0.328628
     11          6           0        3.642344    2.628288    0.240335
     12          6           0        4.542932    1.578719    0.159203
     13          6           0       -0.227598   -1.882453   -0.446641
     14          6           0        0.411580   -3.304915   -0.299151
     15          6           0        1.912343   -3.401034   -0.569751
     16          6           0       -0.540402    1.378665    0.048468
     17          6           0       -0.182612    2.801158   -0.013314
     18          6           0        1.138404    3.282185    0.117231
     19          6           0       -1.927262    0.926678   -0.119730
     20          6           0       -2.877609    1.967620   -0.321540
     21          6           0       -2.492199    3.344122   -0.438413
     22          6           0       -1.213366    3.751597   -0.282072
     23          6           0       -2.426930   -0.460442    0.006579
     24          6           0       -3.856335   -0.618715    0.104112
     25          6           0       -4.746293    0.473360   -0.099129
     26          6           0       -4.274130    1.715155   -0.351412
     27          6           0       -4.472713   -1.864006    0.378991
     28          6           0       -3.728303   -3.004765    0.511981
     29          6           0       -2.351931   -2.920708    0.312110
     30          6           0       -1.664147   -1.720303    0.084526
     31          1           0       -0.295124   -1.660759   -1.528426
     32          1           0        0.260185   -3.639839    0.739315
     33          1           0        2.299993   -4.342333   -0.946482
     34          1           0        4.760844   -3.081680   -0.667472
     35          1           0        5.904465   -0.984233   -0.304668
     36          1           0        5.595896    1.804396    0.023675
     37          1           0        4.015950    3.644859    0.172386
     38          1           0        1.302444    4.347998   -0.006519
     39          1           0       -0.951792    4.801666   -0.353298
     40          1           0       -3.277908    4.066819   -0.629065
     41          1           0       -4.949455    2.545374   -0.525117
     42          1           0       -5.812326    0.280351   -0.054937
     43          1           0       -5.553101   -1.889674    0.466032
     44          1           0       -4.193212   -3.960942    0.722390
     45          1           0       -1.785699   -3.838552    0.352194
     46          1           0       -1.024844   -1.464390    1.908559
     47          1           0       -0.110745   -4.019803   -0.937706
 ---------------------------------------------------------------------
                    Distance matrix (angstroms):
                    1          2          3          4          5
     1  C    0.000000
     2  C    1.450730   0.000000
     3  C    2.292898   1.414465   0.000000
     4  C    1.367798   2.285084   2.278052   0.000000
     5  C    2.272262   2.286336   1.398237   1.423467   0.000000
     6  C    2.513694   3.662815   3.616337   1.434479   2.481916
     7  C    3.740928   4.605023   4.121221   2.439301   2.766371
     8  C    4.126880   4.583174   3.707952   2.808932   2.387615
     9  C    3.567190   3.581038   2.446232   2.479776   1.369307
    10  C    3.634500   2.511744   1.390897   3.591438   2.437534
    11  C    4.586108   3.742452   2.393904   4.129839   2.746426
    12  C    4.560797   4.137328   2.769911   3.720118   2.369065
    13  C    1.479920   2.637062   3.717305   2.474048   3.657914
    14  C    2.462205   3.883402   4.665983   2.730974   4.146367
    15  C    2.860800   4.251595   4.591565   2.358275   3.671833
    16  C    2.603024   1.393065   2.432150   3.646926   3.591594
    17  C    3.811400   2.399323   2.700413   4.572567   4.070358
    18  C    4.203798   2.818127   2.343042   4.557858   3.649419
    19  C    3.222084   2.532157   3.811414   4.514885   4.810196
    20  C    4.619157   3.756846   4.862090   5.873584   6.014315
    21  C    5.350338   4.198326   4.971003   6.446332   6.275510
    22  C    5.052689   3.709191   4.127322   5.936850   5.494222
    23  C    3.174822   3.142467   4.553587   4.540136   5.234386
    24  C    4.579793   4.549831   5.949613   5.934726   6.663624
    25  C    5.635911   5.302074   6.633917   7.002696   7.545176
    26  C    5.653688   4.999092   6.198117   6.979967   7.281617
    27  C    5.281873   5.558773   6.959671   6.560694   7.484785
    28  C    4.930754   5.549940   6.898839   6.066477   7.171295
    29  C    3.676746   4.505708   5.788896   4.734131   5.910780
    30  C    2.516745   3.159291   4.494133   3.755730   4.777236
    31  H    2.088663   2.963842   3.997207   2.962964   4.003586
    32  H    2.842278   4.207195   4.976635   3.084899   4.457222
    33  H    3.940743   5.325718   5.614155   3.376787   4.604443
    34  H    4.666143   5.635863   5.204217   3.425901   3.851364
    35  H    5.208963   5.603705   4.622270   3.894252   3.374420
    36  H    5.581483   5.217902   3.854925   4.639858   3.361027
    37  H    5.617562   4.665431   3.383962   5.212210   3.831310
    38  H    5.282852   3.900882   3.351842   5.585210   4.578960
    39  H    5.960352   4.566851   4.727377   6.719226   6.098662
    40  H    6.418293   5.282737   6.026298   7.527435   7.344359
    41  H    6.662518   5.903721   7.013960   7.965335   8.171475
    42  H    6.635623   6.368018   7.707224   8.002338   8.597105
    43  H    6.354100   6.561321   7.961267   7.640447   8.540150
    44  H    5.813942   6.542889   7.858808   6.852667   8.030418
    45  H    3.864403   4.952880   6.103329   4.667949   5.976040
    46  H    2.548091   3.015568   4.088357   3.520885   4.341404
    47  H    3.400354   4.757716   5.628748   3.749214   5.150661
                    6          7          8          9         10
     6  C    0.000000
     7  C    1.469429   0.000000
     8  C    2.493254   1.368010   0.000000
     9  C    2.944653   2.480800   1.468079   0.000000
    10  C    4.825802   5.065000   4.338599   2.903249   0.000000
    11  C    5.096252   4.908939   3.863127   2.469208   1.445429
    12  C    4.357891   3.845345   2.640067   1.442819   2.473422
    13  C    2.997900   4.421271   5.136176   4.851140   4.994752
    14  C    2.498987   3.925212   4.972377   5.118191   6.019998
    15  C    1.359205   2.568542   3.783060   4.286773   5.881542
    16  C    4.973386   5.946634   5.886839   4.794973   2.955218
    17  C    5.929345   6.656005   6.307303   5.018097   2.456487
    18  C    5.873305   6.299615   5.679489   4.276729   1.407363
    19  C    5.698099   6.872060   7.032646   6.084421   4.422539
    20  C    7.080462   8.203253   8.268797   7.221043   5.154623
    21  C    7.733488   8.683517   8.530350   7.334243   4.863323
    22  C    7.271726   8.041789   7.703498   6.411287   3.736224
    23  C    5.497005   6.846611   7.279734   6.569418   5.465719
    24  C    6.816898   8.207567   8.698828   8.005515   6.787664
    25  C    7.992150   9.326338   9.691945   8.861341   7.238722
    26  C    8.100290   9.322502   9.508424   8.532562   6.563084
    27  C    7.241610   8.693311   9.355048   8.826955   7.935329
    28  C    6.529123   7.998125   8.809040   8.472602   8.039419
    29  C    5.137748   6.606939   7.441888   7.175576   7.016026
    30  C    4.447742   5.883605   6.534761   6.083688   5.668366
    31  H    3.355677   4.654782   5.340051   5.077616   5.126276
    32  H    2.945626   4.318883   5.340795   5.465806   6.365573
    33  H    2.144432   2.898572   4.243261   5.020740   6.865775
    34  H    2.200772   1.085366   2.117530   3.456468   6.127744
    35  H    3.465478   2.117422   1.085466   2.209749   5.047117
    36  H    5.066253   4.277074   2.938292   2.192335   3.444889
    37  H    6.157395   5.884750   4.752767   3.442329   2.191070
    38  H    6.862480   7.173200   6.429380   5.007340   2.174921
    39  H    8.052146   8.691124   8.210280   6.856755   4.032246
    40  H    8.803500   9.752964   9.584752   8.373332   5.820691
    41  H    9.113138  10.296438  10.416151   9.380560   7.218757
    42  H    8.938554  10.304232  10.721535   9.921918   8.314366
    43  H    8.321763   9.775527  10.436888   9.887785   8.878527
    44  H    7.166119   8.624861   9.528907   9.301525   9.041839
    45  H    4.783661   6.226901   7.206341   7.147411   7.415330
    46  H    4.415747   5.733640   6.225598   5.664520   5.288454
    47  H    3.357485   4.690580   5.827557   6.072965   6.948509
                   11         12         13         14         15
    11  C    0.000000
    12  C    1.385365   0.000000
    13  C    5.982907   5.924923   0.000000
    14  C    6.777299   6.413115   1.566429   0.000000
    15  C    6.324703   5.678848   2.626898   1.527990   0.000000
    16  C    4.369638   5.088474   3.313287   4.791976   5.407742
    17  C    3.837253   4.884146   4.703829   6.141571   6.570057
    18  C    2.590840   3.807147   5.371908   6.640146   6.762865
    19  C    5.834864   6.508945   3.299537   4.838259   5.802946
    20  C    6.577383   7.446260   4.675604   6.214410   7.199145
    21  C    6.213351   7.277834   5.696101   7.256791   8.056945
    22  C    5.011253   6.168556   5.722005   7.241209   7.811078
    23  C    6.814028   7.263639   2.657929   4.030091   5.273379
    24  C    8.172623   8.682133   3.881764   5.058991   6.439956
    25  C    8.667651   9.358325   5.107761   6.396798   7.718151
    26  C    7.990903   8.832889   5.415374   6.867293   8.030910
    27  C    9.276534   9.653109   4.324698   5.137355   6.635624
    28  C    9.280707   9.462880   3.799141   4.229262   5.757088
    29  C    8.168711   8.234522   2.483237   2.856265   4.380916
    30  C    6.862461   7.029719   1.540164   2.639478   4.005523
    31  H    6.085071   6.062103   1.106330   2.171128   2.969937
    32  H    7.139846   6.775825   2.175507   1.101593   2.121393
    33  H    7.197222   6.427455   3.562242   2.249750   1.085469
    34  H    5.888879   4.738164   5.135316   4.370537   2.868012
    35  H    4.297037   2.938992   6.199125   5.963001   4.674209
    36  H    2.131221   1.085371   6.908483   7.286042   6.404469
    37  H    1.085180   2.132327   6.995861   7.843034   7.390571
    38  H    2.914356   4.265810   6.430650   7.710146   7.793376
    39  H    5.116841   6.390777   6.723884   8.220606   8.691053
    40  H    7.121455   8.244850   6.688162   8.250068   9.094562
    41  H    8.626228   9.565988   6.473619   7.938365   9.079980
    42  H    9.746321  10.438534   6.001695   7.186848   8.572522
    43  H   10.247884  10.679596   5.403148   6.177850   7.686996
    44  H   10.249208  10.359789   4.627401   4.762145   6.265854
    45  H    8.443707   8.332805   2.625288   2.353095   3.836264
    46  H    6.427723   6.581861   2.521378   3.213227   4.303450
    47  H    7.724673   7.362294   2.196148   1.091623   2.147359
                   16         17         18         19         20
    16  C    0.000000
    17  C    1.468100   0.000000
    18  C    2.538997   1.411918   0.000000
    19  C    1.468320   2.562968   3.873354   0.000000
    20  C    2.438506   2.837745   4.248407   1.423884   0.000000
    21  C    2.812399   2.410334   3.673398   2.502948   1.434210
    22  C    2.488563   1.427592   2.431175   2.918248   2.440048
    23  C    2.634968   3.959216   5.170213   1.479772   2.491236
    24  C    3.871438   5.020514   6.337556   2.481868   2.797894
    25  C    4.304751   5.123787   6.524260   2.855321   2.402969
    26  C    3.770127   4.246673   5.654267   2.486596   1.419472
    27  C    5.107566   6.350010   7.618165   3.809982   4.209092
    28  C    5.439854   6.823240   7.960302   4.370246   5.113027
    29  C    4.672874   6.127936   7.120133   3.894767   4.957177
    30  C    3.296620   4.759005   5.734130   2.667857   3.903608
    31  H    3.432908   4.713483   5.403322   3.367956   4.614210
    32  H    5.128703   6.499920   7.005189   5.135753   6.512662
    33  H    6.464332   7.619947   7.785502   6.805562   8.186185
    34  H    6.964945   7.711904   7.364551   7.816503   9.163027
    35  H    6.873449   7.174021   6.410590   8.063605   9.264909
    36  H    6.151099   5.863963   4.697004   7.575544   8.482105
    37  H    5.090318   4.286518   2.900835   6.541835   7.111839
    38  H    3.495146   2.144330   1.085440   4.706299   4.820610
    39  H    3.470964   2.170083   2.626621   4.002703   3.426601
    40  H    3.896044   3.400280   4.547133   3.456031   2.159039
    41  H    4.596733   4.801058   6.165836   3.452270   2.160507
    42  H    5.386109   6.168458   7.573196   3.938992   3.395662
    43  H    5.998629   7.146736   8.464398   4.628354   4.759963
    44  H    6.504506   7.896339   9.014169   5.452754   6.161854
    45  H    5.372371   6.840266   7.701330   4.790633   5.946244
    46  H    3.431849   4.753720   5.515294   3.262747   4.492747
    47  H    5.504598   6.883689   7.482800   5.332588   6.624533
                   21         22         23         24         25
    21  C    0.000000
    22  C    1.351256   0.000000
    23  C    3.831055   4.392873   0.000000
    24  C    4.226024   5.121919   1.441444   0.000000
    25  C    3.665696   4.823057   2.502520   1.423362   0.000000
    26  C    2.415860   3.676980   2.876374   2.414333   1.352272
    27  C    5.631623   6.526511   2.508767   1.416414   2.401401
    28  C    6.537551   7.252852   2.902169   2.424043   3.675202
    29  C    6.311185   6.794780   2.480299   2.757837   4.173941
    30  C    5.158249   5.502662   1.474844   2.453481   3.787547
    31  H    5.573518   5.629402   2.888182   4.053796   5.139091
    32  H    7.598577   7.605781   4.226826   5.145523   6.533469
    33  H    9.072201   8.848550   6.190412   7.271138   8.576657
    34  H    9.692782   9.084789   7.680451   8.995405  10.165972
    35  H    9.447566   8.549393   8.353644   9.776192  10.751998
    36  H    8.246306   7.088803   8.336397   9.758207  10.428212
    37  H    6.543663   5.250112   7.641446   8.952966   9.322501
    38  H    3.948875   2.600178   6.085187   7.161947   7.183914
    39  H    2.122388   1.084499   5.476799   6.166533   5.761690
    40  H    1.084425   2.117098   4.650193   4.777693   3.917899
    41  H    2.585270   3.933498   3.959894   3.406215   2.125084
    42  H    4.533982   5.766418   3.466045   2.158591   1.084266
    43  H    6.130233   7.156598   3.467960   2.150660   2.560132
    44  H    7.589787   8.328967   3.985679   3.415587   4.543548
    45  H    7.260510   7.638077   3.455757   3.836200   5.249895
    46  H    5.548261   5.660470   2.567350   3.462447   4.651330
    47  H    7.755515   7.876566   4.350338   5.165484   6.509995
                   26         27         28         29         30
    26  C    0.000000
    27  C    3.658322   0.000000
    28  C    4.829184   1.368636   0.000000
    29  C    5.062246   2.370403   1.393346   0.000000
    30  C    4.336407   2.827614   2.468461   1.402075   0.000000
    31  H    5.349266   4.596934   4.213826   3.034057   2.116455
    32  H    7.101103   5.067913   4.045125   2.742773   2.795786
    33  H    8.959150   7.332703   6.344805   5.024487   4.863376
    34  H   10.234270   9.372107   8.571035   7.181717   6.610549
    35  H   10.530559  10.436820   9.876218   8.502848   7.614273
    36  H    9.877554  10.721955  10.502722   9.250825   8.070652
    37  H    8.527810  10.121644  10.213045   9.147464   7.813846
    38  H    6.176487   8.490586   8.924146   8.141871   6.755237
    39  H    4.534808   7.573923   8.330551   7.876434   6.575349
    40  H    2.569022   6.133386   7.177196   7.111173   6.050142
    41  H    1.084205   4.526293   5.776749   6.109512   5.418571
    42  H    2.124290   2.565370   3.931480   4.728196   4.607543
    43  H    3.911365   1.084192   2.139025   3.366632   3.911291
    44  H    5.777342   2.143172   1.083830   2.154236   3.438532
    45  H    6.126256   3.334606   2.120010   1.079196   2.138551
    46  H    5.076892   3.793029   3.410554   2.535877   1.949691
    47  H    7.111066   5.040627   4.027235   2.791588   2.957316
                   31         32         33         34         35
    31  H    0.000000
    32  H    3.060682   0.000000
    33  H    3.776788   2.737924   0.000000
    34  H    5.321942   4.748318   2.779007   0.000000
    35  H    6.355326   6.324559   4.967995   2.416357   0.000000
    36  H    7.008597   7.656477   7.041765   5.004871   2.824797
    37  H    7.044693   8.215473   8.245703   6.819572   5.022207
    38  H    6.401061   8.090001   8.797755   8.221770   7.049835
    39  H    6.601142   8.597773   9.723101   9.740640   8.971469
    40  H    6.520046   8.589711  10.095919  10.757511  10.484957
    41  H    6.353029   8.185108  10.008624  11.223810  11.415529
    42  H    6.031467   7.271459   9.379434  11.111722  11.787482
    43  H    5.628196   6.077175   8.347564  10.444289  11.519098
    44  H    5.054909   4.464990   6.715080   9.103842  10.577274
    45  H    3.240575   2.091648   4.316623   6.668568   8.229048
    46  H    3.519079   2.784063   5.242934   6.536494   7.290010
    47  H    2.438859   1.759080   2.432234   4.968449   6.767435
                   36         37         38         39         40
    36  H    0.000000
    37  H    2.430154   0.000000
    38  H    4.990446   2.808830   0.000000
    39  H    7.210961   5.127671   2.325436   0.000000
    40  H    9.180905   7.349880   4.631010   2.454967   0.000000
    41  H   10.585587   9.059463   6.527223   4.593657   2.262669
    42  H   11.509840  10.390698   8.195612   6.645006   4.592411
    43  H   11.753381  11.058211   9.280644   8.161947   6.469587
    44  H   11.382177  11.204510   9.988595   9.404638   8.192018
    45  H    9.297243   9.470634   8.756992   8.708989   8.104594
    46  H    7.620495   7.384330   6.547339   6.662191   6.489230
    47  H    8.210438   8.775475   8.537231   8.880721   8.690203
                   41         42         43         44         45
    41  H    0.000000
    42  H    2.468997   0.000000
    43  H    4.584366   2.246690   0.000000
    44  H    6.667858   4.605902   2.491018   0.000000
    45  H    7.178686   5.774499   4.243159   2.438882   0.000000
    46  H    6.115845   5.460716   4.771463   4.204560   2.939016
    47  H    8.166082   7.195737   6.010588   4.407485   2.121831
                   46         47
    46  H    0.000000
    47  H    3.932803   0.000000
 Stoichiometry    C30H17(2)
 Framework group  C1[X(C30H17)]
 Deg. of freedom   135
 Full point group                 C1      NOp   1
 Largest Abelian subgroup         C1      NOp   1
 Largest concise Abelian subgroup C1      NOp   1
                         Standard orientation:                         
 ---------------------------------------------------------------------
 Center     Atomic      Atomic             Coordinates (Angstroms)
 Number     Number       Type             X           Y           Z
 ---------------------------------------------------------------------
      1          6           0        0.714702   -0.900172    0.134184
      2          6           0        0.541838    0.532770    0.280520
      3          6           0        1.836620    1.072384    0.462368
      4          6           0        2.050476   -1.182356    0.217554
      5          6           0        2.768196    0.030676    0.416778
      6          6           0        2.724885   -2.361237   -0.244118
      7          6           0        4.180800   -2.212010   -0.375508
      8          6           0        4.828792   -1.025698   -0.165221
      9          6           0        4.106420    0.203738    0.183954
     10          6           0        2.217235    2.403489    0.328628
     11          6           0        3.642344    2.628288    0.240335
     12          6           0        4.542932    1.578719    0.159203
     13          6           0       -0.227598   -1.882453   -0.446641
     14          6           0        0.411580   -3.304915   -0.299151
     15          6           0        1.912343   -3.401034   -0.569751
     16          6           0       -0.540402    1.378665    0.048468
     17          6           0       -0.182612    2.801158   -0.013314
     18          6           0        1.138404    3.282185    0.117231
     19          6           0       -1.927262    0.926678   -0.119730
     20          6           0       -2.877609    1.967620   -0.321540
     21          6           0       -2.492199    3.344122   -0.438413
     22          6           0       -1.213366    3.751597   -0.282072
     23          6           0       -2.426930   -0.460442    0.006579
     24          6           0       -3.856335   -0.618715    0.104112
     25          6           0       -4.746293    0.473360   -0.099129
     26          6           0       -4.274130    1.715155   -0.351412
     27          6           0       -4.472713   -1.864006    0.378991
     28          6           0       -3.728303   -3.004765    0.511981
     29          6           0       -2.351931   -2.920708    0.312110
     30          6           0       -1.664147   -1.720303    0.084526
     31          1           0       -0.295124   -1.660759   -1.528426
     32          1           0        0.260185   -3.639839    0.739315
     33          1           0        2.299993   -4.342333   -0.946482
     34          1           0        4.760844   -3.081680   -0.667472
     35          1           0        5.904465   -0.984234   -0.304668
     36          1           0        5.595896    1.804395    0.023675
     37          1           0        4.015950    3.644859    0.172386
     38          1           0        1.302444    4.347998   -0.006519
     39          1           0       -0.951791    4.801666   -0.353298
     40          1           0       -3.277908    4.066819   -0.629065
     41          1           0       -4.949455    2.545375   -0.525117
     42          1           0       -5.812326    0.280352   -0.054937
     43          1           0       -5.553101   -1.889673    0.466032
     44          1           0       -4.193212   -3.960942    0.722390
     45          1           0       -1.785699   -3.838552    0.352194
     46          1           0       -1.024844   -1.464390    1.908559
     47          1           0       -0.110745   -4.019803   -0.937706
 ---------------------------------------------------------------------
 Rotational constants (GHZ):           0.2747997           0.1547530           0.1006764
 Standard basis: 6-311+G(d,p) (5D, 7F)
 There are   792 symmetry adapted cartesian basis functions of A   symmetry.
 There are   762 symmetry adapted basis functions of A   symmetry.
   762 basis functions,  1216 primitive gaussians,   792 cartesian basis functions
    99 alpha electrons       98 beta electrons
       nuclear repulsion energy      2648.0938614113 Hartrees.
 NAtoms=   47 NActive=   47 NUniq=   47 SFac= 1.00D+00 NAtFMM=   60 NAOKFM=F Big=F
 Integral buffers will be    131072 words long.
 Raffenetti 2 integral format.
 Two-electron integral symmetry is turned on.
 One-electron integrals computed using PRISM.
 NBasis=   762 RedAO= T EigKep=  1.00D-06  NBF=   762
 NBsUse=   742 1.00D-06 EigRej=  8.80D-07 NBFU=   742
 ExpMin= 4.38D-02 ExpMax= 4.56D+03 ExpMxC= 6.82D+02 IAcc=2 IRadAn=         4 AccDes= 0.00D+00
 Harris functional with IExCor=  402 and IRadAn=       4 diagonalized for initial guess.
 HarFok:  IExCor=  402 AccDes= 0.00D+00 IRadAn=         4 IDoV= 1 UseB2=F ITyADJ=14
 ICtDFT=  3500011 ScaDFX=  1.000000  1.000000  1.000000  1.000000
 FoFCou: FMM=F IPFlag=           0 FMFlag=      100000 FMFlg1=           0
         NFxFlg=           0 DoJE=T BraDBF=F KetDBF=T FulRan=T
         wScrn=  0.000000 ICntrl=       500 IOpCl=  0 I1Cent=   200000004 NGrid=           0
         NMat0=    1 NMatS0=      1 NMatT0=    0 NMatD0=    1 NMtDS0=    0 NMtDT0=    0
 Petite list used in FoFCou.
 Initial guess <Sx>= 0.0000 <Sy>= 0.0000 <Sz>= 0.5000 <S**2>= 0.7500 S= 0.5000
 Requested convergence on RMS density matrix=1.00D-08 within 128 cycles.
 Requested convergence on MAX density matrix=1.00D-06.
 Requested convergence on             energy=1.00D-06.
 No special actions if energy rises.
 Restarting incremental Fock formation.
 SCF Done:  E(UB3LYP) =  -1153.57923151     A.U. after   34 cycles
            NFock= 34  Conv=0.51D-08     -V/T= 2.0045
 <Sx>= 0.0000 <Sy>= 0.0000 <Sz>= 0.5000 <S**2>= 0.7845 S= 0.5171
 <L.S>=  0.00000000000    
 Annihilation of the first spin contaminant:
 S**2 before annihilation     0.7845,   after     0.7508

 **********************************************************************

            Population analysis using the SCF Density.

 **********************************************************************

 Orbital symmetries:
 Alpha Orbitals:
       Occupied  (A) (A) (A) (A) (A) (A) (A) (A) (A) (A) (A) (A)
                 (A) (A) (A) (A) (A) (A) (A) (A) (A) (A) (A) (A)
                 (A) (A) (A) (A) (A) (A) (A) (A) (A) (A) (A) (A)
                 (A) (A) (A) (A) (A) (A) (A) (A) (A) (A) (A) (A)
                 (A) (A) (A) (A) (A) (A) (A) (A) (A) (A) (A) (A)
                 (A) (A) (A) (A) (A) (A) (A) (A) (A) (A) (A) (A)
                 (A) (A) (A) (A) (A) (A) (A) (A) (A) (A) (A) (A)
                 (A) (A) (A) (A) (A) (A) (A) (A) (A) (A) (A) (A)
                 (A) (A) (A)
       Virtual   (A) (A) (A) (A) (A) (A) (A) (A) (A) (A) (A) (A)
                 (A) (A) (A) (A) (A) (A) (A) (A) (A) (A) (A) (A)
                 (A) (A) (A) (A) (A) (A) (A) (A) (A) (A) (A) (A)
                 (A) (A) (A) (A) (A) (A) (A) (A) (A) (A) (A) (A)
                 (A) (A) (A) (A) (A) (A) (A) (A) (A) (A) (A) (A)
                 (A) (A) (A) (A) (A) (A) (A) (A) (A) (A) (A) (A)
                 (A) (A) (A) (A) (A) (A) (A) (A) (A) (A) (A) (A)
                 (A) (A) (A) (A) (A) (A) (A) (A) (A) (A) (A) (A)
                 (A) (A) (A) (A) (A) (A) (A) (A) (A) (A) (A) (A)
                 (A) (A) (A) (A) (A) (A) (A) (A) (A) (A) (A) (A)
                 (A) (A) (A) (A) (A) (A) (A) (A) (A) (A) (A) (A)
                 (A) (A) (A) (A) (A) (A) (A) (A) (A) (A) (A) (A)
                 (A) (A) (A) (A) (A) (A) (A) (A) (A) (A) (A) (A)
                 (A) (A) (A) (A) (A) (A) (A) (A) (A) (A) (A) (A)
                 (A) (A) (A) (A) (A) (A) (A) (A) (A) (A) (A) (A)
                 (A) (A) (A) (A) (A) (A) (A) (A) (A) (A) (A) (A)
                 (A) (A) (A) (A) (A) (A) (A) (A) (A) (A) (A) (A)
                 (A) (A) (A) (A) (A) (A) (A) (A) (A) (A) (A) (A)
                 (A) (A) (A) (A) (A) (A) (A) (A) (A) (A) (A) (A)
                 (A) (A) (A) (A) (A) (A) (A) (A) (A) (A) (A) (A)
                 (A) (A) (A) (A) (A) (A) (A) (A) (A) (A) (A) (A)
                 (A) (A) (A) (A) (A) (A) (A) (A) (A) (A) (A) (A)
                 (A) (A) (A) (A) (A) (A) (A) (A) (A) (A) (A) (A)
                 (A) (A) (A) (A) (A) (A) (A) (A) (A) (A) (A) (A)
                 (A) (A) (A) (A) (A) (A) (A) (A) (A) (A) (A) (A)
                 (A) (A) (A) (A) (A) (A) (A) (A) (A) (A) (A) (A)
                 (A) (A) (A) (A) (A) (A) (A) (A) (A) (A) (A) (A)
                 (A) (A) (A) (A) (A) (A) (A) (A) (A) (A) (A) (A)
                 (A) (A) (A) (A) (A) (A) (A) (A) (A) (A) (A) (A)
                 (A) (A) (A) (A) (A) (A) (A) (A) (A) (A) (A) (A)
                 (A) (A) (A) (A) (A) (A) (A) (A) (A) (A) (A) (A)
                 (A) (A) (A) (A) (A) (A) (A) (A) (A) (A) (A) (A)
                 (A) (A) (A) (A) (A) (A) (A) (A) (A) (A) (A) (A)
                 (A) (A) (A) (A) (A) (A) (A) (A) (A) (A) (A) (A)
                 (A) (A) (A) (A) (A) (A) (A) (A) (A) (A) (A) (A)
                 (A) (A) (A) (A) (A) (A) (A) (A) (A) (A) (A) (A)
                 (A) (A) (A) (A) (A) (A) (A) (A) (A) (A) (A) (A)
                 (A) (A) (A) (A) (A) (A) (A) (A) (A) (A) (A) (A)
                 (A) (A) (A) (A) (A) (A) (A) (A) (A) (A) (A) (A)
                 (A) (A) (A) (A) (A) (A) (A) (A) (A) (A) (A) (A)
                 (A) (A) (A) (A) (A) (A) (A) (A) (A) (A) (A) (A)
                 (A) (A) (A) (A) (A) (A) (A) (A) (A) (A) (A) (A)
                 (A) (A) (A) (A) (A) (A) (A) (A) (A) (A) (A) (A)
                 (A) (A) (A) (A) (A) (A) (A) (A) (A) (A) (A) (A)
                 (A) (A) (A) (A) (A) (A) (A) (A) (A) (A) (A) (A)
                 (A) (A) (A) (A) (A) (A) (A) (A) (A) (A) (A) (A)
                 (A) (A) (A) (A) (A) (A) (A) (A) (A) (A) (A) (A)
                 (A) (A) (A) (A) (A) (A) (A) (A) (A) (A) (A) (A)
                 (A) (A) (A) (A) (A) (A) (A) (A) (A) (A) (A) (A)
                 (A) (A) (A) (A) (A) (A) (A) (A) (A) (A) (A) (A)
                 (A) (A) (A) (A) (A) (A) (A) (A) (A) (A) (A) (A)
                 (A) (A) (A) (A) (A) (A) (A) (A) (A) (A) (A) (A)
                 (A) (A) (A) (A) (A) (A) (A) (A) (A) (A) (A) (A)
                 (A) (A) (A) (A) (A) (A) (A)
 Beta  Orbitals:
       Occupied  (A) (A) (A) (A) (A) (A) (A) (A) (A) (A) (A) (A)
                 (A) (A) (A) (A) (A) (A) (A) (A) (A) (A) (A) (A)
                 (A) (A) (A) (A) (A) (A) (A) (A) (A) (A) (A) (A)
                 (A) (A) (A) (A) (A) (A) (A) (A) (A) (A) (A) (A)
                 (A) (A) (A) (A) (A) (A) (A) (A) (A) (A) (A) (A)
                 (A) (A) (A) (A) (A) (A) (A) (A) (A) (A) (A) (A)
                 (A) (A) (A) (A) (A) (A) (A) (A) (A) (A) (A) (A)
                 (A) (A) (A) (A) (A) (A) (A) (A) (A) (A) (A) (A)
                 (A) (A)
       Virtual   (A) (A) (A) (A) (A) (A) (A) (A) (A) (A) (A) (A)
                 (A) (A) (A) (A) (A) (A) (A) (A) (A) (A) (A) (A)
                 (A) (A) (A) (A) (A) (A) (A) (A) (A) (A) (A) (A)
                 (A) (A) (A) (A) (A) (A) (A) (A) (A) (A) (A) (A)
                 (A) (A) (A) (A) (A) (A) (A) (A) (A) (A) (A) (A)
                 (A) (A) (A) (A) (A) (A) (A) (A) (A) (A) (A) (A)
                 (A) (A) (A) (A) (A) (A) (A) (A) (A) (A) (A) (A)
                 (A) (A) (A) (A) (A) (A) (A) (A) (A) (A) (A) (A)
                 (A) (A) (A) (A) (A) (A) (A) (A) (A) (A) (A) (A)
                 (A) (A) (A) (A) (A) (A) (A) (A) (A) (A) (A) (A)
                 (A) (A) (A) (A) (A) (A) (A) (A) (A) (A) (A) (A)
                 (A) (A) (A) (A) (A) (A) (A) (A) (A) (A) (A) (A)
                 (A) (A) (A) (A) (A) (A) (A) (A) (A) (A) (A) (A)
                 (A) (A) (A) (A) (A) (A) (A) (A) (A) (A) (A) (A)
                 (A) (A) (A) (A) (A) (A) (A) (A) (A) (A) (A) (A)
                 (A) (A) (A) (A) (A) (A) (A) (A) (A) (A) (A) (A)
                 (A) (A) (A) (A) (A) (A) (A) (A) (A) (A) (A) (A)
                 (A) (A) (A) (A) (A) (A) (A) (A) (A) (A) (A) (A)
                 (A) (A) (A) (A) (A) (A) (A) (A) (A) (A) (A) (A)
                 (A) (A) (A) (A) (A) (A) (A) (A) (A) (A) (A) (A)
                 (A) (A) (A) (A) (A) (A) (A) (A) (A) (A) (A) (A)
                 (A) (A) (A) (A) (A) (A) (A) (A) (A) (A) (A) (A)
                 (A) (A) (A) (A) (A) (A) (A) (A) (A) (A) (A) (A)
                 (A) (A) (A) (A) (A) (A) (A) (A) (A) (A) (A) (A)
                 (A) (A) (A) (A) (A) (A) (A) (A) (A) (A) (A) (A)
                 (A) (A) (A) (A) (A) (A) (A) (A) (A) (A) (A) (A)
                 (A) (A) (A) (A) (A) (A) (A) (A) (A) (A) (A) (A)
                 (A) (A) (A) (A) (A) (A) (A) (A) (A) (A) (A) (A)
                 (A) (A) (A) (A) (A) (A) (A) (A) (A) (A) (A) (A)
                 (A) (A) (A) (A) (A) (A) (A) (A) (A) (A) (A) (A)
                 (A) (A) (A) (A) (A) (A) (A) (A) (A) (A) (A) (A)
                 (A) (A) (A) (A) (A) (A) (A) (A) (A) (A) (A) (A)
                 (A) (A) (A) (A) (A) (A) (A) (A) (A) (A) (A) (A)
                 (A) (A) (A) (A) (A) (A) (A) (A) (A) (A) (A) (A)
                 (A) (A) (A) (A) (A) (A) (A) (A) (A) (A) (A) (A)
                 (A) (A) (A) (A) (A) (A) (A) (A) (A) (A) (A) (A)
                 (A) (A) (A) (A) (A) (A) (A) (A) (A) (A) (A) (A)
                 (A) (A) (A) (A) (A) (A) (A) (A) (A) (A) (A) (A)
                 (A) (A) (A) (A) (A) (A) (A) (A) (A) (A) (A) (A)
                 (A) (A) (A) (A) (A) (A) (A) (A) (A) (A) (A) (A)
                 (A) (A) (A) (A) (A) (A) (A) (A) (A) (A) (A) (A)
                 (A) (A) (A) (A) (A) (A) (A) (A) (A) (A) (A) (A)
                 (A) (A) (A) (A) (A) (A) (A) (A) (A) (A) (A) (A)
                 (A) (A) (A) (A) (A) (A) (A) (A) (A) (A) (A) (A)
                 (A) (A) (A) (A) (A) (A) (A) (A) (A) (A) (A) (A)
                 (A) (A) (A) (A) (A) (A) (A) (A) (A) (A) (A) (A)
                 (A) (A) (A) (A) (A) (A) (A) (A) (A) (A) (A) (A)
                 (A) (A) (A) (A) (A) (A) (A) (A) (A) (A) (A) (A)
                 (A) (A) (A) (A) (A) (A) (A) (A) (A) (A) (A) (A)
                 (A) (A) (A) (A) (A) (A) (A) (A) (A) (A) (A) (A)
                 (A) (A) (A) (A) (A) (A) (A) (A) (A) (A) (A) (A)
                 (A) (A) (A) (A) (A) (A) (A) (A) (A) (A) (A) (A)
                 (A) (A) (A) (A) (A) (A) (A) (A) (A) (A) (A) (A)
                 (A) (A) (A) (A) (A) (A) (A) (A)
 The electronic state is 2-A.
 Alpha  occ. eigenvalues --  -10.21335 -10.21298 -10.20752 -10.20419 -10.19935
 Alpha  occ. eigenvalues --  -10.19771 -10.19679 -10.19559 -10.19501 -10.19202
 Alpha  occ. eigenvalues --  -10.19174 -10.19109 -10.19061 -10.19029 -10.18930
 Alpha  occ. eigenvalues --  -10.18926 -10.18851 -10.18818 -10.18303 -10.18283
 Alpha  occ. eigenvalues --  -10.18172 -10.18147 -10.18062 -10.17982 -10.17958
 Alpha  occ. eigenvalues --  -10.17954 -10.17653 -10.16584 -10.16402 -10.16048
 Alpha  occ. eigenvalues --   -0.91780  -0.89170  -0.87336  -0.85172  -0.84702
 Alpha  occ. eigenvalues --   -0.82457  -0.80652  -0.80215  -0.78814  -0.76077
 Alpha  occ. eigenvalues --   -0.75603  -0.74669  -0.72655  -0.71717  -0.70757
 Alpha  occ. eigenvalues --   -0.66592  -0.66088  -0.63776  -0.63491  -0.61955
 Alpha  occ. eigenvalues --   -0.60190  -0.59899  -0.58264  -0.56509  -0.55705
 Alpha  occ. eigenvalues --   -0.53140  -0.52358  -0.51286  -0.50652  -0.50147
 Alpha  occ. eigenvalues --   -0.49392  -0.48160  -0.47289  -0.46836  -0.45202
 Alpha  occ. eigenvalues --   -0.44843  -0.44362  -0.43974  -0.43637  -0.42796
 Alpha  occ. eigenvalues --   -0.42219  -0.41966  -0.41648  -0.40982  -0.40916
 Alpha  occ. eigenvalues --   -0.40303  -0.39717  -0.38985  -0.37946  -0.37805
 Alpha  occ. eigenvalues --   -0.37623  -0.36018  -0.35609  -0.35357  -0.34473
 Alpha  occ. eigenvalues --   -0.34065  -0.33793  -0.33214  -0.32372  -0.32142
 Alpha  occ. eigenvalues --   -0.31100  -0.29304  -0.28601  -0.26365  -0.25421
 Alpha  occ. eigenvalues --   -0.23761  -0.21769  -0.19431  -0.18944
 Alpha virt. eigenvalues --   -0.10483  -0.05931  -0.05146  -0.03313  -0.01387
 Alpha virt. eigenvalues --   -0.00068   0.00089   0.00459   0.00556   0.01177
 Alpha virt. eigenvalues --    0.01400   0.01535   0.02194   0.02789   0.02880
 Alpha virt. eigenvalues --    0.03137   0.03510   0.03873   0.04464   0.04563
 Alpha virt. eigenvalues --    0.04896   0.05236   0.05488   0.05917   0.06545
 Alpha virt. eigenvalues --    0.06733   0.07013   0.07347   0.07740   0.08126
 Alpha virt. eigenvalues --    0.08452   0.08856   0.09135   0.09260   0.09562
 Alpha virt. eigenvalues --    0.09702   0.10360   0.10565   0.11435   0.11609
 Alpha virt. eigenvalues --    0.11793   0.11900   0.12182   0.12445   0.12954
 Alpha virt. eigenvalues --    0.13116   0.14015   0.14158   0.14388   0.14590
 Alpha virt. eigenvalues --    0.14896   0.15241   0.15630   0.15785   0.16036
 Alpha virt. eigenvalues --    0.16110   0.16193   0.16504   0.16583   0.16817
 Alpha virt. eigenvalues --    0.16849   0.16974   0.17412   0.17821   0.17886
 Alpha virt. eigenvalues --    0.18109   0.18288   0.18600   0.18741   0.19167
 Alpha virt. eigenvalues --    0.19250   0.19485   0.19559   0.19616   0.19896
 Alpha virt. eigenvalues --    0.20305   0.20682   0.20817   0.20969   0.21112
 Alpha virt. eigenvalues --    0.21305   0.21655   0.21769   0.22074   0.22202
 Alpha virt. eigenvalues --    0.22357   0.22598   0.22711   0.22912   0.23208
 Alpha virt. eigenvalues --    0.23426   0.23792   0.23983   0.24251   0.24412
 Alpha virt. eigenvalues --    0.24723   0.24809   0.25193   0.25418   0.25529
 Alpha virt. eigenvalues --    0.25822   0.26129   0.26203   0.26517   0.26900
 Alpha virt. eigenvalues --    0.27047   0.27195   0.27615   0.28022   0.28203
 Alpha virt. eigenvalues --    0.28673   0.28902   0.29018   0.29216   0.29363
 Alpha virt. eigenvalues --    0.29734   0.30111   0.30528   0.30588   0.30739
 Alpha virt. eigenvalues --    0.31016   0.31113   0.31782   0.31903   0.32340
 Alpha virt. eigenvalues --    0.32828   0.33197   0.33467   0.33579   0.33848
 Alpha virt. eigenvalues --    0.34181   0.34667   0.34991   0.35218   0.35686
 Alpha virt. eigenvalues --    0.36024   0.36277   0.37158   0.37571   0.37979
 Alpha virt. eigenvalues --    0.38319   0.38763   0.38900   0.39515   0.39807
 Alpha virt. eigenvalues --    0.40294   0.40925   0.41115   0.41317   0.41784
 Alpha virt. eigenvalues --    0.42157   0.42881   0.43164   0.44114   0.44794
 Alpha virt. eigenvalues --    0.45704   0.46078   0.47106   0.47232   0.48081
 Alpha virt. eigenvalues --    0.48761   0.49571   0.49714   0.50894   0.51012
 Alpha virt. eigenvalues --    0.51365   0.52226   0.52643   0.52879   0.53646
 Alpha virt. eigenvalues --    0.53914   0.54363   0.54459   0.54777   0.55100
 Alpha virt. eigenvalues --    0.55466   0.55780   0.56255   0.56627   0.56897
 Alpha virt. eigenvalues --    0.57211   0.57767   0.58555   0.58691   0.58965
 Alpha virt. eigenvalues --    0.59183   0.59440   0.59876   0.60076   0.60829
 Alpha virt. eigenvalues --    0.61132   0.61296   0.61396   0.61673   0.62059
 Alpha virt. eigenvalues --    0.62555   0.63016   0.63488   0.64134   0.64328
 Alpha virt. eigenvalues --    0.65239   0.66057   0.66566   0.66707   0.67345
 Alpha virt. eigenvalues --    0.67475   0.68100   0.68734   0.68825   0.69474
 Alpha virt. eigenvalues --    0.70177   0.70302   0.70653   0.70973   0.71265
 Alpha virt. eigenvalues --    0.71739   0.71990   0.72185   0.72695   0.72955
 Alpha virt. eigenvalues --    0.73124   0.73600   0.74064   0.74289   0.74551
 Alpha virt. eigenvalues --    0.74922   0.74936   0.75200   0.75522   0.76192
 Alpha virt. eigenvalues --    0.76327   0.76491   0.77266   0.77730   0.78111
 Alpha virt. eigenvalues --    0.78371   0.79812   0.80738   0.80884   0.81894
 Alpha virt. eigenvalues --    0.82353   0.83326   0.83876   0.84090   0.84408
 Alpha virt. eigenvalues --    0.85334   0.86240   0.86805   0.87248   0.87918
 Alpha virt. eigenvalues --    0.88317   0.88819   0.89457   0.89821   0.90198
 Alpha virt. eigenvalues --    0.90758   0.91173   0.91530   0.91846   0.92115
 Alpha virt. eigenvalues --    0.92780   0.93028   0.93437   0.94021   0.94120
 Alpha virt. eigenvalues --    0.94286   0.94696   0.95115   0.95673   0.95864
 Alpha virt. eigenvalues --    0.96125   0.96739   0.96980   0.97978   0.98088
 Alpha virt. eigenvalues --    0.98452   0.98897   0.99834   1.00279   1.00503
 Alpha virt. eigenvalues --    1.00999   1.01927   1.02672   1.03194   1.03569
 Alpha virt. eigenvalues --    1.04319   1.04623   1.04985   1.06027   1.06649
 Alpha virt. eigenvalues --    1.07631   1.08071   1.08304   1.09031   1.09981
 Alpha virt. eigenvalues --    1.10128   1.11110   1.12047   1.12666   1.14092
 Alpha virt. eigenvalues --    1.15103   1.15827   1.16518   1.17376   1.17645
 Alpha virt. eigenvalues --    1.18526   1.18575   1.20074   1.20672   1.21945
 Alpha virt. eigenvalues --    1.24113   1.24803   1.26018   1.26719   1.29602
 Alpha virt. eigenvalues --    1.30810   1.31399   1.32680   1.33273   1.33689
 Alpha virt. eigenvalues --    1.35286   1.37660   1.38062   1.39443   1.40235
 Alpha virt. eigenvalues --    1.40488   1.41970   1.42701   1.42996   1.43951
 Alpha virt. eigenvalues --    1.44155   1.45867   1.46787   1.47193   1.48287
 Alpha virt. eigenvalues --    1.48419   1.48999   1.49327   1.49690   1.50445
 Alpha virt. eigenvalues --    1.50739   1.51282   1.51816   1.52732   1.53894
 Alpha virt. eigenvalues --    1.54433   1.54691   1.55194   1.55750   1.56223
 Alpha virt. eigenvalues --    1.57153   1.57303   1.58134   1.58968   1.59306
 Alpha virt. eigenvalues --    1.59771   1.60930   1.61197   1.61527   1.62380
 Alpha virt. eigenvalues --    1.63378   1.63686   1.63938   1.64917   1.66353
 Alpha virt. eigenvalues --    1.66685   1.67376   1.68234   1.69072   1.69824
 Alpha virt. eigenvalues --    1.70282   1.71080   1.71948   1.72623   1.73338
 Alpha virt. eigenvalues --    1.73720   1.74004   1.74173   1.74702   1.75736
 Alpha virt. eigenvalues --    1.75922   1.76629   1.77221   1.78048   1.79220
 Alpha virt. eigenvalues --    1.80244   1.80881   1.81338   1.82193   1.82432
 Alpha virt. eigenvalues --    1.83412   1.84598   1.85321   1.85855   1.86336
 Alpha virt. eigenvalues --    1.86624   1.87024   1.87907   1.87985   1.88694
 Alpha virt. eigenvalues --    1.89035   1.89464   1.89611   1.90418   1.90999
 Alpha virt. eigenvalues --    1.91577   1.92198   1.93820   1.93905   1.94788
 Alpha virt. eigenvalues --    1.95123   1.95985   1.96159   1.96785   1.97191
 Alpha virt. eigenvalues --    1.98204   1.99450   2.00036   2.00352   2.01749
 Alpha virt. eigenvalues --    2.02180   2.03905   2.04114   2.04589   2.04895
 Alpha virt. eigenvalues --    2.05700   2.06680   2.08174   2.08474   2.09579
 Alpha virt. eigenvalues --    2.10468   2.10877   2.11567   2.11865   2.12290
 Alpha virt. eigenvalues --    2.13590   2.14224   2.15014   2.16020   2.17040
 Alpha virt. eigenvalues --    2.18120   2.19526   2.20020   2.21546   2.21843
 Alpha virt. eigenvalues --    2.22751   2.23137   2.24193   2.24619   2.25608
 Alpha virt. eigenvalues --    2.26048   2.27695   2.28099   2.28887   2.30824
 Alpha virt. eigenvalues --    2.32743   2.33299   2.33738   2.35563   2.36956
 Alpha virt. eigenvalues --    2.38503   2.39653   2.40723   2.41374   2.41728
 Alpha virt. eigenvalues --    2.42480   2.43882   2.44914   2.45497   2.47489
 Alpha virt. eigenvalues --    2.48341   2.49383   2.50262   2.53573   2.54346
 Alpha virt. eigenvalues --    2.54850   2.56436   2.57193   2.58020   2.58887
 Alpha virt. eigenvalues --    2.59421   2.61719   2.63247   2.64617   2.64950
 Alpha virt. eigenvalues --    2.65908   2.66825   2.68075   2.68938   2.69335
 Alpha virt. eigenvalues --    2.70162   2.71107   2.71446   2.71700   2.72011
 Alpha virt. eigenvalues --    2.72599   2.72872   2.73706   2.73931   2.74345
 Alpha virt. eigenvalues --    2.74692   2.75509   2.76009   2.76465   2.76896
 Alpha virt. eigenvalues --    2.77458   2.78020   2.78394   2.78734   2.79430
 Alpha virt. eigenvalues --    2.80419   2.80628   2.81351   2.82433   2.83109
 Alpha virt. eigenvalues --    2.84262   2.84714   2.85141   2.85615   2.85925
 Alpha virt. eigenvalues --    2.87083   2.87925   2.87977   2.89611   2.90204
 Alpha virt. eigenvalues --    2.90951   2.92639   2.93608   2.94262   2.95754
 Alpha virt. eigenvalues --    2.96246   2.97980   3.00392   3.01077   3.02287
 Alpha virt. eigenvalues --    3.04164   3.04869   3.05774   3.06928   3.09786
 Alpha virt. eigenvalues --    3.09834   3.11822   3.13334   3.14378   3.16205
 Alpha virt. eigenvalues --    3.17462   3.18631   3.19736   3.21487   3.21928
 Alpha virt. eigenvalues --    3.22107   3.23212   3.24855   3.26698   3.27753
 Alpha virt. eigenvalues --    3.29740   3.30523   3.32965   3.35112   3.35610
 Alpha virt. eigenvalues --    3.36957   3.38767   3.39536   3.40504   3.41030
 Alpha virt. eigenvalues --    3.43450   3.43894   3.44290   3.46618   3.49012
 Alpha virt. eigenvalues --    3.50060   3.51362   3.52964   3.54248   3.56451
 Alpha virt. eigenvalues --    3.57483   3.58738   3.61314   3.62299   3.63339
 Alpha virt. eigenvalues --    3.68270   3.68925   3.72572   3.78073   3.80011
 Alpha virt. eigenvalues --    3.83844   3.85488   3.87929   3.94699   3.98825
 Alpha virt. eigenvalues --    4.04481   4.05470   4.06263   4.07590   4.07745
 Alpha virt. eigenvalues --    4.10338   4.11516   4.15434   4.20773   4.24217
 Alpha virt. eigenvalues --    4.29426   4.33316   4.44074   4.45933   4.57479
 Alpha virt. eigenvalues --    4.68561   4.71892   4.76083   4.78261   4.79555
[...]
 00000413,0.00000064,-0.00000068,-0.00000200,-0.00000173,-0.00000037,-0
 .00000253,0.00000220,-0.00000008,-0.00000204,0.00000082,0.00000225,-0.
 00000694,0.00000069,0.00002527,0.00008319,-0.00002110,-0.00003781,0.00
 000015,0.00002007,0.00071993,-0.00064213,-0.00035403,0.11121843,-0.000
 05328,0.00004809,0.00006247,-0.00000125,-0.00004034,-0.00002399,0.0000
 0749,-0.00002414,0.00000276,0.00001367,-0.00004033,-0.00000723,-0.0000
 3502,0.00001229,0.00001302,0.00000672,0.00002339,0.00001234,-0.0000023
 8,-0.00000886,-0.00000548,0.00000565,0.00001027,0.00000065,-0.00000685
 ,-0.00003142,-0.00001565,-0.00004331,0.00000702,-0.00000535,0.00002560
 ,-0.00000680,-0.00000242,-0.00000323,0.00002506,0.00000173,0.00013636,
 -0.00012278,-0.00014191,-0.00002535,-0.00003826,-0.00001529,-0.0000023
 0,-0.00000456,0.00001362,-0.00002778,-0.00002017,0.00000252,-0.0000756
 4,0.00000932,-0.00000617,0.00004331,0.00000309,0.00000214,-0.00006278,
 0.00013696,-0.00016735,0.00021083,0.00008726,-0.00000562,-0.00006469,-
 0.00003230,0.00001437,0.00005259,-0.00001524,0.00000617,0.00048798,0.0
 0000350,-0.00017860,0.00421247,-0.00163675,0.00154074,-0.00109744,-0.0
 0066267,0.00017353,0.00029793,-0.00044236,0.00002138,-0.01441772,-0.01
 779205,0.00519171,-0.10326288,-0.27391925,0.05302137,0.00175189,0.0021
 7196,-0.00010778,0.00060657,0.00197567,0.00083692,-0.00005266,-0.00001
 391,0.00002353,0.00000153,-0.00000333,0.00002963,-0.00001358,0.0000052
 7,0.00000347,-0.00000374,0.00000460,0.00000217,-0.00000633,-0.00000064
 ,0.00000176,-0.00000587,-0.00000130,0.00000168,-0.00000120,-0.00000494
 ,0.00000174,-0.00000243,-0.00000607,0.00000118,-0.00000599,-0.00000719
 ,-0.00000007,0.00000505,0.00000164,0.00000149,-0.00005002,-0.00013033,
 0.00002613,0.00005610,0.00000714,0.00000696,0.00018667,0.00075507,-0.0
 0096184,0.11159943,0.28894958,0.00008830,0.00003175,-0.00009553,-0.000
 01531,-0.00000413,-0.00004894,0.00001158,0.00001526,0.00001176,0.00006
 445,-0.00005514,0.00007574,-0.00003147,-0.00002304,0.00000319,-0.00001
 912,0.00003550,-0.00000251,-0.00001025,-0.00000094,-0.00000632,-0.0000
 0489,0.00000771,-0.00000127,0.00000315,0.00000902,-0.00000658,0.000014
 52,-0.00002886,0.00000394,-0.00001571,0.00000582,-0.00000276,0.0000073
 4,-0.00000909,0.00000043,-0.00002488,-0.00004021,-0.00005036,0.0000526
 4,0.00000547,-0.00007126,0.00000952,-0.00002627,-0.00000726,-0.0000605
 3,-0.00006000,0.00002747,-0.00001154,0.00001309,0.00001868,-0.00000937
 ,0.00000383,-0.00000122,0.00002265,-0.00005349,-0.00092386,-0.00001257
 ,0.00008055,0.00010843,-0.00001367,-0.00001698,0.00005151,0.00001219,0
 .00001369,-0.00000350,0.00013652,-0.00041434,-0.00050678,-0.00042655,0
 .00111487,0.00814813,0.00011574,-0.00000232,0.00013087,-0.00002073,-0.
 00005571,-0.00054067,0.00140001,0.00279366,0.00321711,0.02644035,0.052
 38849,-0.04941103,0.00149456,0.00374992,0.00232665,0.00127643,0.000460
 72,0.00577624,0.00002554,0.00005041,0.00001758,-0.00006448,0.00000756,
 0.00002827,0.00000449,-0.00000274,0.00000411,0.00000151,-0.00000158,0.
 00000075,0.00000197,-0.00000031,0.00000130,0.00000133,0.00000001,0.000
 00100,0.00000086,0.00000118,0.00000147,-0.00000160,0.00000192,0.000004
 15,0.00000138,0.00000083,0.00000044,-0.00000076,0.00000057,0.00000031,
 0.00000619,0.00001356,0.00000567,-0.00000603,0.00003289,0.00010580,-0.
 00044388,-0.00090483,-0.00422297,-0.02946074,-0.05869137,0.03902255,-0
 .00011652,0.00015200,0.00010460,0.00004262,-0.00014619,-0.00002574,0.0
 0012001,0.00008280,0.00002683,-0.00021928,-0.00001349,-0.00000768,-0.0
 0001625,0.00009829,0.00001125,0.00025788,-0.00006758,-0.00017533,-0.00
 018073,0.00000475,-0.00003393,0.00010303,0.00008154,0.00002773,0.00001
 042,-0.00012714,-0.00003562,-0.00011720,0.00001097,-0.00000336,0.00008
 112,-0.00002059,-0.00000879,-0.00002952,0.00008178,0.00001089,-0.00025
 255,-0.00016584,-0.00050489,-0.00482356,-0.00122422,0.00250054,-0.0005
 6701,-0.00018764,0.00019201,0.00006550,0.00005714,0.00004122,-0.000080
 10,0.00001563,-0.00000453,0.00009318,0.00002989,0.00001027,0.00072267,
 -0.00027876,0.00001635,0.00005796,-0.00017410,-0.00007542,0.00000575,-
 0.00008370,-0.00000197,0.00008108,-0.00004077,0.00001665,-0.00153890,-
 0.00287663,0.00142508,-0.00026067,-0.00085071,0.00014253,-0.00007574,0
 .00028891,-0.00018788,-0.00011237,-0.00017493,0.00006232,-0.00544005,-
 0.00143866,0.00193362,-0.01375638,0.02823373,-0.00093300,-0.13415313,0
 .12931982,-0.00184207,0.01117820,-0.01297753,0.00040176,0.00010073,0.0
 0023051,-0.00019748,-0.00229145,-0.00032916,-0.00033277,0.00013767,-0.
 00002442,0.00000269,0.00000608,-0.00000722,-0.00000836,0.00000524,0.00
 000955,0.00000744,0.00000465,0.00000188,0.00000086,0.00000257,0.000005
 45,0.00000070,-0.00000260,0.00000138,-0.00000486,-0.00000138,0.0000017
 3,-0.00000032,-0.00000899,-0.00002534,0.00000426,0.00000195,0.00001023
 ,0.00000562,0.00006933,-0.00005033,0.00000867,-0.00072824,0.00120359,-
 0.00035142,0.00096867,-0.00040716,-0.00061350,0.15241777,-0.00030086,-
 0.00006715,0.00022641,-0.00003351,-0.00014849,-0.00007361,0.00012660,0
 .00005287,0.00001426,-0.00006198,-0.00014417,-0.00020469,-0.00003580,0
 .00010612,0.00004938,0.00060451,0.00007624,0.00007976,-0.00017637,0.00
 000396,0.00012226,0.00013395,0.00012854,0.00001302,0.00002134,-0.00021
 222,-0.00005616,-0.00014550,0.00002070,-0.00002144,0.00011435,-0.00003
 982,-0.00001107,-0.00004401,0.00012903,0.00001710,0.00160077,-0.001019
 23,-0.00082927,0.00207041,0.00011908,-0.00079182,-0.00026291,0.0007975
 8,-0.00012030,0.00015854,0.00008111,0.00005291,-0.00009196,-0.00004325
 ,-0.00001408,0.00010535,0.00002209,0.00001795,0.00118967,-0.00021756,0
 .00008989,-0.00021175,-0.00037397,-0.00005832,0.00006217,-0.00002989,0
 .00001888,0.00005178,-0.00007771,0.00001642,-0.00350785,-0.00246442,0.
 00124041,-0.00062497,0.00005251,-0.00002625,0.00002751,0.00014883,-0.0
 0009327,-0.00011434,-0.00006953,0.00001413,-0.00051985,0.00146909,0.00
 052757,-0.00326845,0.00485184,0.00060830,0.12765555,-0.26238857,0.0113
 5540,0.01288224,-0.02055874,0.00100803,-0.00009898,-0.00002409,0.00004
 629,-0.00021593,0.00037907,-0.00076698,0.00008997,-0.00004949,0.000004
 46,0.00000732,-0.00000582,-0.00000829,0.00000040,0.00002350,-0.0000133
 4,0.00000010,0.00000093,0.00000325,0.00000097,0.00000248,0.00000397,-0
 .00000534,-0.00000221,-0.00000141,-0.00000792,-0.00000268,-0.00000313,
 -0.00001049,-0.00004841,0.00000486,0.00001271,-0.00001244,0.00000771,0
 .00003709,-0.00001393,0.00001025,-0.00023948,0.00005169,-0.00004576,0.
 00016688,0.00073476,-0.00052784,-0.13830380,0.27781279,-0.00069039,-0.
 00025329,0.00050489,-0.00013952,0.00014683,-0.00000751,0.00000148,-0.0
 0001684,-0.00001680,0.00015511,-0.00004810,-0.00009854,-0.00003983,-0.
 00001744,-0.00011078,-0.00011398,-0.00000230,0.00002980,0.00001659,-0.
 00008936,0.00004435,-0.00004437,0.00002491,0.00000509,0.00002781,-0.00
 003202,0.00001895,-0.00010761,-0.00000141,0.00000359,0.00007682,-0.000
 04670,-0.00000309,0.00000657,0.00005459,0.00000741,-0.00218215,-0.0000
 9789,-0.00324061,0.00094929,0.00061390,0.00122551,0.00032440,-0.000220
 17,-0.00060101,0.00023481,0.00006504,0.00004095,-0.00001021,-0.0001222
 0,-0.00000301,0.00005734,-0.00002044,0.00001187,-0.00060101,-0.0002196
 7,0.00055126,-0.00011106,0.00010857,-0.00042723,0.00004966,0.00006546,
 -0.00006811,-0.00009832,0.00002439,-0.00001458,0.00082897,0.00269898,0
 .00578606,0.00066260,0.00080181,-0.00101869,0.00006210,-0.00044521,-0.
 00056375,0.00024506,0.00013783,0.00016407,0.00221858,-0.00010492,0.005
 59744,0.00099440,-0.00409546,0.00492963,0.00149473,0.01400984,-0.03744
 118,-0.00355941,0.00022465,0.00233174,0.00083293,0.00034420,-0.0003219
 0,-0.00065013,0.00007174,-0.00003086,0.00001165,0.00001399,0.00001190,
 -0.00000202,0.00000169,0.00000523,-0.00000468,-0.00000473,-0.00000916,
 -0.00000058,-0.00000177,0.00000250,0.00000149,-0.00000094,0.00000531,0
 .00000248,-0.00000167,-0.00000172,0.00000071,0.00000142,0.00001048,0.0
 0000449,0.00001590,-0.00001985,-0.00000447,0.00001447,0.00004428,-0.00
 002642,0.00002316,0.00001059,0.00021162,-0.00030763,0.00021642,-0.0007
 7572,-0.00062397,-0.00319598,-0.00240697,-0.01268818,0.02590509,0.0052
 1174,0.00187413,-0.00328187,-0.00064431,-0.00270230,0.00053707,0.00148
 647,0.00032310,0.00034734,-0.00562658,0.00022861,0.00020442,0.00135148
 ,0.00212082,0.00043633,-0.00106463,-0.00246147,-0.00084084,0.00096520,
 0.00061456,-0.00004000,0.00015149,-0.00132153,-0.00033699,-0.00172876,
 0.00049680,0.00027097,0.00033763,-0.00067731,0.00003276,-0.00007975,0.
 00010394,-0.00005736,-0.00000790,0.00010659,-0.00005715,0.00089589,-0.
 00008479,0.00279323,-0.00012200,-0.00011461,0.00020562,0.00129178,0.00
 139340,0.00018694,0.00027398,-0.00003005,0.00016880,0.00015580,0.00005
 679,-0.00002778,-0.00038408,0.00019636,-0.00008774,-0.00006655,-0.0020
 3020,0.00021609,-0.00100427,0.00038062,0.00007637,-0.00006327,0.000025
 78,-0.00005158,-0.00003071,0.00006295,-0.00002210,-0.00505729,0.005961
 39,-0.00568509,0.00120440,0.00122466,-0.00109982,0.00011373,-0.0005431
 0,0.00013335,0.00063410,0.00043686,0.00000200,-0.00099925,0.00049173,0
 .00083675,0.00308305,-0.00128509,-0.00092587,-0.00764026,-0.00831877,-
 0.00366859,0.00574890,0.00446165,0.01370747,-0.00058310,0.00037776,0.0
 0033114,-0.00002350,-0.00012907,0.00011435,-0.00004244,-0.00004203,0.0
 0009455,0.00002981,0.00000126,0.00002865,0.00000968,-0.00003246,0.0000
 3134,0.00001039,0.00001374,0.00000890,0.00001070,0.00000835,0.00000977
 ,-0.00001822,0.00001794,0.00001472,-0.00001181,0.00000224,-0.00000074,
 -0.00000206,-0.00002087,0.00000036,0.00001002,-0.00000571,-0.00001299,
 0.00001253,-0.00001518,0.00001069,0.00004047,0.00000713,0.00002885,0.0
 0013884,0.00001692,0.00002628,0.00009314,0.00028684,0.00048448,0.00194
 212,0.00175185,0.00044356,-0.00118779,0.00000672,-0.00111940,0.0003791
 6,0.00021898,0.00016440,-0.00000353,-0.00206678,0.00019638,-0.00022110
 ,0.00089845,0.00063011,0.00024838,-0.00045163,-0.00099485,-0.00032441,
 0.00047972,0.00031993,-0.00002190,0.00010220,-0.00070431,-0.00018906,-
 0.00102887,0.00016415,0.00016407,0.00009239,-0.00023964,0.00001747,0.0
 0008891,0.00002813,-0.00003631,-0.00001628,0.00020315,-0.00003134,0.00
 069693,-0.00005902,-0.00133555,-0.00038888,0.00001794,-0.00023251,0.00
 064865,0.00064809,0.00021904,0.00065667,0.00019247,0.00042640,-0.00005
 673,-0.00008651,-0.00003054,-0.00005533,-0.00000274,-0.00005074,-0.000
 47395,-0.00077859,0.00038411,0.00026710,0.00008961,-0.00000509,0.00007
 625,0.00010500,0.00001843,-0.00007033,0.00013767,-0.00002262,0.0000716
 4,0.00069209,0.00128620,0.00074485,-0.00021660,0.00000293,-0.00019979,
 0.00006850,-0.00007546,0.00000825,-0.00027763,0.00001253,-0.00067818,0
 .00085373,0.00013436,0.00208218,-0.00123927,-0.00080104,-0.00637074,-0
 .00456657,-0.00334087,0.00413123,0.00008934,0.00592356,-0.00002892,0.0
 0001229,-0.00010523,0.00005933,0.00016487,0.00001457,0.00000179,-0.000
 00180,0.00001296,0.00001546,0.00000537,0.00001645,0.00000039,-0.000015
 12,0.00001838,-0.00000055,0.00000876,0.00000780,0.00000850,-0.00000013
 ,0.00000588,-0.00000613,0.00000983,0.00000283,-0.00001029,-0.00000015,
 0.00000012,0.00000605,0.00000725,0.00000026,-0.00000805,0.00000029,0.0
 0000001,0.00000733,0.00000945,0.00000801,0.00001401,0.00000912,-0.0000
 0726,0.00012575,0.00003153,0.00007738,0.00006029,0.00017431,0.00037902
 ,-0.00141469,0.00485956,-0.00220145,-0.00239129,0.00079564,-0.00053705
 ,0.00231266,0.00002240,-0.00047455,-0.00028205,-0.00001726,0.00167169,
 0.00024659,-0.00090936,-0.00095554,-0.00085001,-0.00041947,0.00026685,
 0.00034319,0.00011696,-0.00043237,-0.00027177,0.00006886,-0.00023732,0
 .00069316,0.00016772,0.00132421,-0.00011472,0.00007986,-0.00028635,0.0
 0066440,-0.00015415,0.00009012,0.00009059,0.00008034,-0.00027302,-0.00
 027749,0.00004785,0.00106006,-0.00034452,-0.01174983,-0.00049659,0.000
 16201,0.00016319,0.00005147,-0.00049442,0.00006304,0.00144562,-0.00009
 472,-0.00006300,0.00002043,0.00019851,0.00005651,0.00028180,-0.0002688
 6,0.00017085,-0.00084588,-0.00477296,0.00045077,-0.00253799,0.00167649
 ,-0.00005500,-0.00023335,-0.00059413,0.00000240,0.00016949,-0.00000021
 ,-0.00000427,-0.01035804,0.01350273,-0.00806138,0.00255584,0.00298262,
 -0.00212833,0.00039457,-0.00109696,0.00022250,0.00155682,0.00085570,0.
 00002340,-0.00358715,0.00104767,0.00118533,0.00787876,-0.00265254,-0.0
 0141680,-0.01626978,-0.01820593,-0.00428762,0.02542744,0.01008974,0.03
 401967,0.00069269,-0.00088825,-0.00094002,-0.00008302,-0.00003811,-0.0
 0001320,-0.00010468,-0.00000635,0.00006244,-0.00002611,-0.00000767,-0.
 00001614,0.00000814,0.00001902,-0.00001995,0.00000942,-0.00000020,-0.0
 0002858,-0.00003515,-0.00000557,0.00000214,-0.00000206,-0.00003593,-0.
 00002591,0.00001517,-0.00002827,0.00001108,-0.00001653,-0.00003858,-0.
 00000913,0.00002864,0.00001350,-0.00003148,0.00003021,-0.00004973,-0.0
 0001419,0.00009719,0.00004596,0.00002640,0.00023218,-0.00004650,-0.000
 00592,0.00003255,0.00046485,0.00070609,-0.00517839,-0.00160184,-0.0081
 0678,-0.00130031,0.00197500,-0.00042601,0.00053033,0.00069151,0.000452
 93,-0.00029314,0.00022962,-0.00000658,-0.00003254,0.00088690,-0.000134
 67,0.00015305,-0.00020649,-0.00016885,-0.00582510,0.00165925,0.0011975
 3,0.00031381,-0.00156188,0.00070362,-0.00065070,-0.00008666,-0.0000043
 3,-0.00008973,0.00029560,0.00016853,0.00013070,-0.00006351,0.00001555,
 -0.00000229,0.00006513,-0.00001017,0.00003473,-0.00005318,-0.00000985,
 0.00598159,0.00781427,0.00837530,-0.10503812,-0.07928724,-0.07624139,-
 0.01720303,-0.02152977,-0.01922151,0.00013037,-0.00012192,-0.00001098,
 0.00000721,0.00002371,-0.00000835,-0.00004880,-0.00003583,0.00000032,-
 0.00006233,-0.00003253,-0.00001814,0.00003418,-0.00002380,0.00003523,0
 .00001355,0.00000170,0.00000183,-0.00000825,0.00002284,0.00000170,-0.0
 0018906,0.00005850,-0.00024902,0.00007952,0.00003255,-0.00000800,-0.00
 000353,0.00007121,0.00002241,-0.00005278,-0.00002137,-0.00000473,0.000
 02186,-0.00013077,-0.00005208,-0.00018816,0.00015967,0.00001208,-0.000
 48613,-0.00016760,0.00099018,0.00062519,0.00017913,-0.00008591,0.00066
 077,-0.00064918,0.00028551,0.00160551,0.00313663,0.00248040,0.00114853
 ,0.00027865,0.00036189,-0.00006196,0.00003404,-0.00000446,-0.00008994,
 -0.00010211,-0.00017180,-0.00000392,0.00000503,-0.00000086,0.00000612,
 -0.00000954,-0.00000377,0.00000030,-0.00000374,0.00000108,-0.00000280,
 -0.00000313,-0.00000181,0.00000511,-0.00000247,0.,0.00000146,-0.000006
 27,-0.00000500,0.00000101,0.00000147,0.00000078,-0.00000652,0.00000349
 ,-0.00000082,-0.00000173,0.00000612,0.00004808,-0.00185461,0.00087503,
 0.00161265,-0.00000260,0.00000426,-0.00016899,0.12201315,0.00432601,-0
 .00467779,0.00149018,-0.00120486,-0.00066175,-0.00092290,0.00031226,-0
 .00088236,-0.00009237,0.00013356,0.00005706,-0.00005567,-0.00020543,0.
 00030346,0.00011219,0.00107778,0.00108036,-0.00037358,-0.00037248,0.00
 000222,-0.00035093,0.00020546,0.00015555,0.00008641,0.00010795,-0.0001
 6797,-0.00010229,-0.00014990,0.00019521,0.00001829,-0.00011321,-0.0000
 9454,0.00002835,0.00002290,-0.00006098,0.00000151,-0.01425300,-0.01892
 615,-0.01721030,-0.07938798,-0.15595274,-0.10165418,0.00012201,0.00040
 203,0.00208873,-0.00028376,0.00015816,-0.00004531,-0.00004076,-0.00008
 682,0.00006698,0.00011207,-0.00001052,-0.00000397,-0.00007239,0.000071
 16,-0.00000986,0.00005081,0.00001067,-0.00000659,0.00001459,-0.0000432
 5,0.00001132,-0.00000929,0.00000369,-0.00000572,0.00031911,0.00000152,
 -0.00001765,0.00002511,-0.00014111,0.00009326,0.00007928,0.00008787,-0
 .00001507,-0.00009124,0.00000933,0.00000092,-0.00007460,0.00011839,-0.
 00008036,0.00023465,0.00028258,0.00002233,-0.00021228,-0.00016711,0.00
 072495,-0.00066977,-0.00021719,0.00014055,-0.00073295,0.00128349,0.000
 30016,0.00511772,0.00661060,0.00570026,0.00007938,0.00076714,0.0005088
 9,-0.00001128,0.00000425,-0.00000768,-0.00000994,-0.00000557,0.0000614
 3,-0.00001308,-0.00001465,-0.00000481,-0.00001967,-0.00000540,0.000012
 78,0.00000575,-0.00001502,-0.00001103,0.00000675,-0.00001036,0.0000023
 8,0.00000558,-0.00000246,-0.00000057,0.00000629,-0.00000118,0.00000049
 ,0.00001010,-0.00000563,-0.00001060,-0.00001588,0.00002679,-0.00002337
 ,0.00003056,0.00000250,0.00000352,0.00001405,0.00077467,-0.00038008,-0
 .00006368,-0.00003455,0.00005022,0.08558769,0.16977640,-0.00032588,0.0
 0109159,0.00061326,0.00010286,0.00032147,0.00055011,-0.00010394,-0.000
 08063,-0.00006607,-0.00011362,0.00047054,0.00012271,-0.00001364,0.0000
 4466,0.00006245,0.00091634,-0.00097575,0.00007641,0.00053899,0.0004586
 7,0.00000112,0.00001335,-0.00030308,-0.00009711,-0.00005569,0.00026156
 ,0.00006552,0.00013971,0.00005761,-0.00007142,-0.00015045,0.00006131,0
 .00001708,0.00004271,-0.00018305,-0.00002334,0.00285584,0.00462994,0.0
 0193462,-0.07684704,-0.10237615,-0.14001996,0.00699184,0.00654466,0.00
 433560,-0.00002354,-0.00003632,0.00000820,0.00004289,0.00000537,-0.000
 01685,-0.00004056,-0.00000769,0.00000125,-0.00007103,-0.00001009,0.000
 00652,-0.00002848,0.00000398,0.00000420,0.00003561,0.00000447,0.000002
 60,-0.00002935,0.00004110,-0.00001164,0.00016942,0.00009211,-0.0001483
 7,-0.00001601,0.00001333,0.00002194,0.00006302,-0.00002336,0.00001996,
 -0.00000251,0.00006825,-0.00001406,-0.00011677,-0.00004032,-0.00005471
 ,-0.00003799,0.00052168,0.00000562,-0.00003871,-0.00116370,0.00062761,
 -0.00011675,-0.00012017,0.00012303,0.00060899,-0.00004205,0.00087820,-
 0.01465878,-0.01965381,-0.01872006,-0.00080088,0.00021613,0.00035110,-
 0.00000993,-0.00000180,0.00001788,0.00002248,0.00001693,0.00001335,-0.
 00000309,-0.00000482,-0.00000616,0.00000216,-0.00000185,0.00000642,0.0
 0000099,-0.00000178,0.00000333,0.00000109,-0.00000096,0.00000126,0.000
 00293,0.00000191,0.00000052,0.00000220,0.00000280,-0.00000034,0.000000
 59,-0.00000332,0.00000030,-0.00004765,0.00005107,-0.00002345,0.0000430
 3,-0.00001059,0.00001115,0.00076944,0.00033750,-0.00097615,0.00003534,
 -0.00013613,-0.00006768,0.08025045,0.10985879,0.15043404\\0.00000067,0
 .00000009,-0.00000207,0.00000102,-0.00000459,-0.00000223,0.00000205,0.
 00000282,0.00000531,-0.00000293,-0.00000153,0.00000989,0.00000339,0.00
 000007,0.00000618,-0.00000353,-0.00000137,-0.00000650,0.00000119,0.000
 00270,-0.00000125,0.00000018,-0.00000120,-0.00000371,-0.00000268,0.000
 00119,0.00000065,-0.00000164,-0.00000117,-0.00000212,0.00000203,-0.000
 00035,0.00000478,-0.00000057,0.00000264,-0.00000405,0.00000345,0.00000
 339,-0.00000625,0.00000636,0.00000452,-0.00000032,0.00000266,-0.000001
 80,0.00000401,0.00000036,0.00000230,0.00000739,0.00000036,-0.00000023,
 -0.00000101,-0.00000198,-0.00000025,-0.00000058,0.00000159,-0.00000746
 ,-0.00000521,-0.00000418,0.00000363,0.00000023,0.00000103,-0.00000206,
 0.00000152,-0.00000115,-0.00000190,0.00000216,-0.00000128,0.00000481,-
 0.00000654,-0.00000094,-0.00000286,0.00000255,0.00000189,0.00000077,0.
 00000157,0.00000388,-0.00000212,0.00000055,0.00000177,-0.00000078,0.00
 000148,-0.00000126,0.00000064,-0.00000403,-0.00001010,-0.00001257,0.00
 001445,0.00000923,0.00001804,-0.00000880,-0.00000112,0.00000051,-0.000
 00456,0.00000609,-0.00000103,-0.00000496,0.00000078,0.00000039,-0.0000
 0009,-0.00000034,0.00000016,0.00000013,0.00000010,0.00000039,0.0000009
 9,0.00000030,0.00000018,0.00000120,0.00000001,-0.00000040,0.00000134,0
 .00000015,0.00000022,0.00000121,-0.00000029,0.00000030,0.00000087,0.00
 000025,0.00000044,-0.00000066,-0.00000087,0.00000008,-0.00000054,-0.00
 000044,0.00000108,-0.00000020,0.00000015,-0.00000027,-0.00000055,-0.00
 000213,0.00000044,-0.00000111,-0.00000716,0.00000577,-0.00000179,-0.00
 000372,-0.00001327,0.00000288,-0.00000266,-0.00000037,-0.00000221\\\@


 FIREWORKS ENDED
 AND SPECTATORS GONE AWAY....
 AH, HOW VAST AND DARK
                     SHIKI
 Job cpu time:       2 days 11 hours 46 minutes 41.0 seconds.
 Elapsed time:       0 days  2 hours 59 minutes 49.2 seconds.
 File lengths (MBytes):  RWF=   4619 Int=      0 D2E=      0 Chk=     69 Scr=      1
 Normal termination of Gaussian 16 at Sat Jul  6 10:18:27 2019.
