 Entering Gaussian System, Link 0=/share/apps/gaussian16/g16/g16
 Initial command:
 /share/apps/gaussian16/g16/l1.exe "/home/amen01//scratch/704/Gau-30323.inp" -scrdir="/home/amen01//scratch/704/"
 Entering Link 1 = /share/apps/gaussian16/g16/l1.exe PID=     30324.
  
 Copyright (c) 1988-2017, Gaussian, Inc.  All Rights Reserved.
  
 This is part of the Gaussian(R) 16 program.  It is based on
 the Gaussian(R) 09 system (copyright 2009, Gaussian, Inc.),
 the Gaussian(R) 03 system (copyright 2003, Gaussian, Inc.),
 the Gaussian(R) 98 system (copyright 1998, Gaussian, Inc.),
 the Gaussian(R) 94 system (copyright 1995, Gaussian, Inc.),
 the Gaussian 92(TM) system (copyright 1992, Gaussian, Inc.),
 the Gaussian 90(TM) system (copyright 1990, Gaussian, Inc.),
 the Gaussian 88(TM) system (copyright 1988, Gaussian, Inc.),
 the Gaussian 86(TM) system (copyright 1986, Carnegie Mellon
 University), and the Gaussian 82(TM) system (copyright 1983,
 Carnegie Mellon University). Gaussian is a federally registered
 trademark of Gaussian, Inc.
  
 This software contains proprietary and confidential information,
 including trade secrets, belonging to Gaussian, Inc.
  
 This software is provided under written license and may be
 used, copied, transmitted, or stored only in accord with that
 written license.
  
 The following legend is applicable only to US Government
 contracts under FAR:
  
                    RESTRICTED RIGHTS LEGEND
  
 Use, reproduction and disclosure by the US Government is
 subject to restrictions as set forth in subparagraphs (a)
 and (c) of the Commercial Computer Software - Restricted
 Rights clause in FAR 52.227-19.
  
 Gaussian, Inc.
 340 Quinnipiac St., Bldg. 40, Wallingford CT 06492
  
  
 ---------------------------------------------------------------
 Warning -- This program may not be used in any manner that
 competes with the business of Gaussian, Inc. or will provide
 assistance to any competitor of Gaussian, Inc.  The licensee
 of this program is prohibited from giving any competitor of
 Gaussian, Inc. access to this program.  By using this program,
 the user acknowledges that Gaussian, Inc. is engaged in the
 business of creating and licensing software in the field of
 computational chemistry and represents and warrants to the
 licensee that it is not a competitor of Gaussian, Inc. and that
 it will not use this program in any manner prohibited above.
 ---------------------------------------------------------------
  

 Cite this work as:
 Gaussian 16, Revision B.01,
 M. J. Frisch, G. W. Trucks, H. B. Schlegel, G. E. Scuseria, 
 M. A. Robb, J. R. Cheeseman, G. Scalmani, V. Barone, 
 G. A. Petersson, H. Nakatsuji, X. Li, M. Caricato, A. V. Marenich, 
 J. Bloino, B. G. Janesko, R. Gomperts, B. Mennucci, H. P. Hratchian, 
 J. V. Ortiz, A. F. Izmaylov, J. L. Sonnenberg, D. Williams-Young, 
 F. Ding, F. Lipparini, F. Egidi, J. Goings, B. Peng, A. Petrone, 
 T. Henderson, D. Ranasinghe, V. G. Zakrzewski, J. Gao, N. Rega, 
 G. Zheng, W. Liang, M. Hada, M. Ehara, K. Toyota, R. Fukuda, 
 J. Hasegawa, M. Ishida, T. Nakajima, Y. Honda, O. Kitao, H. Nakai, 
 T. Vreven, K. Throssell, J. A. Montgomery, Jr., J. E. Peralta, 
 F. Ogliaro, M. J. Bearpark, J. J. Heyd, E. N. Brothers, K. N. Kudin, 
 V. N. Staroverov, T. A. Keith, R. Kobayashi, J. Normand, 
 K. Raghavachari, A. P. Rendell, J. C. Burant, S. S. Iyengar, 
 J. Tomasi, M. Cossi, J. M. Millam, M. Klene, C. Adamo, R. Cammi, 
 J. W. Ochterski, R. L. Martin, K. Morokuma, O. Farkas, 
 J. B. Foresman, and D. J. Fox, Gaussian, Inc., Wallingford CT, 2016.
 
 ******************************************
 Gaussian 16:  ES64L-G16RevB.01 20-Dec-2017
                23-Jul-2019 
 ******************************************
 %nprocshared=20
 Will use up to   20 processors via shared memory.
 %mem=100GB
 %chk=7-memb2-habsTSguess-3a.chk
 ---------------------------------------------------------------
 # opt=(ts,calcfc,noeigen) b3lyp/6-311+g(d,p) freq int=grid=fine
 ---------------------------------------------------------------
 1/5=1,10=4,11=1,18=20,26=3,38=1/1,3;
 2/9=110,12=2,17=6,18=5,40=1/2;
 3/5=4,6=6,7=111,11=2,25=1,30=1,71=2,74=-5,75=-4,140=1/1,2,3;
 4//1;
 5/5=2,38=5/2;
 8/6=4,10=90,11=11/1;
 11/6=1,8=1,9=11,15=111,16=1/1,2,10;
 10/6=1,13=1/2;
 6/7=2,8=2,9=2,10=2,28=1/1;
 7/10=1,18=20,25=1/1,2,3,16;
 1/5=1,10=4,11=1,18=20,26=3/3(2);
 2/9=110/2;
 99//99;
 2/9=110/2;
 3/5=4,6=6,7=111,11=2,25=1,30=1,71=1,74=-5,75=-4/1,2,3;
 4/5=5,16=3,69=1/1;
 5/5=2,38=5/2;
 7//1,2,3,16;
 1/5=1,11=1,18=20,26=3/3(-5);
 2/9=110/2;
 6/7=2,8=2,9=2,10=2,19=2,28=1/1;
 99/9=1/99;
 ----------------------
 7-memb2-habsTSguess-3a
 ----------------------
 Symbolic Z-matrix:
 Charge =  0 Multiplicity = 2
 C                     0.69241  -0.93101   0.17698 
 C                     0.556     0.51839   0.31639 
 C                     1.86681   1.02983   0.35323 
 C                     2.07173  -1.20958   0.09477 
 C                     2.78722  -0.01931   0.22016 
 C                     2.67407  -2.4143   -0.22388 
 C                     4.10763  -2.33479  -0.38193 
 C                     4.80445  -1.1359   -0.27645 
 C                     4.13921   0.11438   0.00628 
 C                     2.26698   2.3585    0.25857 
 C                     3.70266   2.54925   0.13231 
 C                     4.58915   1.495     0.01219 
 C                    -0.21103  -1.94981   0.04327 
 C                     0.36739  -3.22883  -0.29257 
 C                     1.73174  -3.46661  -0.42715 
 C                    -0.52237   1.37754   0.15668 
 C                    -0.14738   2.79528   0.11763 
 C                     1.19043   3.25628   0.18051 
 C                    -1.90879   0.93126  -0.03815 
 C                    -2.84354   1.98218  -0.26603 
 C                    -2.45641   3.36167  -0.27072 
 C                    -1.17911   3.76057  -0.07379 
 C                    -2.41176  -0.4579    0.01602 
 C                    -3.83963  -0.62736  -0.1025 
 C                    -4.70451   0.4677   -0.38463 
 C                    -4.22414   1.7277   -0.47146 
 C                    -4.48861  -1.8733    0.08072 
 C                    -3.78238  -3.00544   0.39705 
 C                    -2.39996  -2.91835   0.45995 
 C                    -1.67213  -1.72107   0.27789 
 H                    -0.29171  -4.06213  -0.496 
 H                     2.05962  -4.45987  -0.71589 
 H                     4.6654   -3.23427  -0.62195 
 H                     5.87704  -1.14799  -0.44175 
 H                     5.64386   1.71718  -0.11474 
 H                     4.0946    3.56058   0.09437 
 H                     1.3561    4.32625   0.10317 
 H                    -0.91837   4.81316  -0.08481 
 H                    -3.23725   4.09562  -0.43693 
 H                    -4.88422   2.56512  -0.66763 
 H                    -5.76335   0.26601  -0.50034 
 H                    -5.56782  -1.90192  -0.01705 
 H                    -4.28151  -3.9513    0.57168 
 H                    -1.84046  -3.81149   0.69699 
 H                    -1.44862  -1.36675   2.08295 
 
 Add virtual bond connecting atoms H45        and C30        Dist= 3.50D+00.

 GradGradGradGradGradGradGradGradGradGradGradGradGradGradGradGradGradGrad
 Berny optimization.
 Initialization pass.
                           ----------------------------
                           !    Initial Parameters    !
                           ! (Angstroms and Degrees)  !
 --------------------------                            --------------------------
 ! Name  Definition              Value          Derivative Info.                !
 --------------------------------------------------------------------------------
 ! R1    R(1,2)                  1.4625         calculate D2E/DX2 analytically  !
 ! R2    R(1,4)                  1.4096         calculate D2E/DX2 analytically  !
 ! R3    R(1,13)                 1.3682         calculate D2E/DX2 analytically  !
 ! R4    R(2,3)                  1.4075         calculate D2E/DX2 analytically  !
 ! R5    R(2,16)                 1.388          calculate D2E/DX2 analytically  !
 ! R6    R(3,5)                  1.402          calculate D2E/DX2 analytically  !
 ! R7    R(3,10)                 1.3908         calculate D2E/DX2 analytically  !
 ! R8    R(4,5)                  1.3944         calculate D2E/DX2 analytically  !
 ! R9    R(4,6)                  1.3841         calculate D2E/DX2 analytically  !
 ! R10   R(5,9)                  1.3753         calculate D2E/DX2 analytically  !
 ! R11   R(6,7)                  1.4444         calculate D2E/DX2 analytically  !
 ! R12   R(6,15)                 1.4271         calculate D2E/DX2 analytically  !
 ! R13   R(7,8)                  1.3907         calculate D2E/DX2 analytically  !
 ! R14   R(7,33)                 1.0853         calculate D2E/DX2 analytically  !
 ! R15   R(8,9)                  1.4442         calculate D2E/DX2 analytically  !
 ! R16   R(8,34)                 1.0853         calculate D2E/DX2 analytically  !
 ! R17   R(9,12)                 1.4521         calculate D2E/DX2 analytically  !
 ! R18   R(10,11)                1.4538         calculate D2E/DX2 analytically  !
 ! R19   R(10,18)                1.404          calculate D2E/DX2 analytically  !
 ! R20   R(11,12)                1.3827         calculate D2E/DX2 analytically  !
 ! R21   R(11,36)                1.0853         calculate D2E/DX2 analytically  !
 ! R22   R(12,35)                1.0853         calculate D2E/DX2 analytically  !
 ! R23   R(13,14)                1.4433         calculate D2E/DX2 analytically  !
 ! R24   R(13,30)                1.4974         calculate D2E/DX2 analytically  !
 ! R25   R(14,15)                1.3914         calculate D2E/DX2 analytically  !
 ! R26   R(14,31)                1.0817         calculate D2E/DX2 analytically  !
 ! R27   R(15,32)                1.0851         calculate D2E/DX2 analytically  !
 ! R28   R(16,17)                1.467          calculate D2E/DX2 analytically  !
 ! R29   R(16,19)                1.4695         calculate D2E/DX2 analytically  !
 ! R30   R(17,18)                1.4164         calculate D2E/DX2 analytically  !
 ! R31   R(17,22)                1.4258         calculate D2E/DX2 analytically  !
 ! R32   R(18,37)                1.0855         calculate D2E/DX2 analytically  !
 ! R33   R(19,20)                1.4248         calculate D2E/DX2 analytically  !
 ! R34   R(19,23)                1.4784         calculate D2E/DX2 analytically  !
 ! R35   R(20,21)                1.4328         calculate D2E/DX2 analytically  !
 ! R36   R(20,26)                1.4188         calculate D2E/DX2 analytically  !
 ! R37   R(21,22)                1.3526         calculate D2E/DX2 analytically  !
 ! R38   R(21,39)                1.0844         calculate D2E/DX2 analytically  !
 ! R39   R(22,38)                1.0845         calculate D2E/DX2 analytically  !
 ! R40   R(23,24)                1.4428         calculate D2E/DX2 analytically  !
 ! R41   R(23,30)                1.487          calculate D2E/DX2 analytically  !
 ! R42   R(24,25)                1.4237         calculate D2E/DX2 analytically  !
 ! R43   R(24,27)                1.4167         calculate D2E/DX2 analytically  !
 ! R44   R(25,26)                1.3513         calculate D2E/DX2 analytically  !
 ! R45   R(25,41)                1.0841         calculate D2E/DX2 analytically  !
 ! R46   R(26,40)                1.0842         calculate D2E/DX2 analytically  !
 ! R47   R(27,28)                1.3713         calculate D2E/DX2 analytically  !
 ! R48   R(27,42)                1.084          calculate D2E/DX2 analytically  !
 ! R49   R(28,29)                1.3866         calculate D2E/DX2 analytically  !
 ! R50   R(28,43)                1.0836         calculate D2E/DX2 analytically  !
 ! R51   R(29,30)                1.4129         calculate D2E/DX2 analytically  !
 ! R52   R(29,44)                1.0803         calculate D2E/DX2 analytically  !
 ! R53   R(30,45)                1.853          calculate D2E/DX2 analytically  !
 ! A1    A(2,1,4)              107.0194         calculate D2E/DX2 analytically  !
 ! A2    A(2,1,13)             133.2902         calculate D2E/DX2 analytically  !
 ! A3    A(4,1,13)             119.5557         calculate D2E/DX2 analytically  !
 ! A4    A(1,2,3)              106.0065         calculate D2E/DX2 analytically  !
 ! A5    A(1,2,16)             132.451          calculate D2E/DX2 analytically  !
 ! A6    A(3,2,16)             120.1079         calculate D2E/DX2 analytically  !
 ! A7    A(2,3,5)              109.6936         calculate D2E/DX2 analytically  !
 ! A8    A(2,3,10)             127.8272         calculate D2E/DX2 analytically  !
 ! A9    A(5,3,10)             121.3006         calculate D2E/DX2 analytically  !
 ! A10   A(1,4,5)              109.1571         calculate D2E/DX2 analytically  !
 ! A11   A(1,4,6)              127.6829         calculate D2E/DX2 analytically  !
 ! A12   A(5,4,6)              122.7098         calculate D2E/DX2 analytically  !
 ! A13   A(3,5,4)              108.0864         calculate D2E/DX2 analytically  !
 ! A14   A(3,5,9)              125.9715         calculate D2E/DX2 analytically  !
 ! A15   A(4,5,9)              124.9877         calculate D2E/DX2 analytically  !
 ! A16   A(4,6,7)              114.1536         calculate D2E/DX2 analytically  !
 ! A17   A(4,6,15)             112.7833         calculate D2E/DX2 analytically  !
 ! A18   A(7,6,15)             132.8701         calculate D2E/DX2 analytically  !
 ! A19   A(6,7,8)              122.4422         calculate D2E/DX2 analytically  !
 ! A20   A(6,7,33)             119.2523         calculate D2E/DX2 analytically  !
 ! A21   A(8,7,33)             118.2785         calculate D2E/DX2 analytically  !
 ! A22   A(7,8,9)              122.0307         calculate D2E/DX2 analytically  !
 ! A23   A(7,8,34)             118.2965         calculate D2E/DX2 analytically  !
 ! A24   A(9,8,34)             119.6491         calculate D2E/DX2 analytically  !
 ! A25   A(5,9,8)              113.5222         calculate D2E/DX2 analytically  !
 ! A26   A(5,9,12)             113.353          calculate D2E/DX2 analytically  !
 ! A27   A(8,9,12)             132.9362         calculate D2E/DX2 analytically  !
 ! A28   A(3,10,11)            114.544          calculate D2E/DX2 analytically  !
 ! A29   A(3,10,18)            113.2065         calculate D2E/DX2 analytically  !
 ! A30   A(11,10,18)           131.9523         calculate D2E/DX2 analytically  !
 ! A31   A(10,11,12)           122.7285         calculate D2E/DX2 analytically  !
 ! A32   A(10,11,36)           118.813          calculate D2E/DX2 analytically  !
 ! A33   A(12,11,36)           118.4206         calculate D2E/DX2 analytically  !
 ! A34   A(9,12,11)            121.7785         calculate D2E/DX2 analytically  !
 ! A35   A(9,12,35)            119.6886         calculate D2E/DX2 analytically  !
 ! A36   A(11,12,35)           118.4989         calculate D2E/DX2 analytically  !
 ! A37   A(1,13,14)            114.7066         calculate D2E/DX2 analytically  !
 ! A38   A(1,13,30)            121.0131         calculate D2E/DX2 analytically  !
 ! A39   A(14,13,30)           124.2537         calculate D2E/DX2 analytically  !
 ! A40   A(13,14,15)           124.5329         calculate D2E/DX2 analytically  !
 ! A41   A(13,14,31)           118.8301         calculate D2E/DX2 analytically  !
 ! A42   A(15,14,31)           116.5897         calculate D2E/DX2 analytically  !
 ! A43   A(6,15,14)            120.5087         calculate D2E/DX2 analytically  !
 ! A44   A(6,15,32)            120.8863         calculate D2E/DX2 analytically  !
 ! A45   A(14,15,32)           118.5838         calculate D2E/DX2 analytically  !
 ! A46   A(2,16,17)            113.7452         calculate D2E/DX2 analytically  !
 ! A47   A(2,16,19)            124.0759         calculate D2E/DX2 analytically  !
 ! A48   A(17,16,19)           122.0829         calculate D2E/DX2 analytically  !
 ! A49   A(16,17,18)           123.6963         calculate D2E/DX2 analytically  !
 ! A50   A(16,17,22)           118.2218         calculate D2E/DX2 analytically  !
 ! A51   A(18,17,22)           117.9739         calculate D2E/DX2 analytically  !
 ! A52   A(10,18,17)           121.2373         calculate D2E/DX2 analytically  !
 ! A53   A(10,18,37)           121.1488         calculate D2E/DX2 analytically  !
 ! A54   A(17,18,37)           117.5046         calculate D2E/DX2 analytically  !
 ! A55   A(16,19,20)           114.5931         calculate D2E/DX2 analytically  !
 ! A56   A(16,19,23)           126.9776         calculate D2E/DX2 analytically  !
 ! A57   A(20,19,23)           118.4065         calculate D2E/DX2 analytically  !
 ! A58   A(19,20,21)           122.2359         calculate D2E/DX2 analytically  !
 ! A59   A(19,20,26)           121.954          calculate D2E/DX2 analytically  !
 ! A60   A(21,20,26)           115.794          calculate D2E/DX2 analytically  !
 ! A61   A(20,21,22)           122.5911         calculate D2E/DX2 analytically  !
 ! A62   A(20,21,39)           117.2305         calculate D2E/DX2 analytically  !
 ! A63   A(22,21,39)           120.178          calculate D2E/DX2 analytically  !
 ! A64   A(17,22,21)           120.2143         calculate D2E/DX2 analytically  !
 ! A65   A(17,22,38)           118.9798         calculate D2E/DX2 analytically  !
 ! A66   A(21,22,38)           120.7863         calculate D2E/DX2 analytically  !
 ! A67   A(19,23,24)           116.3631         calculate D2E/DX2 analytically  !
 ! A68   A(19,23,30)           129.4513         calculate D2E/DX2 analytically  !
 ! A69   A(24,23,30)           114.0129         calculate D2E/DX2 analytically  !
 ! A70   A(23,24,25)           121.8142         calculate D2E/DX2 analytically  !
 ! A71   A(23,24,27)           123.0952         calculate D2E/DX2 analytically  !
 ! A72   A(25,24,27)           115.0751         calculate D2E/DX2 analytically  !
 ! A73   A(24,25,26)           120.9315         calculate D2E/DX2 analytically  !
 ! A74   A(24,25,41)           118.1257         calculate D2E/DX2 analytically  !
 ! A75   A(26,25,41)           120.9211         calculate D2E/DX2 analytically  !
 ! A76   A(20,26,25)           120.2565         calculate D2E/DX2 analytically  !
 ! A77   A(20,26,40)           118.6912         calculate D2E/DX2 analytically  !
 ! A78   A(25,26,40)           121.0255         calculate D2E/DX2 analytically  !
 ! A79   A(24,27,28)           121.3306         calculate D2E/DX2 analytically  !
 ! A80   A(24,27,42)           117.8793         calculate D2E/DX2 analytically  !
 ! A81   A(28,27,42)           120.7785         calculate D2E/DX2 analytically  !
 ! A82   A(27,28,29)           118.1676         calculate D2E/DX2 analytically  !
 ! A83   A(27,28,43)           121.371          calculate D2E/DX2 analytically  !
 ! A84   A(29,28,43)           120.4461         calculate D2E/DX2 analytically  !
 ! A85   A(28,29,30)           124.1217         calculate D2E/DX2 analytically  !
 ! A86   A(28,29,44)           118.3207         calculate D2E/DX2 analytically  !
 ! A87   A(30,29,44)           117.5212         calculate D2E/DX2 analytically  !
 ! A88   A(13,30,23)           125.9803         calculate D2E/DX2 analytically  !
 ! A89   A(13,30,29)           113.1651         calculate D2E/DX2 analytically  !
 ! A90   A(13,30,45)            93.6774         calculate D2E/DX2 analytically  !
 ! A91   A(23,30,29)           119.0971         calculate D2E/DX2 analytically  !
 ! A92   A(23,30,45)            93.9628         calculate D2E/DX2 analytically  !
 ! A93   A(29,30,45)            95.6611         calculate D2E/DX2 analytically  !
 ! D1    D(4,1,2,3)             -1.825          calculate D2E/DX2 analytically  !
 ! D2    D(4,1,2,16)           164.0306         calculate D2E/DX2 analytically  !
 ! D3    D(13,1,2,3)          -177.4332         calculate D2E/DX2 analytically  !
 ! D4    D(13,1,2,16)          -11.5776         calculate D2E/DX2 analytically  !
 ! D5    D(2,1,4,5)              1.9394         calculate D2E/DX2 analytically  !
 ! D6    D(2,1,4,6)           -170.445          calculate D2E/DX2 analytically  !
 ! D7    D(13,1,4,5)           178.2655         calculate D2E/DX2 analytically  !
 ! D8    D(13,1,4,6)             5.8811         calculate D2E/DX2 analytically  !
 ! D9    D(2,1,13,14)          169.9895         calculate D2E/DX2 analytically  !
 ! D10   D(2,1,13,30)          -11.8079         calculate D2E/DX2 analytically  !
 ! D11   D(4,1,13,14)           -5.1818         calculate D2E/DX2 analytically  !
 ! D12   D(4,1,13,30)          173.0208         calculate D2E/DX2 analytically  !
 ! D13   D(1,2,3,5)              1.0668         calculate D2E/DX2 analytically  !
 ! D14   D(1,2,3,10)           168.6244         calculate D2E/DX2 analytically  !
 ! D15   D(16,2,3,5)          -166.903          calculate D2E/DX2 analytically  !
 ! D16   D(16,2,3,10)            0.6546         calculate D2E/DX2 analytically  !
 ! D17   D(1,2,16,17)         -167.5912         calculate D2E/DX2 analytically  !
 ! D18   D(1,2,16,19)            8.9026         calculate D2E/DX2 analytically  !
 ! D19   D(3,2,16,17)           -3.3462         calculate D2E/DX2 analytically  !
 ! D20   D(3,2,16,19)          173.1475         calculate D2E/DX2 analytically  !
 ! D21   D(2,3,5,4)              0.1057         calculate D2E/DX2 analytically  !
 ! D22   D(2,3,5,9)            169.3292         calculate D2E/DX2 analytically  !
 ! D23   D(10,3,5,4)          -168.4058         calculate D2E/DX2 analytically  !
 ! D24   D(10,3,5,9)             0.8177         calculate D2E/DX2 analytically  !
 ! D25   D(2,3,10,11)         -171.3554         calculate D2E/DX2 analytically  !
 ! D26   D(2,3,10,18)            3.1452         calculate D2E/DX2 analytically  !
 ! D27   D(5,3,10,11)           -5.0891         calculate D2E/DX2 analytically  !
 ! D28   D(5,3,10,18)          169.4115         calculate D2E/DX2 analytically  !
 ! D29   D(1,4,5,3)             -1.2992         calculate D2E/DX2 analytically  !
 ! D30   D(1,4,5,9)           -170.6554         calculate D2E/DX2 analytically  !
 ! D31   D(6,4,5,3)            171.5403         calculate D2E/DX2 analytically  !
 ! D32   D(6,4,5,9)              2.1841         calculate D2E/DX2 analytically  !
 ! D33   D(1,4,6,7)            172.8755         calculate D2E/DX2 analytically  !
 ! D34   D(1,4,6,15)            -2.738          calculate D2E/DX2 analytically  !
 ! D35   D(5,4,6,7)              1.4319         calculate D2E/DX2 analytically  !
 ! D36   D(5,4,6,15)          -174.1817         calculate D2E/DX2 analytically  !
 ! D37   D(3,5,9,8)           -171.7665         calculate D2E/DX2 analytically  !
 ! D38   D(3,5,9,12)             3.8999         calculate D2E/DX2 analytically  !
 ! D39   D(4,5,9,8)             -4.2963         calculate D2E/DX2 analytically  !
 ! D40   D(4,5,9,12)           171.3701         calculate D2E/DX2 analytically  !
 ! D41   D(4,6,7,8)             -2.5694         calculate D2E/DX2 analytically  !
 ! D42   D(4,6,7,33)           179.3512         calculate D2E/DX2 analytically  !
 ! D43   D(15,6,7,8)           171.9093         calculate D2E/DX2 analytically  !
 ! D44   D(15,6,7,33)           -6.1701         calculate D2E/DX2 analytically  !
 ! D45   D(4,6,15,14)           -0.3725         calculate D2E/DX2 analytically  !
 ! D46   D(4,6,15,32)          177.9286         calculate D2E/DX2 analytically  !
 ! D47   D(7,6,15,14)         -174.9084         calculate D2E/DX2 analytically  !
 ! D48   D(7,6,15,32)            3.3927         calculate D2E/DX2 analytically  !
 ! D49   D(6,7,8,9)              0.3282         calculate D2E/DX2 analytically  !
 ! D50   D(6,7,8,34)          -177.8939         calculate D2E/DX2 analytically  !
 ! D51   D(33,7,8,9)           178.4254         calculate D2E/DX2 analytically  !
 ! D52   D(33,7,8,34)            0.2034         calculate D2E/DX2 analytically  !
 ! D53   D(7,8,9,5)              3.0075         calculate D2E/DX2 analytically  !
 ! D54   D(7,8,9,12)          -171.5551         calculate D2E/DX2 analytically  !
 ! D55   D(34,8,9,5)          -178.7938         calculate D2E/DX2 analytically  !
 ! D56   D(34,8,9,12)            6.6436         calculate D2E/DX2 analytically  !
 ! D57   D(5,9,12,11)           -4.1342         calculate D2E/DX2 analytically  !
 ! D58   D(5,9,12,35)          178.0162         calculate D2E/DX2 analytically  !
 ! D59   D(8,9,12,11)          170.4354         calculate D2E/DX2 analytically  !
 ! D60   D(8,9,12,35)           -7.4141         calculate D2E/DX2 analytically  !
 ! D61   D(3,10,11,12)           4.7527         calculate D2E/DX2 analytically  !
 ! D62   D(3,10,11,36)        -177.5245         calculate D2E/DX2 analytically  !
 ! D63   D(18,10,11,12)       -168.4454         calculate D2E/DX2 analytically  !
 ! D64   D(18,10,11,36)          9.2774         calculate D2E/DX2 analytically  !
 ! D65   D(3,10,18,17)          -3.9274         calculate D2E/DX2 analytically  !
 ! D66   D(3,10,18,37)         179.9681         calculate D2E/DX2 analytically  !
 ! D67   D(11,10,18,17)        169.341          calculate D2E/DX2 analytically  !
 ! D68   D(11,10,18,37)         -6.7635         calculate D2E/DX2 analytically  !
 ! D69   D(10,11,12,9)          -0.0937         calculate D2E/DX2 analytically  !
 ! D70   D(10,11,12,35)        177.7805         calculate D2E/DX2 analytically  !
 ! D71   D(36,11,12,9)        -177.825          calculate D2E/DX2 analytically  !
 ! D72   D(36,11,12,35)          0.0492         calculate D2E/DX2 analytically  !
 ! D73   D(1,13,14,15)           2.4864         calculate D2E/DX2 analytically  !
 ! D74   D(1,13,14,31)        -174.9226         calculate D2E/DX2 analytically  !
 ! D75   D(30,13,14,15)       -175.6499         calculate D2E/DX2 analytically  !
 ! D76   D(30,13,14,31)          6.9411         calculate D2E/DX2 analytically  !
 ! D77   D(1,13,30,23)          31.7744         calculate D2E/DX2 analytically  !
 ! D78   D(1,13,30,29)        -163.5842         calculate D2E/DX2 analytically  !
 ! D79   D(1,13,30,45)         -65.8246         calculate D2E/DX2 analytically  !
 ! D80   D(14,13,30,23)       -150.2012         calculate D2E/DX2 analytically  !
 ! D81   D(14,13,30,29)         14.4403         calculate D2E/DX2 analytically  !
 ! D82   D(14,13,30,45)        112.1998         calculate D2E/DX2 analytically  !
 ! D83   D(13,14,15,6)           0.3788         calculate D2E/DX2 analytically  !
 ! D84   D(13,14,15,32)       -177.9608         calculate D2E/DX2 analytically  !
 ! D85   D(31,14,15,6)         177.8405         calculate D2E/DX2 analytically  !
 ! D86   D(31,14,15,32)         -0.4991         calculate D2E/DX2 analytically  !
 ! D87   D(2,16,17,18)           2.4687         calculate D2E/DX2 analytically  !
 ! D88   D(2,16,17,22)         178.6086         calculate D2E/DX2 analytically  !
 ! D89   D(19,16,17,18)       -174.1037         calculate D2E/DX2 analytically  !
 ! D90   D(19,16,17,22)          2.0362         calculate D2E/DX2 analytically  !
 ! D91   D(2,16,19,20)        -176.1722         calculate D2E/DX2 analytically  !
 ! D92   D(2,16,19,23)           5.6057         calculate D2E/DX2 analytically  !
 ! D93   D(17,16,19,20)          0.0395         calculate D2E/DX2 analytically  !
 ! D94   D(17,16,19,23)       -178.1826         calculate D2E/DX2 analytically  !
 ! D95   D(16,17,18,10)          1.3497         calculate D2E/DX2 analytically  !
 ! D96   D(16,17,18,37)        177.5912         calculate D2E/DX2 analytically  !
 ! D97   D(22,17,18,10)       -174.7991         calculate D2E/DX2 analytically  !
 ! D98   D(22,17,18,37)          1.4424         calculate D2E/DX2 analytically  !
 ! D99   D(16,17,22,21)         -2.8087         calculate D2E/DX2 analytically  !
 ! D100  D(16,17,22,38)        178.7902         calculate D2E/DX2 analytically  !
 ! D101  D(18,17,22,21)        173.5551         calculate D2E/DX2 analytically  !
 ! D102  D(18,17,22,38)         -4.846          calculate D2E/DX2 analytically  !
 ! D103  D(16,19,20,21)         -1.4204         calculate D2E/DX2 analytically  !
 ! D104  D(16,19,20,26)       -179.8997         calculate D2E/DX2 analytically  !
 ! D105  D(23,19,20,21)        176.965          calculate D2E/DX2 analytically  !
 ! D106  D(23,19,20,26)         -1.5143         calculate D2E/DX2 analytically  !
 ! D107  D(16,19,23,24)        175.1429         calculate D2E/DX2 analytically  !
 ! D108  D(16,19,23,30)          0.2543         calculate D2E/DX2 analytically  !
 ! D109  D(20,19,23,24)         -3.0192         calculate D2E/DX2 analytically  !
 ! D110  D(20,19,23,30)       -177.9078         calculate D2E/DX2 analytically  !
 ! D111  D(19,20,21,22)          0.706          calculate D2E/DX2 analytically  !
 ! D112  D(19,20,21,39)       -179.0488         calculate D2E/DX2 analytically  !
 ! D113  D(26,20,21,22)        179.2729         calculate D2E/DX2 analytically  !
 ! D114  D(26,20,21,39)         -0.4819         calculate D2E/DX2 analytically  !
 ! D115  D(19,20,26,25)          3.5434         calculate D2E/DX2 analytically  !
 ! D116  D(19,20,26,40)       -178.3191         calculate D2E/DX2 analytically  !
 ! D117  D(21,20,26,25)       -175.0279         calculate D2E/DX2 analytically  !
 ! D118  D(21,20,26,40)          3.1095         calculate D2E/DX2 analytically  !
 ! D119  D(20,21,22,17)          1.5342         calculate D2E/DX2 analytically  !
 ! D120  D(20,21,22,38)        179.906          calculate D2E/DX2 analytically  !
 ! D121  D(39,21,22,17)       -178.718          calculate D2E/DX2 analytically  !
 ! D122  D(39,21,22,38)         -0.3462         calculate D2E/DX2 analytically  !
 ! D123  D(19,23,24,25)          5.8395         calculate D2E/DX2 analytically  !
 ! D124  D(19,23,24,27)       -172.6556         calculate D2E/DX2 analytically  !
 ! D125  D(30,23,24,25)       -178.4797         calculate D2E/DX2 analytically  !
 ! D126  D(30,23,24,27)          3.0253         calculate D2E/DX2 analytically  !
 ! D127  D(19,23,30,13)        -24.743          calculate D2E/DX2 analytically  !
 ! D128  D(19,23,30,29)        171.4381         calculate D2E/DX2 analytically  !
 ! D129  D(19,23,30,45)         72.7118         calculate D2E/DX2 analytically  !
 ! D130  D(24,23,30,13)        160.2705         calculate D2E/DX2 analytically  !
 ! D131  D(24,23,30,29)         -3.5485         calculate D2E/DX2 analytically  !
 ! D132  D(24,23,30,45)       -102.2748         calculate D2E/DX2 analytically  !
 ! D133  D(23,24,25,26)         -4.0991         calculate D2E/DX2 analytically  !
 ! D134  D(23,24,25,41)        177.5821         calculate D2E/DX2 analytically  !
 ! D135  D(27,24,25,26)        174.509          calculate D2E/DX2 analytically  !
 ! D136  D(27,24,25,41)         -3.8098         calculate D2E/DX2 analytically  !
 ! D137  D(23,24,27,28)          0.5281         calculate D2E/DX2 analytically  !
 ! D138  D(23,24,27,42)        179.301          calculate D2E/DX2 analytically  !
 ! D139  D(25,24,27,28)       -178.06           calculate D2E/DX2 analytically  !
 ! D140  D(25,24,27,42)          0.713          calculate D2E/DX2 analytically  !
 ! D141  D(24,25,26,20)         -0.7372         calculate D2E/DX2 analytically  !
 ! D142  D(24,25,26,40)       -178.8305         calculate D2E/DX2 analytically  !
 ! D143  D(41,25,26,20)        177.5345         calculate D2E/DX2 analytically  !
 ! D144  D(41,25,26,40)         -0.5588         calculate D2E/DX2 analytically  !
 ! D145  D(24,27,28,29)         -3.6008         calculate D2E/DX2 analytically  !
 ! D146  D(24,27,28,43)        177.8133         calculate D2E/DX2 analytically  !
 ! D147  D(42,27,28,29)        177.6617         calculate D2E/DX2 analytically  !
 ! D148  D(42,27,28,43)         -0.9242         calculate D2E/DX2 analytically  !
 ! D149  D(27,28,29,30)          2.9933         calculate D2E/DX2 analytically  !
 ! D150  D(27,28,29,44)       -179.2602         calculate D2E/DX2 analytically  !
 ! D151  D(43,28,29,30)       -178.4072         calculate D2E/DX2 analytically  !
 ! D152  D(43,28,29,44)         -0.6607         calculate D2E/DX2 analytically  !
 ! D153  D(28,29,30,13)       -165.0851         calculate D2E/DX2 analytically  !
 ! D154  D(28,29,30,23)          0.7162         calculate D2E/DX2 analytically  !
 ! D155  D(28,29,30,45)         98.4543         calculate D2E/DX2 analytically  !
 ! D156  D(44,29,30,13)         17.1517         calculate D2E/DX2 analytically  !
 ! D157  D(44,29,30,23)       -177.047          calculate D2E/DX2 analytically  !
 ! D158  D(44,29,30,45)        -79.3089         calculate D2E/DX2 analytically  !
 --------------------------------------------------------------------------------
 Trust Radius=3.00D-01 FncErr=1.00D-07 GrdErr=1.00D-06 EigMax=2.50D+02 EigMin=1.00D-04
 Number of steps in this run=    270 maximum allowed number of steps=    270.
 Search for a saddle point of order  1.
 GradGradGradGradGradGradGradGradGradGradGradGradGradGradGradGradGradGrad

                          Input orientation:                          
 ---------------------------------------------------------------------
 Center     Atomic      Atomic             Coordinates (Angstroms)
 Number     Number       Type             X           Y           Z
 ---------------------------------------------------------------------
      1          6           0        0.692407   -0.931005    0.176983
      2          6           0        0.555997    0.518389    0.316386
      3          6           0        1.866808    1.029834    0.353225
      4          6           0        2.071732   -1.209576    0.094771
      5          6           0        2.787215   -0.019312    0.220162
      6          6           0        2.674069   -2.414301   -0.223877
      7          6           0        4.107627   -2.334787   -0.381925
      8          6           0        4.804451   -1.135902   -0.276453
      9          6           0        4.139211    0.114384    0.006279
     10          6           0        2.266977    2.358495    0.258568
     11          6           0        3.702662    2.549254    0.132308
     12          6           0        4.589154    1.494999    0.012189
     13          6           0       -0.211029   -1.949813    0.043271
     14          6           0        0.367386   -3.228832   -0.292570
     15          6           0        1.731737   -3.466609   -0.427148
     16          6           0       -0.522366    1.377539    0.156677
     17          6           0       -0.147380    2.795275    0.117627
     18          6           0        1.190426    3.256283    0.180512
     19          6           0       -1.908793    0.931256   -0.038150
     20          6           0       -2.843543    1.982184   -0.266032
     21          6           0       -2.456412    3.361666   -0.270719
     22          6           0       -1.179114    3.760566   -0.073790
     23          6           0       -2.411761   -0.457896    0.016023
     24          6           0       -3.839625   -0.627363   -0.102503
     25          6           0       -4.704506    0.467703   -0.384632
     26          6           0       -4.224135    1.727703   -0.471459
     27          6           0       -4.488606   -1.873301    0.080717
     28          6           0       -3.782384   -3.005439    0.397051
     29          6           0       -2.399961   -2.918350    0.459945
     30          6           0       -1.672131   -1.721072    0.277886
     31          1           0       -0.291708   -4.062131   -0.496003
     32          1           0        2.059620   -4.459874   -0.715889
     33          1           0        4.665398   -3.234268   -0.621950
     34          1           0        5.877041   -1.147991   -0.441747
     35          1           0        5.643855    1.717177   -0.114735
     36          1           0        4.094603    3.560578    0.094372
     37          1           0        1.356098    4.326246    0.103165
     38          1           0       -0.918368    4.813160   -0.084814
     39          1           0       -3.237254    4.095617   -0.436928
     40          1           0       -4.884217    2.565123   -0.667632
     41          1           0       -5.763351    0.266005   -0.500339
     42          1           0       -5.567818   -1.901918   -0.017051
     43          1           0       -4.281510   -3.951304    0.571683
     44          1           0       -1.840457   -3.811494    0.696991
     45          1           0       -1.448617   -1.366752    2.082954
 ---------------------------------------------------------------------
                    Distance matrix (angstroms):
                    1          2          3          4          5
     1  C    0.000000
     2  C    1.462458   0.000000
     3  C    2.292415   1.407536   0.000000
     4  C    1.409574   2.309205   2.263570   0.000000
     5  C    2.285010   2.297110   1.401985   1.394406   0.000000
     6  C    2.507557   3.657702   3.584241   1.384091   2.438431
     7  C    3.734529   4.608940   4.108819   2.374491   2.732658
     8  C    4.142040   4.597553   3.703600   2.758802   2.358525
     9  C    3.605889   3.619228   2.474315   2.456658   1.375323
    10  C    3.647840   2.513322   1.390840   3.577161   2.434356
    11  C    4.601721   3.749640   2.393283   4.097578   2.728240
    12  C    4.593179   4.160848   2.782778   3.695803   2.362917
    13  C    1.368227   2.599027   3.645789   2.400333   3.570377
    14  C    2.367726   3.801061   4.560872   2.670622   4.052096
    15  C    2.806148   4.220831   4.565657   2.341409   3.662909
    16  C    2.608728   1.387989   2.422330   3.664197   3.592847
    17  C    3.820200   2.391329   2.688725   4.578626   4.067464
    18  C    4.216802   2.813721   2.333323   4.552796   3.644287
    19  C    3.206328   2.524152   3.797111   4.521660   4.798208
    20  C    4.602812   3.746836   4.845395   5.871749   5.995649
    21  C    5.342520   4.183721   4.951462   6.444682   6.258402
    22  C    5.057303   3.697913   4.113013   5.941273   5.486862
    23  C    3.144137   3.138620   4.542378   4.546750   5.221435
    24  C    4.550783   4.561766   5.959645   5.943234   6.662496
    25  C    5.603433   5.307249   6.636459   6.997178   7.531855
    26  C    5.626863   4.993276   6.186009   6.970378   7.258749
    27  C    5.266886   5.587821   6.992406   6.593843   7.509613
    28  C    4.937151   5.589760   6.942530   6.130838   7.218578
    29  C    3.686780   4.535358   5.814195   4.800969   5.947160
    30  C    2.495081   3.159307   4.482996   3.783077   4.773373
    31  H    3.350424   4.728609   5.595399   3.751257   5.131963
    32  H    3.888368   5.301846   5.596166   3.349889   4.596105
    33  H    4.661327   5.643588   5.192845   3.367517   3.817416
    34  H    5.225930   5.627175   4.632156   3.843439   3.355453
    35  H    5.622704   5.244927   3.867494   4.622752   3.359753
    36  H    5.635253   4.671824   3.381529   5.181349   3.813227
    37  H    5.299493   3.896845   3.345099   5.581893   4.576643
    38  H    5.971479   4.558483   4.718330   6.726537   6.097306
    39  H    6.409840   5.268092   6.006231   7.524168   7.325205
    40  H    6.635889   5.895196   6.998257   7.950776   8.143608
    41  H    6.600637   6.376903   7.715655   7.995000   8.585610
    42  H    6.338039   6.593192   8.000371   7.671673   8.567792
    43  H    5.832482   6.591267   7.915887   6.936008   8.096357
    44  H    3.870791   4.963440   6.107409   4.736863   6.001946
    45  H    2.899411   3.270015   4.441580   4.046039   4.819529
                    6          7          8          9         10
     6  C    0.000000
     7  C    1.444434   0.000000
     8  C    2.485075   1.390688   0.000000
     9  C    2.931529   2.479947   1.444194   0.000000
    10  C    4.814360   5.081842   4.351532   2.933418   0.000000
    11  C    5.081511   4.927706   3.867997   2.476903   1.453796
    12  C    4.359576   3.880007   2.655430   1.452096   2.489746
    13  C    2.934435   4.356580   5.091141   4.815274   4.974775
    14  C    2.447236   3.846648   4.905931   5.049066   5.927092
    15  C    1.427116   2.632094   3.859595   4.336739   5.889697
    16  C    4.973939   5.958883   5.905926   4.832027   2.958562
    17  C    5.934381   6.683724   6.334831   5.057117   2.457592
    18  C    5.875394   6.331387   5.706249   4.312449   1.403951
    19  C    5.677136   6.854380   7.028341   6.103082   4.422907
    20  C    7.055133   8.183424   8.259200   7.233373   5.151139
    21  C    7.725660   8.691867   8.540977   7.356889   4.857664
    22  C    7.280009   8.074522   7.734308   6.448693   3.735212
    23  C    5.454424   6.795844   7.253892   6.575928   5.466395
    24  C    6.755449   8.133400   8.660769   8.013978   6.807078
    25  C    7.923078   9.247034   9.643833   8.859400   7.251922
    26  C    8.050013   9.269849   9.473839   8.530920   6.562421
    27  C    7.189532   8.621034   9.329107   8.854132   7.973558
    28  C    6.513124   7.956686   8.813768   8.522773   8.086145
    29  C    5.144653   6.587715   7.458080   7.222469   7.047408
    30  C    4.429649   5.849581   6.526548   6.100358   5.670962
    31  H    3.403708   4.727672   5.880634   6.109714   6.952747
    32  H    2.191801   2.970162   4.333127   5.076422   6.890771
    33  H    2.190023   1.085259   2.131160   3.447465   6.148718
    34  H    3.451092   2.131405   1.085319   2.194168   5.081186
    35  H    5.089268   4.341636   2.978391   2.201714   3.457448
    36  H    6.149665   5.914588   4.764275   3.447608   2.193668
    37  H    6.875971   7.223267   6.470727   5.049246   2.173912
    38  H    8.072245   8.743114   8.257041   6.904049   4.036052
    39  H    8.795917   9.762192   9.594976   8.393979   5.813593
    40  H    9.061968  10.244218  10.378868   9.374568   7.213884
    41  H    8.857230  10.208543  10.662735   9.916672   8.333104
    42  H    8.260388   9.691994  10.403751   9.914254   8.922505
    43  H    7.167662   8.596518   9.549896   9.367926   9.099137
    44  H    4.814675   6.222895   7.229190   7.186517   7.425092
    45  H    4.838943   6.155044   6.687373   6.142488   5.568796
                   11         12         13         14         15
    11  C    0.000000
    12  C    1.382661   0.000000
    13  C    5.963766   5.908422   0.000000
    14  C    6.685123   6.342774   1.443344   0.000000
    15  C    6.355167   5.742421   2.509244   1.391439   0.000000
    16  C    4.384561   5.114911   3.343810   4.712975   5.374719
    17  C    3.857922   4.912900   4.746097   6.059960   6.560416
    18  C    2.610276   3.831684   5.393176   6.554229   6.771968
    19  C    5.842551   6.522550   3.345085   4.748900   5.722412
    20  C    6.582784   7.453841   4.741983   6.120903   7.116775
    21  C    6.225483   7.294140   5.775131   7.170005   8.011891
    22  C    5.034033   6.197830   5.793041   7.161788   7.799357
    23  C    6.814884   7.268193   2.658906   3.936620   5.139779
    24  C    8.187315   8.692634   3.864820   4.950021   6.261532
    25  C    8.676437   9.358682   5.120432   6.276698   7.543596
    26  C    7.992096   8.829617   5.467549   6.758795   7.902864
    27  C    9.309056   9.682761   4.278425   5.055439   6.441213
    28  C    9.324731   9.512345   3.740867   4.212609   5.594418
    29  C    8.200247   8.278035   2.429631   2.884595   4.261273
    30  C    6.866242   7.043962   1.497393   2.599690   3.889767
    31  H    7.749850   7.413688   2.181562   1.081747   2.110383
    32  H    7.248924   6.510695   3.468801   2.135022   1.085106
    33  H    5.911421   4.772202   5.086441   4.310618   2.949288
    34  H    4.327480   2.974913   6.159769   5.891388   4.749710
    35  H    2.126408   1.085296   6.910242   7.234346   6.501839
    36  H    1.085280   2.125547   6.993246   7.754867   7.432125
    37  H    2.943622   4.298475   6.469033   7.629768   7.819906
    38  H    5.150372   6.430583   6.801069   8.146776   8.700277
    39  H    7.132861   8.259394   6.777599   8.164669   9.048659
    40  H    8.624074   9.557828   6.536721   7.828788   8.956030
    41  H    9.758016  10.437791   6.002803   7.059957   8.373417
    42  H   10.284797  10.709994   5.357343   6.087960   7.476626
    43  H   10.305208  10.424199   4.566618   4.783423   6.114878
    44  H    8.456013   8.364671   2.558953   2.488633   3.760745
    45  H    6.758387   6.995167   2.455991   3.522545   4.563405
                   16         17         18         19         20
    16  C    0.000000
    17  C    1.467009   0.000000
    18  C    2.542421   1.416407   0.000000
    19  C    1.469458   2.569321   3.880557   0.000000
    20  C    2.435599   2.842113   4.253897   1.424829   0.000000
    21  C    2.803562   2.408992   3.676159   2.502173   1.432782
    22  C    2.482590   1.425799   2.435917   2.922105   2.443343
    23  C    2.637881   3.964955   5.176672   1.478396   2.493989
    24  C    3.884715   5.039403   6.361149   2.482246   2.797974
    25  C    4.314060   5.141717   6.545670   2.854986   2.402270
    26  C    3.770976   4.255193   5.663841   2.486542   1.418801
    27  C    5.128820   6.375203   7.653365   3.812493   4.206095
    28  C    5.467723   6.851249   7.999056   4.381474   5.118348
    29  C    4.698084   6.151164   7.148080   3.912648   4.973836
    30  C    3.307271   4.769480   5.742628   2.681554   3.922009
    31  H    5.483539   6.886319   7.497571   5.268634   6.564944
    32  H    6.442314   7.629075   7.816528   6.728441   8.108236
    33  H    6.984835   7.750174   7.405851   7.804640   9.149986
    34  H    6.905709   7.221904   6.461362   8.068790   9.267009
    35  H    6.181529   5.895311   4.721128   7.593815   8.492882
    36  H    5.107440   4.310528   2.921346   6.555277   7.124541
    37  H    3.496622   2.145816   1.085473   4.712265   4.823683
    38  H    3.466789   2.169623   2.634630   4.006532   3.428347
    39  H    3.887278   3.397903   4.548633   3.454998   2.156574
    40  H    4.595170   4.806998   6.172385   3.452378   2.159965
    41  H    5.397694   6.190171   7.600022   3.938756   3.394915
    42  H    6.020100   7.173765   8.504113   4.627719   4.750780
    43  H    6.534521   7.925498   9.057837   5.462698   6.162450
    44  H    5.381019   6.844821   7.707560   4.799873   5.958213
    45  H    3.478450   4.783116   5.652989   3.160963   4.321912
                   21         22         23         24         25
    21  C    0.000000
    22  C    1.352550   0.000000
    23  C    3.830570   4.395783   0.000000
    24  C    4.225391   5.131575   1.442762   0.000000
    25  C    3.666323   4.834042   2.504783   1.423652   0.000000
    26  C    2.415570   3.682774   2.880830   2.414604   1.351257
    27  C    5.626562   6.535829   2.514128   1.416724   2.396552
    28  C    6.537901   7.264814   2.917836   2.430653   3.677506
    29  C    6.322631   6.810526   2.500208   2.763621   4.182056
    30  C    5.172068   5.514988   1.487023   2.457423   3.798021
    31  H    7.736243   7.884183   4.212755   4.953805   6.324918
    32  H    9.042633   8.858743   6.045227   7.061549   8.375210
    33  H    9.713387   9.131621   7.628986   8.910735  10.077500
    34  H    9.476956   8.603409   8.330067   9.736516  10.704339
    35  H    8.266983   7.122501   8.345118   9.769003  10.427013
    36  H    6.564195   5.280186   7.647682   8.973828   9.339146
    37  H    3.950372   2.603576   6.090351   7.181649   7.201196
    38  H    2.122964   1.084465   5.479455   6.175220   5.771285
    39  H    1.084446   2.116617   4.649848   4.772969   3.913735
    40  H    2.585780   3.938213   3.964728   3.406246   2.124042
    41  H    4.535602   5.780063   3.467538   2.158032   1.084077
    42  H    6.119682   7.164333   3.470877   2.149056   2.548632
    43  H    7.584204   8.337532   4.001077   3.420288   4.541045
    44  H    7.264302   7.639867   3.469398   3.843768   5.261579
    45  H    5.377115   5.568983   2.454765   3.322625   4.478283
                   26         27         28         29         30
    26  C    0.000000
    27  C    3.652680   0.000000
    28  C    4.832400   1.371333   0.000000
    29  C    5.077493   2.366089   1.386591   0.000000
    30  C    4.355260   2.827469   2.473250   1.412925   0.000000
    31  H    6.999054   4.768389   3.754859   2.582015   2.825779
    32  H    8.822212   7.085493   6.122338   4.862792   4.734405
    33  H   10.181729   9.281259   8.512094   7.154691   6.577518
    34  H   10.502583  10.404118   9.872091   8.512108   7.605018
    35  H    9.874441  10.751581  10.555520   9.301685   8.093167
    36  H    8.537037  10.158676  10.259197   9.180932   7.822067
    37  H    6.182364   8.520296   8.957900   8.168197   6.765409
    38  H    4.538462   7.581739   8.340580   7.891016   6.587556
    39  H    2.565569   6.120606   7.170613   7.120476   6.065842
    40  H    1.084188   4.518423   5.777434   6.124658   5.439023
    41  H    2.122871   2.557192   3.928344   4.730185   4.614346
    42  H    3.896937   1.084009   2.139396   3.360949   3.911019
    43  H    5.774301   2.145235   1.083644   2.149350   3.445158
    44  H    6.142467   3.339024   2.123857   1.080251   2.138655
    45  H    4.878953   3.675198   3.312708   2.438579   1.853044
                   31         32         33         34         35
    31  H    0.000000
    32  H    2.394847   0.000000
    33  H    5.027337   2.881148   0.000000
    34  H    6.822655   5.061267   2.419319   0.000000
    35  H    8.293170   7.166874   5.072618   2.893182   0.000000
    36  H    8.814418   8.314164   6.856300   5.063115   2.417030
    37  H    8.569664   8.852214   8.284843   7.120613   5.023901
    38  H    8.906883   9.759909   9.809590   9.046563   7.255948
    39  H    8.673441  10.066336  10.780230  10.515028   9.199722
    40  H    8.064806   9.877742  11.172742  11.386084  10.576626
    41  H    6.976508   9.142170  11.001159  11.726105  11.505605
    42  H    5.721298   8.075229  10.337300  11.477525  11.781723
    43  H    4.131677   6.490486   9.054616  10.586867  11.450577
    44  H    1.970958   4.198479   6.663253   8.243224   9.340237
    45  H    3.905704   5.450564   6.941563   7.751596   8.040125
                   36         37         38         39         40
    36  H    0.000000
    37  H    2.843543   0.000000
    38  H    5.170198   2.333585   0.000000
    39  H    7.370527   4.630742   2.452771   0.000000
    40  H    9.065914   6.529718   4.595792   2.260116   0.000000
    41  H   10.410915   8.218049   6.657563   4.588149   2.467146
    42  H   11.100165   9.313704   8.167879   6.448120   4.565635
    43  H   11.261237  10.025965   9.410502   8.176840   6.660554
    44  H    9.483435   8.763185   8.708968   8.109206   7.196382
    45  H    7.678563   6.648024   6.570517   6.275867   5.901586
                   41         42         43         44         45
    41  H    0.000000
    42  H    2.229729   0.000000
    43  H    4.596823   2.490217   0.000000
    44  H    5.783485   4.248477   2.448262   0.000000
    45  H    5.287365   4.654486   4.121787   2.837463   0.000000
 Stoichiometry    C30H15(2)
 Framework group  C1[X(C30H15)]
 Deg. of freedom   129
 Full point group                 C1      NOp   1
 Largest Abelian subgroup         C1      NOp   1
 Largest concise Abelian subgroup C1      NOp   1
                         Standard orientation:                         
 ---------------------------------------------------------------------
 Center     Atomic      Atomic             Coordinates (Angstroms)
 Number     Number       Type             X           Y           Z
 ---------------------------------------------------------------------
      1          6           0        0.692407   -0.931005    0.176983
      2          6           0        0.555997    0.518389    0.316386
      3          6           0        1.866808    1.029834    0.353225
      4          6           0        2.071732   -1.209576    0.094771
      5          6           0        2.787215   -0.019312    0.220162
      6          6           0        2.674069   -2.414301   -0.223877
      7          6           0        4.107627   -2.334787   -0.381925
      8          6           0        4.804451   -1.135902   -0.276453
      9          6           0        4.139211    0.114384    0.006279
     10          6           0        2.266977    2.358495    0.258568
     11          6           0        3.702662    2.549254    0.132308
     12          6           0        4.589154    1.494999    0.012189
     13          6           0       -0.211029   -1.949813    0.043271
     14          6           0        0.367386   -3.228832   -0.292570
     15          6           0        1.731737   -3.466609   -0.427148
     16          6           0       -0.522366    1.377539    0.156677
     17          6           0       -0.147380    2.795275    0.117627
     18          6           0        1.190426    3.256283    0.180512
     19          6           0       -1.908793    0.931256   -0.038150
     20          6           0       -2.843543    1.982184   -0.266032
     21          6           0       -2.456412    3.361666   -0.270719
     22          6           0       -1.179114    3.760566   -0.073790
     23          6           0       -2.411761   -0.457896    0.016023
     24          6           0       -3.839625   -0.627363   -0.102503
     25          6           0       -4.704506    0.467703   -0.384632
     26          6           0       -4.224135    1.727703   -0.471459
     27          6           0       -4.488606   -1.873301    0.080717
     28          6           0       -3.782384   -3.005439    0.397051
     29          6           0       -2.399961   -2.918350    0.459945
     30          6           0       -1.672131   -1.721072    0.277886
     31          1           0       -0.291708   -4.062131   -0.496003
     32          1           0        2.059620   -4.459874   -0.715889
     33          1           0        4.665398   -3.234268   -0.621950
     34          1           0        5.877041   -1.147991   -0.441747
     35          1           0        5.643855    1.717177   -0.114735
     36          1           0        4.094603    3.560578    0.094372
     37          1           0        1.356098    4.326246    0.103165
     38          1           0       -0.918368    4.813160   -0.084814
     39          1           0       -3.237254    4.095617   -0.436928
     40          1           0       -4.884217    2.565123   -0.667632
     41          1           0       -5.763351    0.266005   -0.500339
     42          1           0       -5.567818   -1.901918   -0.017051
     43          1           0       -4.281510   -3.951304    0.571683
     44          1           0       -1.840457   -3.811494    0.696991
     45          1           0       -1.448617   -1.366752    2.082954
 ---------------------------------------------------------------------
 Rotational constants (GHZ):           0.2777749           0.1557707           0.1010570
 Standard basis: 6-311+G(d,p) (5D, 7F)
 There are   780 symmetry adapted cartesian basis functions of A   symmetry.
 There are   750 symmetry adapted basis functions of A   symmetry.
   750 basis functions,  1200 primitive gaussians,   780 cartesian basis functions
    98 alpha electrons       97 beta electrons
       nuclear repulsion energy      2599.7988075020 Hartrees.
 NAtoms=   45 NActive=   45 NUniq=   45 SFac= 1.00D+00 NAtFMM=   60 NAOKFM=F Big=F
 Integral buffers will be    131072 words long.
 Raffenetti 2 integral format.
 Two-electron integral symmetry is turned on.
 One-electron integrals computed using PRISM.
 NBasis=   750 RedAO= T EigKep=  1.32D-06  NBF=   750
 NBsUse=   726 1.00D-06 EigRej=  9.51D-07 NBFU=   726
 ExpMin= 4.38D-02 ExpMax= 4.56D+03 ExpMxC= 6.82D+02 IAcc=2 IRadAn=         4 AccDes= 0.00D+00
 Harris functional with IExCor=  402 and IRadAn=       4 diagonalized for initial guess.
 HarFok:  IExCor=  402 AccDes= 0.00D+00 IRadAn=         4 IDoV= 1 UseB2=F ITyADJ=14
 ICtDFT=  3500011 ScaDFX=  1.000000  1.000000  1.000000  1.000000
 FoFCou: FMM=F IPFlag=           0 FMFlag=      100000 FMFlg1=           0
         NFxFlg=           0 DoJE=T BraDBF=F KetDBF=T FulRan=T
         wScrn=  0.000000 ICntrl=       500 IOpCl=  0 I1Cent=   200000004 NGrid=           0
         NMat0=    1 NMatS0=      1 NMatT0=    0 NMatD0=    1 NMtDS0=    0 NMtDT0=    0
 Petite list used in FoFCou.
 Initial guess <Sx>= 0.0000 <Sy>= 0.0000 <Sz>= 0.5000 <S**2>= 0.7500 S= 0.5000
 Requested convergence on RMS density matrix=1.00D-08 within 128 cycles.
 Requested convergence on MAX density matrix=1.00D-06.
 Requested convergence on             energy=1.00D-06.
 No special actions if energy rises.
 Restarting incremental Fock formation.
 SCF Done:  E(UB3LYP) =  -1152.42133054     A.U. after   27 cycles
            NFock= 27  Conv=0.94D-08     -V/T= 2.0045
 <Sx>= 0.0000 <Sy>= 0.0000 <Sz>= 0.5000 <S**2>= 0.7820 S= 0.5159
 <L.S>=  0.00000000000    
 Annihilation of the first spin contaminant:
 S**2 before annihilation     0.7820,   after     0.7505
 DoSCS=F DFT=T ScalE2(SS,OS)=  1.000000  1.000000
 Range of M.O.s used for correlation:     1   726
 NBasis=   750 NAE=    98 NBE=    97 NFC=     0 NFV=     0
 NROrb=    726 NOA=    98 NOB=    97 NVA=   628 NVB=   629

 **** Warning!!: The largest alpha MO coefficient is  0.13853433D+03


 **** Warning!!: The smallest alpha delta epsilon is  0.98695395D-01


 **** Warning!!: The largest beta MO coefficient is  0.14569410D+03

 Symmetrizing basis deriv contribution to polar:
 IMax=3 JMax=2 DiffMx= 0.00D+00
 G2DrvN: will do    46 centers at a time, making    1 passes.
 Calling FoFCou, ICntrl=  3107 FMM=F I1Cent=   0 AccDes= 0.00D+00.
 End of G2Drv F.D. properties file   721 does not exist.
 End of G2Drv F.D. properties file   722 does not exist.
 End of G2Drv F.D. properties file   788 does not exist.
          IDoAtm=111111111111111111111111111111111111111111111
          Differentiating once with respect to nuclear coordinates.
 CalDSu exits because no D1Ps are significant.
          There are   138 degrees of freedom in the 1st order CPHF.  IDoFFX=6 NUNeed=     0.
    132 vectors produced by pass  0 Test12= 1.23D-13 1.00D-09 XBig12= 5.76D-01 1.03D-01.
 AX will form   132 AO Fock derivatives at one time.
    132 vectors produced by pass  1 Test12= 1.23D-13 1.00D-09 XBig12= 1.58D-01 5.95D-02.
    132 vectors produced by pass  2 Test12= 1.23D-13 1.00D-09 XBig12= 2.12D-03 6.81D-03.
    132 vectors produced by pass  3 Test12= 1.23D-13 1.00D-09 XBig12= 2.55D-05 7.44D-04.
    132 vectors produced by pass  4 Test12= 1.23D-13 1.00D-09 XBig12= 2.12D-07 5.97D-05.
    132 vectors produced by pass  5 Test12= 1.23D-13 1.00D-09 XBig12= 1.26D-09 2.43D-06.
    131 vectors produced by pass  6 Test12= 1.23D-13 1.00D-09 XBig12= 5.59D-11 5.90D-07.
    113 vectors produced by pass  7 Test12= 1.23D-13 1.00D-09 XBig12= 1.11D-11 1.87D-07.
     88 vectors produced by pass  8 Test12= 1.23D-13 1.00D-09 XBig12= 1.30D-12 5.78D-08.
     25 vectors produced by pass  9 Test12= 1.23D-13 1.00D-09 XBig12= 1.53D-14 5.49D-09.
      4 vectors produced by pass 10 Test12= 1.23D-13 1.00D-09 XBig12= 5.31D-16 1.56D-09.
      4 vectors produced by pass 11 Test12= 1.23D-13 1.00D-09 XBig12= 1.03D-15 1.54D-09.
      3 vectors produced by pass 12 Test12= 1.23D-13 1.00D-09 XBig12= 6.65D-16 1.81D-09.
      3 vectors produced by pass 13 Test12= 1.23D-13 1.00D-09 XBig12= 7.81D-16 1.28D-09.
      2 vectors produced by pass 14 Test12= 1.23D-13 1.00D-09 XBig12= 6.63D-16 1.29D-09.
      2 vectors produced by pass 15 Test12= 1.23D-13 1.00D-09 XBig12= 8.27D-16 1.54D-09.
      1 vectors produced by pass 16 Test12= 1.23D-13 1.00D-09 XBig12= 1.08D-15 1.61D-09.
 InvSVY:  IOpt=1 It=  1 EMax= 7.77D-16
 Solved reduced A of dimension  1168 with   138 vectors.
 End of Minotr F.D. properties file   721 does not exist.
 End of Minotr F.D. properties file   722 does not exist.
 End of Minotr F.D. properties file   788 does not exist.

 **********************************************************************

            Population analysis using the SCF Density.

 **********************************************************************

 Orbital symmetries:
 Alpha Orbitals:
       Occupied  (A) (A) (A) (A) (A) (A) (A) (A) (A) (A) (A) (A)
                 (A) (A) (A) (A) (A) (A) (A) (A) (A) (A) (A) (A)
                 (A) (A) (A) (A) (A) (A) (A) (A) (A) (A) (A) (A)
                 (A) (A) (A) (A) (A) (A) (A) (A) (A) (A) (A) (A)
                 (A) (A) (A) (A) (A) (A) (A) (A) (A) (A) (A) (A)
                 (A) (A) (A) (A) (A) (A) (A) (A) (A) (A) (A) (A)
                 (A) (A) (A) (A) (A) (A) (A) (A) (A) (A) (A) (A)
                 (A) (A) (A) (A) (A) (A) (A) (A) (A) (A) (A) (A)
                 (A) (A)
       Virtual   (A) (A) (A) (A) (A) (A) (A) (A) (A) (A) (A) (A)
                 (A) (A) (A) (A) (A) (A) (A) (A) (A) (A) (A) (A)
                 (A) (A) (A) (A) (A) (A) (A) (A) (A) (A) (A) (A)
                 (A) (A) (A) (A) (A) (A) (A) (A) (A) (A) (A) (A)
                 (A) (A) (A) (A) (A) (A) (A) (A) (A) (A) (A) (A)
                 (A) (A) (A) (A) (A) (A) (A) (A) (A) (A) (A) (A)
                 (A) (A) (A) (A) (A) (A) (A) (A) (A) (A) (A) (A)
                 (A) (A) (A) (A) (A) (A) (A) (A) (A) (A) (A) (A)
                 (A) (A) (A) (A) (A) (A) (A) (A) (A) (A) (A) (A)
                 (A) (A) (A) (A) (A) (A) (A) (A) (A) (A) (A) (A)
                 (A) (A) (A) (A) (A) (A) (A) (A) (A) (A) (A) (A)
                 (A) (A) (A) (A) (A) (A) (A) (A) (A) (A) (A) (A)
                 (A) (A) (A) (A) (A) (A) (A) (A) (A) (A) (A) (A)
                 (A) (A) (A) (A) (A) (A) (A) (A) (A) (A) (A) (A)
                 (A) (A) (A) (A) (A) (A) (A) (A) (A) (A) (A) (A)
                 (A) (A) (A) (A) (A) (A) (A) (A) (A) (A) (A) (A)
                 (A) (A) (A) (A) (A) (A) (A) (A) (A) (A) (A) (A)
                 (A) (A) (A) (A) (A) (A) (A) (A) (A) (A) (A) (A)
                 (A) (A) (A) (A) (A) (A) (A) (A) (A) (A) (A) (A)
                 (A) (A) (A) (A) (A) (A) (A) (A) (A) (A) (A) (A)
                 (A) (A) (A) (A) (A) (A) (A) (A) (A) (A) (A) (A)
                 (A) (A) (A) (A) (A) (A) (A) (A) (A) (A) (A) (A)
                 (A) (A) (A) (A) (A) (A) (A) (A) (A) (A) (A) (A)
                 (A) (A) (A) (A) (A) (A) (A) (A) (A) (A) (A) (A)
                 (A) (A) (A) (A) (A) (A) (A) (A) (A) (A) (A) (A)
                 (A) (A) (A) (A) (A) (A) (A) (A) (A) (A) (A) (A)
                 (A) (A) (A) (A) (A) (A) (A) (A) (A) (A) (A) (A)
                 (A) (A) (A) (A) (A) (A) (A) (A) (A) (A) (A) (A)
                 (A) (A) (A) (A) (A) (A) (A) (A) (A) (A) (A) (A)
                 (A) (A) (A) (A) (A) (A) (A) (A) (A) (A) (A) (A)
                 (A) (A) (A) (A) (A) (A) (A) (A) (A) (A) (A) (A)
                 (A) (A) (A) (A) (A) (A) (A) (A) (A) (A) (A) (A)
                 (A) (A) (A) (A) (A) (A) (A) (A) (A) (A) (A) (A)
                 (A) (A) (A) (A) (A) (A) (A) (A) (A) (A) (A) (A)
                 (A) (A) (A) (A) (A) (A) (A) (A) (A) (A) (A) (A)
                 (A) (A) (A) (A) (A) (A) (A) (A) (A) (A) (A) (A)
                 (A) (A) (A) (A) (A) (A) (A) (A) (A) (A) (A) (A)
                 (A) (A) (A) (A) (A) (A) (A) (A) (A) (A) (A) (A)
                 (A) (A) (A) (A) (A) (A) (A) (A) (A) (A) (A) (A)
                 (A) (A) (A) (A) (A) (A) (A) (A) (A) (A) (A) (A)
                 (A) (A) (A) (A) (A) (A) (A) (A) (A) (A) (A) (A)
                 (A) (A) (A) (A) (A) (A) (A) (A) (A) (A) (A) (A)
                 (A) (A) (A) (A) (A) (A) (A) (A) (A) (A) (A) (A)
                 (A) (A) (A) (A) (A) (A) (A) (A) (A) (A) (A) (A)
                 (A) (A) (A) (A) (A) (A) (A) (A) (A) (A) (A) (A)
                 (A) (A) (A) (A) (A) (A) (A) (A) (A) (A) (A) (A)
                 (A) (A) (A) (A) (A) (A) (A) (A) (A) (A) (A) (A)
                 (A) (A) (A) (A) (A) (A) (A) (A) (A) (A) (A) (A)
                 (A) (A) (A) (A) (A) (A) (A) (A) (A) (A) (A) (A)
                 (A) (A) (A) (A) (A) (A) (A) (A) (A) (A) (A) (A)
                 (A) (A) (A) (A) (A) (A) (A) (A) (A) (A) (A) (A)
                 (A) (A) (A) (A) (A) (A) (A) (A) (A) (A) (A) (A)
                 (A) (A) (A) (A)
 Beta  Orbitals:
       Occupied  (A) (A) (A) (A) (A) (A) (A) (A) (A) (A) (A) (A)
                 (A) (A) (A) (A) (A) (A) (A) (A) (A) (A) (A) (A)
                 (A) (A) (A) (A) (A) (A) (A) (A) (A) (A) (A) (A)
                 (A) (A) (A) (A) (A) (A) (A) (A) (A) (A) (A) (A)
                 (A) (A) (A) (A) (A) (A) (A) (A) (A) (A) (A) (A)
                 (A) (A) (A) (A) (A) (A) (A) (A) (A) (A) (A) (A)
                 (A) (A) (A) (A) (A) (A) (A) (A) (A) (A) (A) (A)
                 (A) (A) (A) (A) (A) (A) (A) (A) (A) (A) (A) (A)
                 (A)
       Virtual   (A) (A) (A) (A) (A) (A) (A) (A) (A) (A) (A) (A)
                 (A) (A) (A) (A) (A) (A) (A) (A) (A) (A) (A) (A)
                 (A) (A) (A) (A) (A) (A) (A) (A) (A) (A) (A) (A)
                 (A) (A) (A) (A) (A) (A) (A) (A) (A) (A) (A) (A)
                 (A) (A) (A) (A) (A) (A) (A) (A) (A) (A) (A) (A)
                 (A) (A) (A) (A) (A) (A) (A) (A) (A) (A) (A) (A)
                 (A) (A) (A) (A) (A) (A) (A) (A) (A) (A) (A) (A)
                 (A) (A) (A) (A) (A) (A) (A) (A) (A) (A) (A) (A)
                 (A) (A) (A) (A) (A) (A) (A) (A) (A) (A) (A) (A)
                 (A) (A) (A) (A) (A) (A) (A) (A) (A) (A) (A) (A)
                 (A) (A) (A) (A) (A) (A) (A) (A) (A) (A) (A) (A)
                 (A) (A) (A) (A) (A) (A) (A) (A) (A) (A) (A) (A)
                 (A) (A) (A) (A) (A) (A) (A) (A) (A) (A) (A) (A)
                 (A) (A) (A) (A) (A) (A) (A) (A) (A) (A) (A) (A)
                 (A) (A) (A) (A) (A) (A) (A) (A) (A) (A) (A) (A)
                 (A) (A) (A) (A) (A) (A) (A) (A) (A) (A) (A) (A)
                 (A) (A) (A) (A) (A) (A) (A) (A) (A) (A) (A) (A)
                 (A) (A) (A) (A) (A) (A) (A) (A) (A) (A) (A) (A)
                 (A) (A) (A) (A) (A) (A) (A) (A) (A) (A) (A) (A)
                 (A) (A) (A) (A) (A) (A) (A) (A) (A) (A) (A) (A)
                 (A) (A) (A) (A) (A) (A) (A) (A) (A) (A) (A) (A)
                 (A) (A) (A) (A) (A) (A) (A) (A) (A) (A) (A) (A)
                 (A) (A) (A) (A) (A) (A) (A) (A) (A) (A) (A) (A)
                 (A) (A) (A) (A) (A) (A) (A) (A) (A) (A) (A) (A)
                 (A) (A) (A) (A) (A) (A) (A) (A) (A) (A) (A) (A)
                 (A) (A) (A) (A) (A) (A) (A) (A) (A) (A) (A) (A)
                 (A) (A) (A) (A) (A) (A) (A) (A) (A) (A) (A) (A)
                 (A) (A) (A) (A) (A) (A) (A) (A) (A) (A) (A) (A)
                 (A) (A) (A) (A) (A) (A) (A) (A) (A) (A) (A) (A)
                 (A) (A) (A) (A) (A) (A) (A) (A) (A) (A) (A) (A)
                 (A) (A) (A) (A) (A) (A) (A) (A) (A) (A) (A) (A)
                 (A) (A) (A) (A) (A) (A) (A) (A) (A) (A) (A) (A)
                 (A) (A) (A) (A) (A) (A) (A) (A) (A) (A) (A) (A)
                 (A) (A) (A) (A) (A) (A) (A) (A) (A) (A) (A) (A)
                 (A) (A) (A) (A) (A) (A) (A) (A) (A) (A) (A) (A)
                 (A) (A) (A) (A) (A) (A) (A) (A) (A) (A) (A) (A)
                 (A) (A) (A) (A) (A) (A) (A) (A) (A) (A) (A) (A)
                 (A) (A) (A) (A) (A) (A) (A) (A) (A) (A) (A) (A)
                 (A) (A) (A) (A) (A) (A) (A) (A) (A) (A) (A) (A)
                 (A) (A) (A) (A) (A) (A) (A) (A) (A) (A) (A) (A)
                 (A) (A) (A) (A) (A) (A) (A) (A) (A) (A) (A) (A)
                 (A) (A) (A) (A) (A) (A) (A) (A) (A) (A) (A) (A)
                 (A) (A) (A) (A) (A) (A) (A) (A) (A) (A) (A) (A)
                 (A) (A) (A) (A) (A) (A) (A) (A) (A) (A) (A) (A)
                 (A) (A) (A) (A) (A) (A) (A) (A) (A) (A) (A) (A)
                 (A) (A) (A) (A) (A) (A) (A) (A) (A) (A) (A) (A)
                 (A) (A) (A) (A) (A) (A) (A) (A) (A) (A) (A) (A)
                 (A) (A) (A) (A) (A) (A) (A) (A) (A) (A) (A) (A)
                 (A) (A) (A) (A) (A) (A) (A) (A) (A) (A) (A) (A)
                 (A) (A) (A) (A) (A) (A) (A) (A) (A) (A) (A) (A)
                 (A) (A) (A) (A) (A) (A) (A) (A) (A) (A) (A) (A)
                 (A) (A) (A) (A) (A) (A) (A) (A) (A) (A) (A) (A)
                 (A) (A) (A) (A) (A)
 The electronic state is 2-A.
 Alpha  occ. eigenvalues --  -10.22408 -10.22179 -10.21146 -10.20800 -10.20538
 Alpha  occ. eigenvalues --  -10.19938 -10.19892 -10.19649 -10.19611 -10.19294
 Alpha  occ. eigenvalues --  -10.19240 -10.19239 -10.19205 -10.19189 -10.19169
 Alpha  occ. eigenvalues --  -10.19133 -10.18972 -10.18877 -10.18733 -10.18722
 Alpha  occ. eigenvalues --  -10.18678 -10.18397 -10.18367 -10.18331 -10.18301
 Alpha  occ. eigenvalues --  -10.18230 -10.18114 -10.16950 -10.16844 -10.16695
 Alpha  occ. eigenvalues --   -0.92516  -0.89533  -0.87960  -0.85702  -0.85160
 Alpha  occ. eigenvalues --   -0.82763  -0.81146  -0.80562  -0.79107  -0.76349
 Alpha  occ. eigenvalues --   -0.76076  -0.75121  -0.73071  -0.71964  -0.71226
 Alpha  occ. eigenvalues --   -0.67024  -0.66094  -0.63900  -0.63751  -0.62201
 Alpha  occ. eigenvalues --   -0.60855  -0.60232  -0.58686  -0.57014  -0.55303
 Alpha  occ. eigenvalues --   -0.53406  -0.51956  -0.51643  -0.51007  -0.50505
 Alpha  occ. eigenvalues --   -0.49945  -0.47902  -0.47237  -0.45818  -0.45286
 Alpha  occ. eigenvalues --   -0.44742  -0.44600  -0.44366  -0.44072  -0.43221
 Alpha  occ. eigenvalues --   -0.42435  -0.42025  -0.41679  -0.41378  -0.40475
 Alpha  occ. eigenvalues --   -0.40218  -0.39978  -0.39186  -0.38069  -0.36798
 Alpha  occ. eigenvalues --   -0.36711  -0.36067  -0.35980  -0.35346  -0.34654
 Alpha  occ. eigenvalues --   -0.33552  -0.33280  -0.32941  -0.32425  -0.31407
 Alpha  occ. eigenvalues --   -0.29694  -0.27615  -0.26596  -0.25403  -0.23212
 Alpha  occ. eigenvalues --   -0.22619  -0.21713  -0.19031
 Alpha virt. eigenvalues --   -0.09161  -0.07192  -0.05482  -0.03317  -0.03183
 Alpha virt. eigenvalues --   -0.00662  -0.00021   0.00486   0.00574   0.01402
 Alpha virt. eigenvalues --    0.01482   0.01540   0.01785   0.02726   0.02930
 Alpha virt. eigenvalues --    0.03267   0.03555   0.04276   0.04540   0.04677
 Alpha virt. eigenvalues --    0.04757   0.04858   0.05346   0.05780   0.06347
 Alpha virt. eigenvalues --    0.06775   0.06892   0.07524   0.08088   0.08302
 Alpha virt. eigenvalues --    0.08675   0.08766   0.09003   0.09314   0.09603
 Alpha virt. eigenvalues --    0.09898   0.10406   0.10660   0.11008   0.11524
 Alpha virt. eigenvalues --    0.11710   0.12087   0.12210   0.12738   0.13012
 Alpha virt. eigenvalues --    0.13142   0.13377   0.14332   0.14481   0.14583
 Alpha virt. eigenvalues --    0.15008   0.15267   0.15465   0.15941   0.16018
 Alpha virt. eigenvalues --    0.16283   0.16471   0.16612   0.16760   0.16962
 Alpha virt. eigenvalues --    0.17029   0.17267   0.17824   0.17940   0.18127
 Alpha virt. eigenvalues --    0.18438   0.18567   0.18658   0.19121   0.19336
 Alpha virt. eigenvalues --    0.19472   0.19772   0.20016   0.20145   0.20428
 Alpha virt. eigenvalues --    0.20497   0.20830   0.21174   0.21386   0.21477
 Alpha virt. eigenvalues --    0.21868   0.21971   0.22102   0.22351   0.22684
 Alpha virt. eigenvalues --    0.22862   0.23033   0.23257   0.23294   0.23644
 Alpha virt. eigenvalues --    0.23845   0.24010   0.24467   0.24638   0.24939
 Alpha virt. eigenvalues --    0.25134   0.25438   0.25706   0.25958   0.26046
 Alpha virt. eigenvalues --    0.26279   0.26522   0.26836   0.27063   0.27335
 Alpha virt. eigenvalues --    0.27719   0.28054   0.28523   0.28744   0.28862
 Alpha virt. eigenvalues --    0.29122   0.29605   0.29984   0.30168   0.30236
 Alpha virt. eigenvalues --    0.30343   0.30591   0.31047   0.31592   0.31880
 Alpha virt. eigenvalues --    0.32401   0.32473   0.33099   0.33286   0.33406
 Alpha virt. eigenvalues --    0.33833   0.34007   0.34361   0.34793   0.35234
 Alpha virt. eigenvalues --    0.35771   0.35821   0.36944   0.37242   0.37512
 Alpha virt. eigenvalues --    0.38095   0.38644   0.38659   0.39118   0.39650
 Alpha virt. eigenvalues --    0.40448   0.40797   0.41120   0.41969   0.42772
 Alpha virt. eigenvalues --    0.43058   0.43609   0.44003   0.44823   0.46187
 Alpha virt. eigenvalues --    0.46438   0.46940   0.47626   0.48410   0.48883
 Alpha virt. eigenvalues --    0.49121   0.50186   0.50585   0.51108   0.51382
 Alpha virt. eigenvalues --    0.51761   0.52331   0.52729   0.53023   0.53369
 Alpha virt. eigenvalues --    0.53754   0.54333   0.54511   0.55122   0.55544
 Alpha virt. eigenvalues --    0.55915   0.56083   0.56346   0.56871   0.57093
 Alpha virt. eigenvalues --    0.57237   0.57809   0.58296   0.58564   0.59262
 Alpha virt. eigenvalues --    0.59637   0.59935   0.60085   0.60658   0.60828
 Alpha virt. eigenvalues --    0.61093   0.61432   0.61624   0.62311   0.62638
 Alpha virt. eigenvalues --    0.63661   0.64112   0.64246   0.64628   0.64872
 Alpha virt. eigenvalues --    0.65329   0.65626   0.65859   0.66819   0.67367
 Alpha virt. eigenvalues --    0.67418   0.68212   0.68709   0.69042   0.69252
 Alpha virt. eigenvalues --    0.69932   0.69995   0.70769   0.70817   0.71225
 Alpha virt. eigenvalues --    0.71883   0.72251   0.72357   0.72527   0.72773
 Alpha virt. eigenvalues --    0.73137   0.73526   0.73634   0.73914   0.74306
 Alpha virt. eigenvalues --    0.74696   0.75090   0.75403   0.75872   0.76448
 Alpha virt. eigenvalues --    0.76662   0.77165   0.77874   0.78775   0.79439
 Alpha virt. eigenvalues --    0.79894   0.81194   0.81734   0.83110   0.83190
 Alpha virt. eigenvalues --    0.83556   0.84712   0.85621   0.85870   0.86542
 Alpha virt. eigenvalues --    0.86972   0.87660   0.88552   0.88662   0.88853
 Alpha virt. eigenvalues --    0.89227   0.90363   0.90442   0.91024   0.91412
 Alpha virt. eigenvalues --    0.91996   0.92735   0.92849   0.93120   0.93213
 Alpha virt. eigenvalues --    0.93890   0.94228   0.94305   0.94503   0.95057
 Alpha virt. eigenvalues --    0.95488   0.95863   0.95962   0.96334   0.96660
 Alpha virt. eigenvalues --    0.96908   0.97358   0.97535   0.98187   0.98709
 Alpha virt. eigenvalues --    0.99598   0.99712   1.00517   1.00953   1.01760
 Alpha virt. eigenvalues --    1.02663   1.03007   1.03518   1.03826   1.04393
 Alpha virt. eigenvalues --    1.04977   1.05367   1.06717   1.07080   1.07518
 Alpha virt. eigenvalues --    1.07766   1.08739   1.09435   1.09672   1.10976
 Alpha virt. eigenvalues --    1.11037   1.11876   1.13396   1.13878   1.14729
 Alpha virt. eigenvalues --    1.14986   1.16232   1.16758   1.18382   1.19236
 Alpha virt. eigenvalues --    1.19713   1.20304   1.21085   1.22474   1.23152
 Alpha virt. eigenvalues --    1.26463   1.27538   1.27862   1.28187   1.31286
 Alpha virt. eigenvalues --    1.32624   1.33397   1.34041   1.36089   1.36623
 Alpha virt. eigenvalues --    1.38359   1.38480   1.38875   1.40391   1.41051
 Alpha virt. eigenvalues --    1.42551   1.43164   1.44469   1.44959   1.45167
 Alpha virt. eigenvalues --    1.46326   1.47217   1.47695   1.47987   1.48726
 Alpha virt. eigenvalues --    1.49245   1.49769   1.50041   1.50241   1.50823
 Alpha virt. eigenvalues --    1.51241   1.52569   1.52607   1.53773   1.54166
 Alpha virt. eigenvalues --    1.55186   1.56069   1.56434   1.57086   1.58036
 Alpha virt. eigenvalues --    1.58338   1.58558   1.59347   1.59690   1.60283
 Alpha virt. eigenvalues --    1.61022   1.61050   1.61979   1.62827   1.64914
 Alpha virt. eigenvalues --    1.65729   1.66312   1.68070   1.68538   1.69179
 Alpha virt. eigenvalues --    1.69362   1.71309   1.71905   1.72306   1.72385
 Alpha virt. eigenvalues --    1.73327   1.73673   1.74155   1.74838   1.75472
 Alpha virt. eigenvalues --    1.76241   1.77130   1.78320   1.79158   1.80340
 Alpha virt. eigenvalues --    1.80826   1.81180   1.82071   1.82780   1.83185
 Alpha virt. eigenvalues --    1.83852   1.84183   1.84576   1.84912   1.85494
 Alpha virt. eigenvalues --    1.85938   1.86778   1.87194   1.87766   1.88264
 Alpha virt. eigenvalues --    1.88556   1.88994   1.89710   1.90485   1.90827
 Alpha virt. eigenvalues --    1.91702   1.92708   1.93177   1.93762   1.94254
 Alpha virt. eigenvalues --    1.95122   1.95762   1.96130   1.97081   1.97477
 Alpha virt. eigenvalues --    1.97879   1.98950   1.99532   2.00232   2.00562
 Alpha virt. eigenvalues --    2.01519   2.02409   2.02695   2.04190   2.04538
 Alpha virt. eigenvalues --    2.05545   2.05890   2.06135   2.07019   2.08398
 Alpha virt. eigenvalues --    2.09347   2.10673   2.11131   2.11383   2.12070
 Alpha virt. eigenvalues --    2.12605   2.14696   2.15092   2.15302   2.17037
 Alpha virt. eigenvalues --    2.17618   2.18097   2.19573   2.20786   2.21907
 Alpha virt. eigenvalues --    2.22274   2.24047   2.24578   2.25498   2.26037
 Alpha virt. eigenvalues --    2.26775   2.28965   2.29466   2.31116   2.31892
 Alpha virt. eigenvalues --    2.34336   2.35631   2.36030   2.36699   2.37440
 Alpha virt. eigenvalues --    2.39348   2.41251   2.41536   2.42285   2.43015
 Alpha virt. eigenvalues --    2.45236   2.46095   2.46667   2.47195   2.48946
 Alpha virt. eigenvalues --    2.51231   2.53301   2.54631   2.55604   2.56456
 Alpha virt. eigenvalues --    2.56963   2.58694   2.60269   2.61514   2.61916
 Alpha virt. eigenvalues --    2.63701   2.64350   2.65632   2.68031   2.68321
 Alpha virt. eigenvalues --    2.68616   2.68736   2.70526   2.71420   2.71622
 Alpha virt. eigenvalues --    2.72144   2.72267   2.72411   2.72774   2.73214
 Alpha virt. eigenvalues --    2.74252   2.74758   2.75060   2.75353   2.76327
 Alpha virt. eigenvalues --    2.76512   2.77207   2.77412   2.77881   2.78055
 Alpha virt. eigenvalues --    2.78439   2.78835   2.79457   2.79891   2.80784
 Alpha virt. eigenvalues --    2.81184   2.82091   2.82817   2.84353   2.84940
 Alpha virt. eigenvalues --    2.86151   2.86476   2.86833   2.87303   2.87669
 Alpha virt. eigenvalues --    2.88304   2.89486   2.90969   2.91416   2.92517
 Alpha virt. eigenvalues --    2.93029   2.93954   2.94989   2.98055   2.99726
 Alpha virt. eigenvalues --    2.99884   3.01802   3.03112   3.04324   3.05645
 Alpha virt. eigenvalues --    3.06971   3.10156   3.11322   3.12209   3.14505
 Alpha virt. eigenvalues --    3.15375   3.17637   3.17814   3.18891   3.20297
 Alpha virt. eigenvalues --    3.21540   3.22670   3.24022   3.24283   3.26274
 Alpha virt. eigenvalues --    3.27269   3.31081   3.33001   3.34273   3.36189
 Alpha virt. eigenvalues --    3.36288   3.38067   3.38646   3.40245   3.42553
 Alpha virt. eigenvalues --    3.43046   3.43948   3.45007   3.46060   3.46667
 Alpha virt. eigenvalues --    3.47664   3.49199   3.49443   3.50503   3.53843
 Alpha virt. eigenvalues --    3.55558   3.57003   3.59235   3.60648   3.61817
 Alpha virt. eigenvalues --    3.63148   3.64648   3.68949   3.69606   3.73020
 Alpha virt. eigenvalues --    3.82387   3.83487   3.85586   3.90621   3.93895
 Alpha virt. eigenvalues --    4.04961   4.05663   4.06258   4.06721   4.08214
 Alpha virt. eigenvalues --    4.09805   4.10669   4.13281   4.21109   4.24270
 Alpha virt. eigenvalues --    4.29928   4.32397   4.43704   4.52149   4.69601
 Alpha virt. eigenvalues --    4.74036   4.77387   4.78287   4.79439   4.80476
 Alpha virt. eigenvalues --    4.81685   4.85131   4.89255  23.38976  23.58998
 Alpha virt. eigenvalues --   23.68337  23.77515  23.80096  23.83431  23.84388
 Alpha virt. eigenvalues --   23.86991  23.88401  23.88825  23.90538  23.93013
 Alpha virt. eigenvalues --   23.94266  23.97938  23.99027  23.99628  24.00327
 Alpha virt. eigenvalues --   24.05226  24.06064  24.08276  24.09799  24.10454
 Alpha virt. eigenvalues --   24.12085  24.12717  24.13854  24.18243  24.20293
 Alpha virt. eigenvalues --   24.21581  24.23077  24.23437
  Beta  occ. eigenvalues --  -10.22554 -10.21997 -10.21204 -10.20788 -10.20471
  Beta  occ. eigenvalues --  -10.19974 -10.19954 -10.19598 -10.19591 -10.19297
  Beta  occ. eigenvalues --  -10.19241 -10.19237 -10.19209 -10.19204 -10.19171
[...]
 ,-0.00000020,-0.00000232,0.00001832,-0.00000243,0.00000888,0.00000370,
 -0.00000213,-0.00000090,0.00001150,0.00000244,0.00003888,0.00000473,0.
 00004830,-0.00007990,0.00006027,0.00005217,0.00005737,-0.00000308,0.00
 001437,0.00007759,-0.00025141,0.00001864,-0.00009586,0.00001470,-0.000
 02488,0.00003108,-0.00002830,0.00000449,-0.00068599,0.00046534,-0.0000
 8079,0.00021561,0.00015128,0.00005266,0.00002771,-0.00001437,0.0000091
 6,0.00004009,-0.00003999,0.00000363,0.00098732,-0.00217099,-0.00015357
 ,-0.01245322,0.00134008,-0.00160540,0.00029533,0.00303968,-0.00022761,
 0.00038940,-0.00043157,0.00006425,-0.33191263,-0.00865158,-0.02569034,
 -0.01191536,-0.00327795,-0.00065764,0.00067938,0.00334173,-0.00155600,
 0.00042337,-0.00020069,0.00017297,-0.00000497,-0.00003648,-0.00004166,
 -0.00000724,0.00000507,0.00000482,-0.00000298,0.00000484,0.00000128,-0
 .00000597,-0.00000089,0.00000124,-0.00000590,-0.00000100,0.00000075,-0
 .00000191,-0.00000515,0.00000056,-0.00000808,-0.00000795,0.00000343,-0
 .00000030,-0.00000535,0.00000194,0.00000461,-0.00002472,0.00000180,-0.
 00002717,-0.00007146,-0.00001607,0.00111053,-0.00033345,0.00013461,0.3
 5286135,-0.00003412,-0.00008362,-0.00001685,0.00003153,0.00000300,0.00
 000679,-0.00003413,0.00002317,-0.00000338,0.00006390,-0.00000202,0.000
 01332,0.00000554,-0.00004637,-0.00000544,0.00003333,0.00003823,0.00001
 086,-0.00002411,0.00001173,0.00000900,0.00001307,0.00001529,-0.0000004
 9,0.00000869,-0.00001511,-0.00000163,0.00000186,0.00001417,0.00000445,
 0.00001072,0.00000329,-0.00000197,-0.00000851,0.00001019,0.00000065,0.
 00011269,0.00014109,-0.00017033,0.00006412,-0.00003106,-0.00007412,-0.
 00006330,0.00003002,-0.00000283,0.00008116,-0.00036705,-0.00000755,-0.
 00012650,-0.00004270,0.00001188,0.00001775,-0.00005136,-0.00000367,-0.
 00129686,0.00027634,-0.00018137,-0.00020684,0.00002771,0.00001187,0.00
 013926,0.00006287,0.00001693,-0.00005663,0.00000018,-0.00001449,-0.000
 75600,-0.00411135,0.00160550,-0.02660193,0.00081074,-0.00188731,-0.002
 87984,-0.00027087,-0.00085378,0.00048054,0.00016741,0.00002038,-0.0067
 9073,-0.05686433,0.00422357,0.02718134,0.00576373,0.00224249,0.0022878
 8,-0.00379096,0.00271309,-0.00004510,-0.00089592,-0.00000565,-0.000000
 16,0.00004728,0.00005324,0.00000103,-0.00000213,-0.00000325,0.00000205
 ,-0.00000233,-0.00000055,0.00000170,0.00000230,-0.00000025,0.00000137,
 0.00000137,0.00000006,0.00000002,0.00000130,0.00000044,-0.00001299,-0.
 00000257,-0.00000352,0.00000538,0.00000183,0.00000005,-0.00000577,-0.0
 0002639,0.00000503,-0.00000724,-0.00000649,0.00003832,0.00061320,-0.00
 089873,0.00032469,0.00698166,0.05928166,-0.00018701,-0.00014504,0.0000
 0963,-0.00001353,0.00004239,-0.00000470,-0.00002556,-0.00002141,0.0000
 0238,0.00009316,-0.00004920,0.00002532,-0.00003680,-0.00003337,-0.0000
 0185,0.00006969,0.00009124,-0.00000278,-0.00005041,-0.00003046,0.00001
 802,0.00000704,0.00005620,0.00000634,0.00004497,-0.00004220,-0.0000195
 6,-0.00002938,0.00003806,0.00001342,0.00001275,-0.00001209,-0.00000134
 ,-0.00000025,0.00001680,0.00000236,0.00013331,-0.00004564,-0.00061196,
 0.00009778,0.00008045,0.00000492,-0.00012818,-0.00004279,-0.00003680,0
 .00001636,0.00009416,0.00001963,-0.00002938,-0.00001131,0.00011261,0.0
 0004516,-0.00000099,-0.00003423,0.00018106,0.00010155,-0.00005690,0.00
 010226,-0.00000089,0.00013948,-0.00002169,-0.00002020,-0.00000905,0.00
 002741,-0.00001384,-0.00001645,0.00078189,0.00104022,0.00467406,0.0030
 1429,-0.00070191,0.00340843,0.00092800,-0.00016500,-0.00303219,-0.0001
 2753,-0.00017275,-0.00004760,-0.02577692,0.00497803,-0.03841171,-0.007
 49874,-0.00068407,0.00420084,-0.00068653,0.00312787,0.00645924,0.00018
 105,0.00040187,-0.00087127,0.00000438,-0.00007861,0.00003732,0.0000037
 1,-0.00000259,-0.00000217,0.00000164,-0.00000137,0.00000028,-0.0000007
 6,0.00000104,-0.00000183,0.00000007,-0.00000049,0.00000067,0.00000011,
 0.00000035,0.00000079,0.00000401,-0.00000062,-0.00001712,-0.00000081,0
 .00000051,0.00000028,-0.00000250,0.00000231,0.00001686,-0.00002847,-0.
 00000637,0.00013953,-0.00004446,0.00026980,0.00031615,0.02894120,-0.00
 693411,0.02746070,-0.00049906,0.00031686,0.00012592,0.00003116,0.00007
 976,0.00001283,-0.00002257,-0.00000034,0.00000191,0.00003375,-0.000133
 71,-0.00005900,-0.00004255,-0.00000520,-0.00000600,-0.00005164,0.00002
 475,0.00000271,0.00004447,0.00001244,0.00000410,-0.00001612,-0.0000359
 5,-0.00000701,-0.00002130,0.00001269,0.00000802,0.00002180,-0.00002970
 ,0.00000280,-0.00000867,-0.00000219,0.00000106,0.00000362,-0.00000525,
 -0.00000164,-0.00021777,-0.00148254,0.00004963,-0.00003374,-0.00005624
 ,-0.00001861,-0.00001013,0.00004767,0.00000161,0.00000483,0.00003519,-
 0.00001721,0.00004016,-0.00003554,-0.00000602,-0.00004069,-0.00000854,
 -0.00000238,0.00012502,-0.00010371,0.00015070,-0.00020037,-0.00011563,
 -0.00004225,0.00009186,0.00007673,0.00000401,-0.00008263,0.00001899,-0
 .00000985,-0.00049142,0.00051687,-0.00008946,-0.00131470,0.00299723,-0
 .00148120,0.00060919,0.00028792,0.00004738,-0.00001722,0.00031910,0.00
 000865,0.01221622,0.01545570,-0.00291382,-0.11806621,-0.11140760,0.019
 12179,-0.00945813,-0.02882345,0.00487352,-0.00482382,0.00126271,-0.000
 57364,-0.00004473,0.00001344,0.00003457,-0.00002593,0.00001031,0.00000
 725,-0.00000739,0.00000418,0.00000362,-0.00000403,-0.00000114,0.000000
 24,-0.00000426,-0.00000349,0.00000122,-0.00000132,-0.00000310,0.000000
 05,0.,-0.00000249,0.00000103,-0.00000067,-0.00000244,0.00000111,0.0000
 0319,-0.00000677,0.00000068,0.00002433,0.00007969,-0.00000668,-0.00003
 674,-0.00000459,-0.00001220,0.00068980,-0.00044386,0.00054300,0.120483
 57,-0.00003726,0.00007127,0.00000144,0.00001676,-0.00000415,-0.0000138
 8,-0.00001525,-0.00000834,0.00000250,0.00000204,-0.00001731,-0.0000041
 8,-0.00000815,-0.00000011,0.00000667,-0.00002141,0.00000227,-0.0000034
 6,0.00001876,-0.00000538,-0.00000054,-0.00000926,-0.00001099,-0.000002
 99,-0.00002124,-0.00000244,0.00000123,-0.00001619,-0.00000371,-0.00000
 369,0.00001764,0.00000231,-0.00000173,-0.00000437,0.00001286,0.0000014
 7,0.00008866,-0.00022824,-0.00005280,-0.00003618,-0.00002944,0.0000222
 9,0.00000786,0.00000786,-0.00000461,-0.00003176,-0.00004057,0.00000703
 ,-0.00005074,0.00003002,-0.00000459,0.00001251,-0.00000460,0.00000064,
 -0.00003582,0.00013046,-0.00022420,0.00017975,0.00007987,0.00004044,-0
 .00004722,-0.00002936,0.00000825,0.00003618,-0.00000508,0.00000378,0.0
 0041989,0.00002337,-0.00011811,0.00376271,-0.00138976,0.00263202,-0.00
 104661,-0.00065960,-0.00001292,0.00031773,-0.00041370,-0.00001919,-0.0
 1487300,-0.01745098,0.00350675,-0.11162989,-0.26971307,0.04411434,0.00
 168671,0.00226143,0.00028260,0.00052821,0.00200568,0.00124845,0.000011
 32,-0.00001548,-0.00000871,-0.00000763,0.00000647,0.00000394,-0.000004
 31,0.00000503,0.00000168,-0.00000544,-0.00000104,0.00000074,-0.0000054
 2,-0.00000098,0.00000085,-0.00000211,-0.00000520,0.00000076,-0.0000027
 2,-0.00000608,0.00000198,-0.00000519,-0.00000750,0.00000010,0.00000501
 ,0.00000182,0.00000055,-0.00004851,-0.00012666,0.00000297,0.00004934,0
 .00000458,0.00003347,0.00034651,0.00068131,-0.00109704,0.12066474,0.28
 421976,-0.00013699,0.00009495,-0.00013379,0.00000479,0.00001949,-0.000
 01863,-0.00002895,-0.00000665,-0.00000621,0.00003663,-0.00005854,-0.00
 003139,0.00000913,-0.00000785,0.00001632,-0.00000398,0.00000303,0.0000
 0963,0.00003151,0.00001036,-0.00000377,-0.00000957,-0.00002608,-0.0000
 0955,-0.00000812,0.00001528,0.00000774,0.00001997,-0.00000736,-0.00000
 083,-0.00001503,-0.00000630,0.00000105,0.00000859,-0.00001048,-0.00000
 009,-0.00008053,-0.00039251,0.00017216,0.00009996,-0.00011782,-0.00005
 293,0.00000310,0.00003943,-0.00000589,-0.00002990,0.00001133,-0.000010
 93,0.00001181,-0.00001830,0.00004074,-0.00002510,-0.00000833,-0.000000
 56,0.00015552,-0.00005905,-0.00085432,-0.00007287,-0.00001761,0.000092
 47,0.00003897,0.00002137,0.00005676,-0.00003329,0.00003032,-0.00001456
 ,-0.00029921,-0.00009045,-0.00042238,-0.00197979,0.00211846,0.00736874
 ,0.00038983,0.00014921,0.00010508,0.00002928,0.00009862,-0.00053008,0.
 00417925,0.00574101,0.00275706,0.01821356,0.04429571,-0.04617358,-0.00
 012550,-0.00133494,0.00325958,-0.00104851,0.00061022,0.00620447,0.0001
 1113,0.00004384,0.00003674,0.00000396,-0.00000277,0.00000470,0.0000000
 6,-0.00000011,0.00000073,0.00000046,-0.00000089,0.00000191,0.00000008,
 -0.00000162,0.00000103,0.00000027,0.00000023,0.00000049,0.00000008,0.0
 0000096,0.00000500,0.00000198,0.00000068,-0.00000095,-0.00000091,-0.00
 000039,-0.00000037,0.00001247,0.00004358,0.00001305,-0.00003821,0.0000
 1216,0.00010514,0.00038793,-0.00113554,-0.00391227,-0.02019450,-0.0493
 2796,0.03525094,0.00036650,0.00011936,0.00015571,0.00004182,-0.0000706
 6,-0.00000077,0.00004906,0.00005943,-0.00000018,-0.00011513,0.00008656
 ,0.00005096,0.00003239,0.00002051,-0.00005949,0.00005376,0.00005300,-0
 .00006715,-0.00013105,-0.00000192,0.00000146,0.00001514,0.00009357,0.0
 0001555,0.00001479,-0.00005321,-0.00000079,-0.00003702,0.00000983,-0.0
 0000197,0.00006123,0.00001946,-0.00000843,-0.00003904,0.00004338,0.000
 01261,-0.00011224,-0.00075454,0.00066502,-0.00297348,-0.00053984,0.001
 49257,-0.00043896,-0.00007952,-0.00009282,0.00003703,0.00001869,0.0000
 5397,-0.00005650,0.00007488,0.00000140,0.00003963,-0.00000416,0.000005
 04,0.00075147,-0.00027610,0.00003805,0.00002906,-0.00016286,-0.0000103
 9,0.00001445,-0.00009826,-0.00000724,0.00008364,-0.00002955,0.00001410
 ,-0.00174991,-0.00294748,0.00032080,-0.00038546,-0.00091256,0.00026644
 ,-0.00003045,0.00034029,-0.00007590,-0.00013871,-0.00015032,0.00001931
 ,-0.00584109,-0.00156988,-0.00024235,-0.01273105,0.02802750,-0.0065854
 2,-0.13253783,0.12196066,-0.03461403,0.01070401,-0.01290262,0.00333052
 ,-0.00316309,-0.00036679,0.00248881,0.00001519,-0.00002653,0.00009462,
 0.00000099,-0.00000667,-0.00000548,0.00000900,0.00000532,0.00000213,0.
 00000682,0.00000691,0.00000014,-0.00000025,0.00000396,0.00000049,-0.00
 000385,0.00000221,-0.00000449,-0.00000018,0.00000067,-0.00000109,-0.00
 000947,-0.00002764,0.00000541,0.00000399,0.00001006,-0.00000034,0.0000
 7445,-0.00005658,0.00001135,-0.00067355,0.00125769,-0.00051797,0.00103
 826,-0.00024083,0.00025741,0.14770645,-0.00050644,-0.00028559,-0.00009
 837,-0.00002840,0.00009985,-0.00002678,-0.00004022,0.00006230,0.000002
 34,0.00031518,-0.00007737,0.00003585,-0.00010059,-0.00016906,0.0000046
 0,0.00038963,0.00023253,0.00014481,-0.00023884,0.00000219,0.00009794,0
 .00005441,0.00022935,0.00001635,0.00012677,-0.00018793,-0.00002407,-0.
 00011429,0.00006058,-0.00000953,0.00013353,0.00001727,-0.00001044,-0.0
 0008409,0.00009746,0.00001003,0.00148408,-0.00092955,-0.00078135,0.001
 57946,-0.00022425,-0.00123413,-0.00042214,0.00044201,-0.00010528,0.000
 21114,0.00007791,0.00004721,-0.00010675,-0.00003564,-0.00001900,0.0001
 0606,-0.00002184,0.00001575,0.00112656,-0.00021689,0.00029643,-0.00016
 760,-0.00035728,-0.00008998,0.00005567,-0.00002715,0.00002472,0.000052
 07,-0.00008331,0.00000893,-0.00379308,-0.00218290,0.00103226,-0.000467
 38,-0.00002663,-0.00016741,0.00002254,0.00021394,-0.00013047,-0.000144
 78,-0.00011581,0.00000179,-0.00069693,0.00153836,0.00090908,-0.0035194
 3,0.00518318,-0.00016887,0.12105894,-0.24949496,0.05561258,0.01299300,
 -0.02071061,0.00514877,0.00124642,0.00150728,-0.00010037,0.00000767,-0
 .00000106,-0.00005634,0.00000180,-0.00000855,-0.00000351,0.00000600,0.
 00001651,-0.00001114,0.00000317,0.00000697,-0.00000147,-0.00000356,0.0
 0000143,0.00000285,-0.00000571,-0.00000070,-0.00000030,-0.00000848,-0.
 00000294,-0.00000260,-0.00000958,-0.00004981,-0.00000517,0.00001100,-0
 .00001461,0.00001052,0.00003731,-0.00001447,0.00001348,-0.00023120,0.0
 0007027,-0.00002118,0.00031408,0.00058980,-0.00091367,-0.13088337,0.26
 451983,-0.00083009,-0.00058513,0.00004500,-0.00011059,0.00007605,0.000
 00718,-0.00004499,-0.00009826,-0.00000173,0.00041832,-0.00024906,0.000
 05563,-0.00010161,-0.00008547,-0.00000087,0.00014141,0.00043401,0.0000
 2033,-0.00011304,-0.00014333,0.00003937,0.00000822,0.00014422,0.000025
 80,0.00011409,-0.00014905,-0.00004193,-0.00010612,0.00006886,-0.000004
 87,0.00003979,-0.00007214,-0.00000087,0.00001550,0.00005997,0.00000216
 ,-0.00033000,-0.00049430,-0.00285059,0.00173462,0.00123078,0.00013145,
 -0.00067476,-0.00042589,-0.00030583,0.00007380,0.00011667,-0.00000226,
 -0.00004088,-0.00013795,-0.00003384,0.00009241,-0.00000536,0.00001062,
 -0.00049857,-0.00002317,0.00058745,0.00009386,0.00010303,-0.00035528,0
 .00002340,0.00003848,-0.00002851,-0.00005172,0.00002403,-0.00000605,0.
 00033749,0.00179811,0.00528046,0.00085120,0.00018135,-0.00070594,0.000
 04696,-0.00018506,-0.00060133,0.00008145,0.00000412,0.00015173,-0.0000
 9700,-0.00003955,0.00610695,-0.00183036,0.00146060,0.00456182,-0.03039
 856,0.05986094,-0.05002264,-0.00481411,-0.00167500,0.00133538,0.002389
 37,-0.00064827,-0.00079580,0.00002383,-0.00000940,0.00003714,0.0000051
 2,0.00000061,0.00000348,-0.00001007,-0.00000425,-0.00000927,-0.0000031
 9,-0.00000433,-0.00000150,0.00000177,-0.00000070,0.00000081,0.00000386
 ,-0.00000149,0.00000435,0.00000029,0.00000119,0.00000798,0.00000562,0.
 00001246,-0.00002650,-0.00001300,0.00000852,0.00004700,-0.00001144,0.0
 0001758,0.00001708,0.00003787,-0.00003497,0.00003344,0.00009014,-0.000
 95146,-0.00343544,0.03315029,-0.06014453,0.03944239,-0.00173206,0.0003
 3856,0.00158755,-0.00022045,0.00029577,0.00007107,0.00002557,0.0001015
 4,0.00000851,0.00095884,-0.00017634,0.00014794,-0.00005787,-0.00012074
 ,-0.00005974,-0.00024734,0.00045848,-0.00001697,0.00019266,-0.00003227
 ,-0.00001499,-0.00016346,-0.00005794,0.00002004,0.00004333,0.00012214,
 0.00000052,0.00010731,-0.00017759,-0.00000270,-0.00006068,-0.00003704,
 0.00001238,0.00005893,-0.00005829,-0.00001362,-0.00223178,0.00117027,0
 .00392490,0.00020388,-0.00056777,0.00025919,-0.00051833,-0.00015676,-0
 .00024256,0.00004814,-0.00012433,-0.00009817,0.00008519,-0.00001074,-0
 .00001166,-0.00016960,0.00001043,0.00000700,-0.00002317,-0.00147553,-0
 .00009140,-0.00068836,0.00038003,0.00003365,-0.00002709,-0.00013389,-0
 .00002375,-0.00001119,0.00012178,-0.00000594,-0.00163730,0.00372805,-0
 .00533093,0.00057383,0.00070366,-0.00038031,0.00020163,-0.00031204,0.0
 0006041,0.00042816,0.00032870,0.00007047,-0.00038619,0.00015843,0.0006
 8880,0.00159830,-0.00071566,-0.00027153,-0.00337886,-0.00579607,-0.005
 05160,-0.00119138,0.00195666,0.00573448,0.00000237,-0.00004027,0.00005
 665,-0.00002148,0.00002024,0.00001477,-0.00001852,0.00000879,0.0000080
 6,-0.00000282,-0.00000828,-0.00000026,-0.00000701,-0.00000751,0.000001
 68,0.,-0.00000719,-0.00000038,-0.00000004,-0.00000874,0.00000563,0.000
 00249,-0.00000885,-0.00000022,0.00000033,-0.00000785,0.00000101,0.0000
 0791,0.00000438,-0.00000500,0.00001393,-0.00001620,-0.00000032,0.00002
 742,-0.00000285,-0.00002744,0.00008260,0.00003420,0.00012322,0.0000192
 0,0.00023636,0.00029944,0.00811293,-0.00091543,0.00013622,-0.00008356,
 0.00002147,-0.00007559,-0.00029415,-0.00006605,0.00007202,-0.00005830,
 0.00023256,-0.00019451,0.00014588,0.00015121,-0.00008368,0.00000638,-0
 .00027039,0.00008974,0.00004456,0.00022004,0.00010751,-0.00001533,-0.0
 0002266,-0.00019028,-0.00003713,-0.00016189,0.00004754,0.00002302,0.00
 004925,-0.00014554,0.00002497,0.00002510,0.00000169,-0.00000494,0.0000
 0352,0.00001304,-0.00000155,0.00284877,-0.00002168,-0.00306362,-0.0004
 0100,0.00034270,-0.00017618,0.00013642,0.00006704,0.00007313,0.0003018
 9,0.00028689,0.00016454,0.00009288,-0.00009857,-0.00000768,-0.00019403
 ,-0.00000589,-0.00002461,0.00022370,-0.00162187,0.00086789,-0.00041135
 ,0.00063659,-0.00008902,0.00009394,-0.00000266,0.00002387,-0.00008348,
 0.00025374,-0.00001853,0.00016636,0.00192480,0.00111636,0.00044598,-0.
 00010437,0.00022568,-0.00001726,-0.00049840,-0.00010745,0.00059948,0.0
 0005634,0.00003986,-0.00149571,0.00142871,-0.00004441,0.00376661,-0.00
 199626,-0.00051273,-0.00866791,-0.00800141,-0.00630126,0.00332168,0.00
 110829,0.01162302,-0.00001347,-0.00002710,-0.00000664,-0.00001023,0.00
 000514,-0.00000471,0.00000082,0.00000520,0.00000848,-0.00000340,-0.000
 00492,0.00000190,-0.00000359,-0.00000010,-0.00000008,-0.00000045,-0.00
 000375,0.00000006,-0.00000220,-0.00000035,0.00000480,-0.00000457,-0.00
 000773,-0.00000448,0.00000251,0.00000779,-0.00000046,-0.00000314,0.000
 01770,0.00000613,0.00001804,-0.00001379,0.00000465,0.00003338,0.000024
 90,-0.00000731,0.00016240,0.00004359,0.00018496,-0.00005204,0.00026988
 ,0.00052653,-0.00011773,0.00615140,-0.00105123,-0.00129477,-0.00161372
 ,-0.00057091,-0.00000636,0.00020994,0.00016177,0.00028841,0.00002168,-
 0.00024634,-0.00042950,0.00013829,0.00045898,-0.00004172,-0.00003405,-
 0.00168479,-0.00089178,-0.00018060,0.00129007,0.00068946,0.00000277,-0
 .00005303,-0.00116941,-0.00019959,-0.00048377,0.00069223,0.00017752,0.
 00051488,-0.00053220,-0.00000549,-0.00027885,0.00014726,0.00002817,0.0
 0000994,-0.00039360,-0.00002454,0.01335252,-0.00473933,-0.01345916,-0.
 00294798,0.00272410,-0.00043860,0.00237827,0.00046061,0.00010553,0.000
 96394,0.00021098,0.00051066,0.00041777,-0.00027034,0.00009526,-0.00074
 254,-0.00001077,-0.00000421,-0.00106516,-0.00685423,0.00050434,-0.0031
 5987,0.00157447,-0.00025142,0.00007351,-0.00016112,-0.00003268,-0.0002
 4313,0.00054301,-0.00008735,-0.01408713,0.01785945,-0.01819684,0.00505
 903,0.00427449,-0.00221486,0.00068538,-0.00192952,0.00049747,0.0020518
 0,0.00165697,0.00023477,-0.00618362,0.00153459,0.00047067,0.01146987,-
 0.00383852,-0.00010679,-0.02120031,-0.02573621,-0.00904915,0.01637330,
 0.01940113,0.05837114,-0.00012716,-0.00008105,0.00017183,0.00001016,-0
 .00002201,0.00014524,0.00001556,0.00001126,0.00002661,-0.00000147,-0.0
 0001305,-0.00000581,0.00000105,-0.00000199,-0.00000894,-0.00000769,0.0
 0000137,-0.00000284,-0.00000604,0.00000538,0.00000414,0.00000034,-0.00
 000778,-0.00000769,-0.00000409,-0.00002717,-0.00001658,0.00003973,0.00
 004597,-0.00003838,0.00000965,-0.00006142,0.00000411,0.00011143,0.0000
 3044,-0.00001092,0.00034191,-0.00007486,0.00010700,-0.00015786,0.00068
 966,0.00127603,-0.00148788,-0.00425255,-0.01711295\\0.00000014,0.00000
 019,0.00000148,0.00000074,0.00000031,-0.00000165,-0.00000024,-0.000001
 57,0.00000260,-0.00000084,-0.00000098,0.00000172,-0.00000016,-0.000001
 30,0.00000011,-0.00000063,-0.00000102,0.00000160,-0.00000152,-0.000003
 05,0.00000263,-0.00000038,-0.00000179,0.00000272,-0.00000018,-0.000002
 83,0.00000253,0.00000081,-0.00000111,0.00000085,0.00000165,-0.00000196
 ,0.00000238,0.00000089,-0.00000234,0.00000205,-0.00000714,0.00000200,0
 .00000695,-0.00000136,-0.00000164,0.00000096,-0.00000246,-0.00000101,0
 .00000030,0.00000013,-0.00000041,0.00000033,0.00000077,0.00000017,0.00
 000048,0.00000249,-0.00000039,0.00000066,0.00000097,0.00000528,-0.0000
 0116,0.00000408,0.00000016,-0.00000124,0.00000128,0.00000127,-0.000001
 11,0.00000278,0.00000009,-0.00000097,0.00000685,-0.00001056,0.00000203
 ,-0.00000277,-0.00000221,-0.00000079,-0.00000023,0.00000409,-0.0000030
 2,-0.00000047,0.00000083,-0.00000199,0.00000418,0.00000079,-0.00000152
 ,-0.00001060,0.00000664,-0.00000144,0.00001330,0.00001759,-0.00000392,
 -0.00001656,-0.00001346,-0.00003792,-0.00000166,0.00000015,-0.00000015
 ,-0.00000211,-0.00000111,0.00000117,-0.00000152,-0.00000257,0.00000253
 ,-0.00000039,-0.00000315,0.00000323,0.00000098,-0.00000306,0.00000306,
 0.00000185,-0.00000225,0.00000213,0.00000224,-0.00000079,0.00000063,0.
 00000282,0.00000044,-0.00000057,0.00000253,0.00000171,-0.00000169,0.00
 000174,0.00000248,-0.00000264,0.00000043,0.00000308,-0.00000299,-0.000
 00101,0.00000298,-0.00000300,-0.00000263,0.00000245,-0.00000219,-0.000
 00220,0.00000083,-0.00000179,0.00000343,0.00000706,0.00002663\\\@


 WOMEN HOLD UP HALF THE SKY. -- MAO TSE TUNG
 Job cpu time:       2 days  2 hours 33 minutes 43.4 seconds.
 Elapsed time:       0 days  2 hours 32 minutes  6.3 seconds.
 File lengths (MBytes):  RWF=   4290 Int=      0 D2E=      0 Chk=     63 Scr=      1
 Normal termination of Gaussian 16 at Wed Jul 24 03:52:59 2019.
