 Entering Gaussian System, Link 0=/share/apps/gaussian16/g16/g16
 Initial command:
 /share/apps/gaussian16/g16/l1.exe "/home/amen01//scratch/703/Gau-48649.inp" -scrdir="/home/amen01//scratch/703/"
 Entering Link 1 = /share/apps/gaussian16/g16/l1.exe PID=     48650.
  
 Copyright (c) 1988-2017, Gaussian, Inc.  All Rights Reserved.
  
 This is part of the Gaussian(R) 16 program.  It is based on
 the Gaussian(R) 09 system (copyright 2009, Gaussian, Inc.),
 the Gaussian(R) 03 system (copyright 2003, Gaussian, Inc.),
 the Gaussian(R) 98 system (copyright 1998, Gaussian, Inc.),
 the Gaussian(R) 94 system (copyright 1995, Gaussian, Inc.),
 the Gaussian 92(TM) system (copyright 1992, Gaussian, Inc.),
 the Gaussian 90(TM) system (copyright 1990, Gaussian, Inc.),
 the Gaussian 88(TM) system (copyright 1988, Gaussian, Inc.),
 the Gaussian 86(TM) system (copyright 1986, Carnegie Mellon
 University), and the Gaussian 82(TM) system (copyright 1983,
 Carnegie Mellon University). Gaussian is a federally registered
 trademark of Gaussian, Inc.
  
 This software contains proprietary and confidential information,
 including trade secrets, belonging to Gaussian, Inc.
  
 This software is provided under written license and may be
 used, copied, transmitted, or stored only in accord with that
 written license.
  
 The following legend is applicable only to US Government
 contracts under FAR:
  
                    RESTRICTED RIGHTS LEGEND
  
 Use, reproduction and disclosure by the US Government is
 subject to restrictions as set forth in subparagraphs (a)
 and (c) of the Commercial Computer Software - Restricted
 Rights clause in FAR 52.227-19.
  
 Gaussian, Inc.
 340 Quinnipiac St., Bldg. 40, Wallingford CT 06492
  
  
 ---------------------------------------------------------------
 Warning -- This program may not be used in any manner that
 competes with the business of Gaussian, Inc. or will provide
 assistance to any competitor of Gaussian, Inc.  The licensee
 of this program is prohibited from giving any competitor of
 Gaussian, Inc. access to this program.  By using this program,
 the user acknowledges that Gaussian, Inc. is engaged in the
 business of creating and licensing software in the field of
 computational chemistry and represents and warrants to the
 licensee that it is not a competitor of Gaussian, Inc. and that
 it will not use this program in any manner prohibited above.
 ---------------------------------------------------------------
  

 Cite this work as:
 Gaussian 16, Revision B.01,
 M. J. Frisch, G. W. Trucks, H. B. Schlegel, G. E. Scuseria, 
 M. A. Robb, J. R. Cheeseman, G. Scalmani, V. Barone, 
 G. A. Petersson, H. Nakatsuji, X. Li, M. Caricato, A. V. Marenich, 
 J. Bloino, B. G. Janesko, R. Gomperts, B. Mennucci, H. P. Hratchian, 
 J. V. Ortiz, A. F. Izmaylov, J. L. Sonnenberg, D. Williams-Young, 
 F. Ding, F. Lipparini, F. Egidi, J. Goings, B. Peng, A. Petrone, 
 T. Henderson, D. Ranasinghe, V. G. Zakrzewski, J. Gao, N. Rega, 
 G. Zheng, W. Liang, M. Hada, M. Ehara, K. Toyota, R. Fukuda, 
 J. Hasegawa, M. Ishida, T. Nakajima, Y. Honda, O. Kitao, H. Nakai, 
 T. Vreven, K. Throssell, J. A. Montgomery, Jr., J. E. Peralta, 
 F. Ogliaro, M. J. Bearpark, J. J. Heyd, E. N. Brothers, K. N. Kudin, 
 V. N. Staroverov, T. A. Keith, R. Kobayashi, J. Normand, 
 K. Raghavachari, A. P. Rendell, J. C. Burant, S. S. Iyengar, 
 J. Tomasi, M. Cossi, J. M. Millam, M. Klene, C. Adamo, R. Cammi, 
 J. W. Ochterski, R. L. Martin, K. Morokuma, O. Farkas, 
 J. B. Foresman, and D. J. Fox, Gaussian, Inc., Wallingford CT, 2016.
 
 ******************************************
 Gaussian 16:  ES64L-G16RevB.01 20-Dec-2017
                23-Jul-2019 
 ******************************************
 %nprocshared=20
 Will use up to   20 processors via shared memory.
 %mem=180GB
 %chk=7-memb2-habsTSguess-3b.chk
 ---------------------------------------------------------------
 # opt=(ts,calcfc,noeigen) freq b3lyp/6-311+g(d,p) int=grid=fine
 ---------------------------------------------------------------
 1/5=1,10=4,11=1,18=20,26=3,38=1/1,3;
 2/9=110,12=2,17=6,18=5,40=1/2;
 3/5=4,6=6,7=111,11=2,25=1,30=1,71=2,74=-5,75=-4,140=1/1,2,3;
 4//1;
 5/5=2,38=5/2;
 8/6=4,10=90,11=11/1;
 11/6=1,8=1,9=11,15=111,16=1/1,2,10;
 10/6=1,13=1/2;
 6/7=2,8=2,9=2,10=2,28=1/1;
 7/10=1,18=20,25=1/1,2,3,16;
 1/5=1,10=4,11=1,18=20,26=3/3(2);
 2/9=110/2;
 99//99;
 2/9=110/2;
 3/5=4,6=6,7=111,11=2,25=1,30=1,71=1,74=-5,75=-4/1,2,3;
 4/5=5,16=3,69=1/1;
 5/5=2,38=5/2;
 7//1,2,3,16;
 1/5=1,11=1,18=20,26=3/3(-5);
 2/9=110/2;
 6/7=2,8=2,9=2,10=2,19=2,28=1/1;
 99/9=1/99;
 ----------------------
 7-memb2-habsTSguess-3b
 ----------------------
 Symbolic Z-matrix:
 Charge =  0 Multiplicity = 2
 C                    -0.68959  -0.92116  -0.15922 
 C                    -0.53542   0.52088  -0.2968 
 C                    -1.83799   1.04483  -0.39573 
 C                    -2.07328  -1.19508  -0.1591 
 C                    -2.77361   0.00137  -0.32258 
 C                    -2.69987  -2.38297   0.17917 
 C                    -4.13365  -2.29157   0.28467 
 C                    -4.81677  -1.08769   0.13675 
 C                    -4.12973   0.15027  -0.13767 
 C                    -2.2276    2.37552  -0.27871 
 C                    -3.66457   2.58106  -0.20096 
 C                    -4.56535   1.53536  -0.1332 
 C                     0.2059   -1.92394   0.16319 
 C                    -0.41515  -3.21365   0.45252 
 C                    -1.77908  -3.43896   0.47865 
 C                     0.54591   1.36813  -0.08386 
 C                     0.18294   2.78642  -0.02028 
 C                    -1.14899   3.25971  -0.11852 
 C                     1.92768   0.90888   0.08571 
 C                     2.87993   1.9458    0.2846 
 C                     2.49901   3.32475   0.36798 
 C                     1.21945   3.73667   0.21452 
 C                     2.4162   -0.48993  -0.02176 
 C                     3.85104  -0.65623  -0.07693 
 C                     4.74218   0.43352   0.14291 
 C                     4.27458   1.68281   0.35619 
 C                     4.46602  -1.90121  -0.34669 
 C                     3.71694  -3.0252   -0.55618 
 C                     2.33286  -2.92868  -0.4006 
 C                     1.66839  -1.74605  -0.08637 
 H                     0.37563  -1.53149   2.02369 
 H                     0.22736  -4.03511   0.74132 
 H                    -2.13895  -4.42095   0.76787 
 H                    -4.70527  -3.18117   0.52882 
 H                    -5.8934   -1.08612   0.27351 
 H                    -5.62109   1.76569  -0.03233 
 H                    -4.04567   3.59599  -0.1504 
 H                    -1.31109   4.32766  -0.01126 
 H                     0.96438   4.78916   0.27192 
 H                     3.28768   4.04847   0.54205 
 H                     4.95179   2.51071   0.53354 
 H                     5.80731   0.23115   0.13396 
 H                     5.54859  -1.93447  -0.39661 
 H                     4.17578  -3.97454  -0.80594 
 H                     1.74676  -3.82703  -0.53026 
 
 Add virtual bond connecting atoms H31        and C13        Dist= 3.61D+00.

 GradGradGradGradGradGradGradGradGradGradGradGradGradGradGradGradGradGrad
 Berny optimization.
 Initialization pass.
                           ----------------------------
                           !    Initial Parameters    !
                           ! (Angstroms and Degrees)  !
 --------------------------                            --------------------------
 ! Name  Definition              Value          Derivative Info.                !
 --------------------------------------------------------------------------------
 ! R1    R(1,2)                  1.4568         calculate D2E/DX2 analytically  !
 ! R2    R(1,4)                  1.4105         calculate D2E/DX2 analytically  !
 ! R3    R(1,13)                 1.3825         calculate D2E/DX2 analytically  !
 ! R4    R(2,3)                  1.4075         calculate D2E/DX2 analytically  !
 ! R5    R(2,16)                 1.3901         calculate D2E/DX2 analytically  !
 ! R6    R(3,5)                  1.4034         calculate D2E/DX2 analytically  !
 ! R7    R(3,10)                 1.3915         calculate D2E/DX2 analytically  !
 ! R8    R(4,5)                  1.396          calculate D2E/DX2 analytically  !
 ! R9    R(4,6)                  1.385          calculate D2E/DX2 analytically  !
 ! R10   R(5,9)                  1.3767         calculate D2E/DX2 analytically  !
 ! R11   R(6,7)                  1.4406         calculate D2E/DX2 analytically  !
 ! R12   R(6,15)                 1.4327         calculate D2E/DX2 analytically  !
 ! R13   R(7,8)                  1.3921         calculate D2E/DX2 analytically  !
 ! R14   R(7,34)                 1.0852         calculate D2E/DX2 analytically  !
 ! R15   R(8,9)                  1.4422         calculate D2E/DX2 analytically  !
 ! R16   R(8,35)                 1.0853         calculate D2E/DX2 analytically  !
 ! R17   R(9,12)                 1.452          calculate D2E/DX2 analytically  !
 ! R18   R(10,11)                1.4537         calculate D2E/DX2 analytically  !
 ! R19   R(10,18)                1.4039         calculate D2E/DX2 analytically  !
 ! R20   R(11,12)                1.3818         calculate D2E/DX2 analytically  !
 ! R21   R(11,37)                1.0853         calculate D2E/DX2 analytically  !
 ! R22   R(12,36)                1.0853         calculate D2E/DX2 analytically  !
 ! R23   R(13,14)                1.4604         calculate D2E/DX2 analytically  !
 ! R24   R(13,30)                1.4943         calculate D2E/DX2 analytically  !
 ! R25   R(13,31)                1.909          calculate D2E/DX2 analytically  !
 ! R26   R(14,15)                1.3827         calculate D2E/DX2 analytically  !
 ! R27   R(14,32)                1.0821         calculate D2E/DX2 analytically  !
 ! R28   R(15,33)                1.0851         calculate D2E/DX2 analytically  !
 ! R29   R(16,17)                1.4654         calculate D2E/DX2 analytically  !
 ! R30   R(16,19)                1.4659         calculate D2E/DX2 analytically  !
 ! R31   R(17,18)                1.4169         calculate D2E/DX2 analytically  !
 ! R32   R(17,22)                1.4256         calculate D2E/DX2 analytically  !
 ! R33   R(18,38)                1.0855         calculate D2E/DX2 analytically  !
 ! R34   R(19,20)                1.4218         calculate D2E/DX2 analytically  !
 ! R35   R(19,23)                1.4856         calculate D2E/DX2 analytically  !
 ! R36   R(20,21)                1.433          calculate D2E/DX2 analytically  !
 ! R37   R(20,26)                1.421          calculate D2E/DX2 analytically  !
 ! R38   R(21,22)                1.353          calculate D2E/DX2 analytically  !
 ! R39   R(21,40)                1.0845         calculate D2E/DX2 analytically  !
 ! R40   R(22,39)                1.0845         calculate D2E/DX2 analytically  !
 ! R41   R(23,24)                1.4455         calculate D2E/DX2 analytically  !
 ! R42   R(23,30)                1.4633         calculate D2E/DX2 analytically  !
 ! R43   R(24,25)                1.4248         calculate D2E/DX2 analytically  !
 ! R44   R(24,27)                1.4145         calculate D2E/DX2 analytically  !
 ! R45   R(25,26)                1.3509         calculate D2E/DX2 analytically  !
 ! R46   R(25,42)                1.0842         calculate D2E/DX2 analytically  !
 ! R47   R(26,41)                1.0842         calculate D2E/DX2 analytically  !
 ! R48   R(27,28)                1.3669         calculate D2E/DX2 analytically  !
 ! R49   R(27,43)                1.0842         calculate D2E/DX2 analytically  !
 ! R50   R(28,29)                1.3961         calculate D2E/DX2 analytically  !
 ! R51   R(28,44)                1.0836         calculate D2E/DX2 analytically  !
 ! R52   R(29,30)                1.3924         calculate D2E/DX2 analytically  !
 ! R53   R(29,45)                1.0804         calculate D2E/DX2 analytically  !
 ! A1    A(2,1,4)              107.2205         calculate D2E/DX2 analytically  !
 ! A2    A(2,1,13)             132.1804         calculate D2E/DX2 analytically  !
 ! A3    A(4,1,13)             119.6371         calculate D2E/DX2 analytically  !
 ! A4    A(1,2,3)              106.093          calculate D2E/DX2 analytically  !
 ! A5    A(1,2,16)             132.1573         calculate D2E/DX2 analytically  !
 ! A6    A(3,2,16)             120.2495         calculate D2E/DX2 analytically  !
 ! A7    A(2,3,5)              109.6662         calculate D2E/DX2 analytically  !
 ! A8    A(2,3,10)             127.5324         calculate D2E/DX2 analytically  !
 ! A9    A(5,3,10)             121.3313         calculate D2E/DX2 analytically  !
 ! A10   A(1,4,5)              109.0072         calculate D2E/DX2 analytically  !
 ! A11   A(1,4,6)              127.6182         calculate D2E/DX2 analytically  !
 ! A12   A(5,4,6)              122.4629         calculate D2E/DX2 analytically  !
 ! A13   A(3,5,4)              107.9929         calculate D2E/DX2 analytically  !
 ! A14   A(3,5,9)              125.6815         calculate D2E/DX2 analytically  !
 ! A15   A(4,5,9)              124.8296         calculate D2E/DX2 analytically  !
 ! A16   A(4,6,7)              114.4419         calculate D2E/DX2 analytically  !
 ! A17   A(4,6,15)             113.1074         calculate D2E/DX2 analytically  !
 ! A18   A(7,6,15)             132.1537         calculate D2E/DX2 analytically  !
 ! A19   A(6,7,8)              122.3777         calculate D2E/DX2 analytically  !
 ! A20   A(6,7,34)             119.2565         calculate D2E/DX2 analytically  !
 ! A21   A(8,7,34)             118.3159         calculate D2E/DX2 analytically  !
 ! A22   A(7,8,9)              121.924          calculate D2E/DX2 analytically  !
 ! A23   A(7,8,35)             118.3381         calculate D2E/DX2 analytically  !
 ! A24   A(9,8,35)             119.6914         calculate D2E/DX2 analytically  !
 ! A25   A(5,9,8)              113.7015         calculate D2E/DX2 analytically  !
 ! A26   A(5,9,12)             113.5223         calculate D2E/DX2 analytically  !
 ! A27   A(8,9,12)             132.4805         calculate D2E/DX2 analytically  !
 ! A28   A(3,10,11)            114.6132         calculate D2E/DX2 analytically  !
 ! A29   A(3,10,18)            113.3771         calculate D2E/DX2 analytically  !
 ! A30   A(11,10,18)           131.6306         calculate D2E/DX2 analytically  !
 ! A31   A(10,11,12)           122.684          calculate D2E/DX2 analytically  !
 ! A32   A(10,11,37)           118.8046         calculate D2E/DX2 analytically  !
 ! A33   A(12,11,37)           118.4565         calculate D2E/DX2 analytically  !
 ! A34   A(9,12,11)            121.746          calculate D2E/DX2 analytically  !
 ! A35   A(9,12,36)            119.6427         calculate D2E/DX2 analytically  !
 ! A36   A(11,12,36)           118.5607         calculate D2E/DX2 analytically  !
 ! A37   A(1,13,14)            114.287          calculate D2E/DX2 analytically  !
 ! A38   A(1,13,30)            120.5732         calculate D2E/DX2 analytically  !
 ! A39   A(1,13,31)             97.8022         calculate D2E/DX2 analytically  !
 ! A40   A(14,13,30)           123.6722         calculate D2E/DX2 analytically  !
 ! A41   A(14,13,31)            91.5061         calculate D2E/DX2 analytically  !
 ! A42   A(30,13,31)            92.939          calculate D2E/DX2 analytically  !
 ! A43   A(13,14,15)           124.5512         calculate D2E/DX2 analytically  !
 ! A44   A(13,14,32)           118.084          calculate D2E/DX2 analytically  !
 ! A45   A(15,14,32)           117.1913         calculate D2E/DX2 analytically  !
 ! A46   A(6,15,14)            120.6595         calculate D2E/DX2 analytically  !
 ! A47   A(6,15,33)            120.6359         calculate D2E/DX2 analytically  !
 ! A48   A(14,15,33)           118.6627         calculate D2E/DX2 analytically  !
 ! A49   A(2,16,17)            113.8201         calculate D2E/DX2 analytically  !
 ! A50   A(2,16,19)            124.0547         calculate D2E/DX2 analytically  !
 ! A51   A(17,16,19)           122.1186         calculate D2E/DX2 analytically  !
 ! A52   A(16,17,18)           123.5811         calculate D2E/DX2 analytically  !
 ! A53   A(16,17,22)           118.1759         calculate D2E/DX2 analytically  !
 ! A54   A(18,17,22)           118.1782         calculate D2E/DX2 analytically  !
 ! A55   A(10,18,17)           121.3159         calculate D2E/DX2 analytically  !
 ! A56   A(10,18,38)           121.0768         calculate D2E/DX2 analytically  !
 ! A57   A(17,18,38)           117.5257         calculate D2E/DX2 analytically  !
 ! A58   A(16,19,20)           114.7712         calculate D2E/DX2 analytically  !
 ! A59   A(16,19,23)           126.6262         calculate D2E/DX2 analytically  !
 ! A60   A(20,19,23)           118.4627         calculate D2E/DX2 analytically  !
 ! A61   A(19,20,21)           122.1331         calculate D2E/DX2 analytically  !
 ! A62   A(19,20,26)           121.9642         calculate D2E/DX2 analytically  !
 ! A63   A(21,20,26)           115.851          calculate D2E/DX2 analytically  !
 ! A64   A(20,21,22)           122.5314         calculate D2E/DX2 analytically  !
 ! A65   A(20,21,40)           117.2702         calculate D2E/DX2 analytically  !
 ! A66   A(22,21,40)           120.187          calculate D2E/DX2 analytically  !
 ! A67   A(17,22,21)           120.2224         calculate D2E/DX2 analytically  !
 ! A68   A(17,22,39)           118.9855         calculate D2E/DX2 analytically  !
 ! A69   A(21,22,39)           120.7915         calculate D2E/DX2 analytically  !
 ! A70   A(19,23,24)           115.9454         calculate D2E/DX2 analytically  !
 ! A71   A(19,23,30)           130.0481         calculate D2E/DX2 analytically  !
 ! A72   A(24,23,30)           114.0061         calculate D2E/DX2 analytically  !
 ! A73   A(23,24,25)           121.8003         calculate D2E/DX2 analytically  !
 ! A74   A(23,24,27)           122.6896         calculate D2E/DX2 analytically  !
 ! A75   A(25,24,27)           115.5099         calculate D2E/DX2 analytically  !
 ! A76   A(24,25,26)           121.0109         calculate D2E/DX2 analytically  !
 ! A77   A(24,25,42)           118.0609         calculate D2E/DX2 analytically  !
 ! A78   A(26,25,42)           120.9282         calculate D2E/DX2 analytically  !
 ! A79   A(20,26,25)           120.1928         calculate D2E/DX2 analytically  !
 ! A80   A(20,26,41)           118.6816         calculate D2E/DX2 analytically  !
 ! A81   A(25,26,41)           121.0513         calculate D2E/DX2 analytically  !
 ! A82   A(24,27,28)           120.9771         calculate D2E/DX2 analytically  !
 ! A83   A(24,27,43)           118.0263         calculate D2E/DX2 analytically  !
 ! A84   A(28,27,43)           120.9907         calculate D2E/DX2 analytically  !
 ! A85   A(27,28,29)           117.9934         calculate D2E/DX2 analytically  !
 ! A86   A(27,28,44)           121.5803         calculate D2E/DX2 analytically  !
 ! A87   A(29,28,44)           120.4003         calculate D2E/DX2 analytically  !
 ! A88   A(28,29,30)           123.844          calculate D2E/DX2 analytically  !
 ! A89   A(28,29,45)           117.8352         calculate D2E/DX2 analytically  !
 ! A90   A(30,29,45)           118.3206         calculate D2E/DX2 analytically  !
 ! A91   A(13,30,23)           126.513          calculate D2E/DX2 analytically  !
 ! A92   A(13,30,29)           113.8049         calculate D2E/DX2 analytically  !
 ! A93   A(23,30,29)           119.6812         calculate D2E/DX2 analytically  !
 ! D1    D(4,1,2,3)             -0.9636         calculate D2E/DX2 analytically  !
 ! D2    D(4,1,2,16)           164.615          calculate D2E/DX2 analytically  !
 ! D3    D(13,1,2,3)          -169.3373         calculate D2E/DX2 analytically  !
 ! D4    D(13,1,2,16)           -3.7587         calculate D2E/DX2 analytically  !
 ! D5    D(2,1,4,5)              1.4444         calculate D2E/DX2 analytically  !
 ! D6    D(2,1,4,6)           -167.7175         calculate D2E/DX2 analytically  !
 ! D7    D(13,1,4,5)           171.5509         calculate D2E/DX2 analytically  !
 ! D8    D(13,1,4,6)             2.3891         calculate D2E/DX2 analytically  !
 ! D9    D(2,1,13,14)          168.4319         calculate D2E/DX2 analytically  !
 ! D10   D(2,1,13,30)          -24.8945         calculate D2E/DX2 analytically  !
 ! D11   D(2,1,13,31)           73.2146         calculate D2E/DX2 analytically  !
 ! D12   D(4,1,13,14)            1.2271         calculate D2E/DX2 analytically  !
 ! D13   D(4,1,13,30)          167.9007         calculate D2E/DX2 analytically  !
 ! D14   D(4,1,13,31)          -93.9903         calculate D2E/DX2 analytically  !
 ! D15   D(1,2,3,5)              0.1415         calculate D2E/DX2 analytically  !
 ! D16   D(1,2,3,10)           166.2817         calculate D2E/DX2 analytically  !
 ! D17   D(16,2,3,5)          -167.5177         calculate D2E/DX2 analytically  !
 ! D18   D(16,2,3,10)           -1.3776         calculate D2E/DX2 analytically  !
 ! D19   D(1,2,16,17)         -165.5503         calculate D2E/DX2 analytically  !
 ! D20   D(1,2,16,19)           13.5276         calculate D2E/DX2 analytically  !
 ! D21   D(3,2,16,17)           -1.6322         calculate D2E/DX2 analytically  !
 ! D22   D(3,2,16,19)          177.4457         calculate D2E/DX2 analytically  !
 ! D23   D(2,3,5,4)              0.746          calculate D2E/DX2 analytically  !
 ! D24   D(2,3,5,9)            167.2809         calculate D2E/DX2 analytically  !
 ! D25   D(10,3,5,4)          -166.4043         calculate D2E/DX2 analytically  !
 ! D26   D(10,3,5,9)             0.1306         calculate D2E/DX2 analytically  !
 ! D27   D(2,3,10,11)         -169.9856         calculate D2E/DX2 analytically  !
 ! D28   D(2,3,10,18)            3.7825         calculate D2E/DX2 analytically  !
 ! D29   D(5,3,10,11)           -5.2982         calculate D2E/DX2 analytically  !
 ! D30   D(5,3,10,18)          168.4699         calculate D2E/DX2 analytically  !
 ! D31   D(1,4,5,3)             -1.3662         calculate D2E/DX2 analytically  !
 ! D32   D(1,4,5,9)           -168.0445         calculate D2E/DX2 analytically  !
 ! D33   D(6,4,5,3)            168.4664         calculate D2E/DX2 analytically  !
 ! D34   D(6,4,5,9)              1.7881         calculate D2E/DX2 analytically  !
 ! D35   D(1,4,6,7)            170.6212         calculate D2E/DX2 analytically  !
 ! D36   D(1,4,6,15)            -3.8947         calculate D2E/DX2 analytically  !
 ! D37   D(5,4,6,7)              2.785          calculate D2E/DX2 analytically  !
 ! D38   D(5,4,6,15)          -171.7309         calculate D2E/DX2 analytically  !
 ! D39   D(3,5,9,8)           -169.4944         calculate D2E/DX2 analytically  !
 ! D40   D(3,5,9,12)             5.0548         calculate D2E/DX2 analytically  !
 ! D41   D(4,5,9,8)             -5.1467         calculate D2E/DX2 analytically  !
 ! D42   D(4,5,9,12)           169.4025         calculate D2E/DX2 analytically  !
 ! D43   D(4,6,7,8)             -3.683          calculate D2E/DX2 analytically  !
 ! D44   D(4,6,7,34)           178.9295         calculate D2E/DX2 analytically  !
 ! D45   D(15,6,7,8)           169.5074         calculate D2E/DX2 analytically  !
 ! D46   D(15,6,7,34)           -7.8801         calculate D2E/DX2 analytically  !
 ! D47   D(4,6,15,14)            1.8098         calculate D2E/DX2 analytically  !
 ! D48   D(4,6,15,33)          179.4259         calculate D2E/DX2 analytically  !
 ! D49   D(7,6,15,14)         -171.4504         calculate D2E/DX2 analytically  !
 ! D50   D(7,6,15,33)            6.1656         calculate D2E/DX2 analytically  !
 ! D51   D(6,7,8,9)              0.2276         calculate D2E/DX2 analytically  !
 ! D52   D(6,7,8,35)          -177.2837         calculate D2E/DX2 analytically  !
 ! D53   D(34,7,8,9)           177.6386         calculate D2E/DX2 analytically  !
 ! D54   D(34,7,8,35)            0.1274         calculate D2E/DX2 analytically  !
 ! D55   D(7,8,9,5)              4.0758         calculate D2E/DX2 analytically  !
 ! D56   D(7,8,9,12)          -169.1419         calculate D2E/DX2 analytically  !
 ! D57   D(35,8,9,5)          -178.4458         calculate D2E/DX2 analytically  !
 ! D58   D(35,8,9,12)            8.3365         calculate D2E/DX2 analytically  !
 ! D59   D(5,9,12,11)           -4.9312         calculate D2E/DX2 analytically  !
 ! D60   D(5,9,12,36)          177.6925         calculate D2E/DX2 analytically  !
 ! D61   D(8,9,12,11)          168.2958         calculate D2E/DX2 analytically  !
 ! D62   D(8,9,12,36)           -9.0805         calculate D2E/DX2 analytically  !
 ! D63   D(3,10,11,12)           5.2782         calculate D2E/DX2 analytically  !
 ! D64   D(3,10,11,37)        -177.4582         calculate D2E/DX2 analytically  !
 ! D65   D(18,10,11,12)       -167.0609         calculate D2E/DX2 analytically  !
 ! D66   D(18,10,11,37)         10.2028         calculate D2E/DX2 analytically  !
 ! D67   D(3,10,18,17)          -3.1172         calculate D2E/DX2 analytically  !
 ! D68   D(3,10,18,38)        -179.751          calculate D2E/DX2 analytically  !
 ! D69   D(11,10,18,17)        169.2955         calculate D2E/DX2 analytically  !
 ! D70   D(11,10,18,38)         -7.3383         calculate D2E/DX2 analytically  !
 ! D71   D(10,11,12,9)          -0.1068         calculate D2E/DX2 analytically  !
 ! D72   D(10,11,12,36)        177.297          calculate D2E/DX2 analytically  !
 ! D73   D(37,11,12,9)        -177.3795         calculate D2E/DX2 analytically  !
 ! D74   D(37,11,12,36)          0.0243         calculate D2E/DX2 analytically  !
 ! D75   D(1,13,14,15)          -3.1291         calculate D2E/DX2 analytically  !
 ! D76   D(1,13,14,32)        -178.1952         calculate D2E/DX2 analytically  !
 ! D77   D(30,13,14,15)       -169.3333         calculate D2E/DX2 analytically  !
 ! D78   D(30,13,14,32)         15.6006         calculate D2E/DX2 analytically  !
 ! D79   D(31,13,14,15)         96.1272         calculate D2E/DX2 analytically  !
 ! D80   D(31,13,14,32)        -78.9389         calculate D2E/DX2 analytically  !
 ! D81   D(1,13,30,23)          32.446          calculate D2E/DX2 analytically  !
 ! D82   D(1,13,30,29)        -147.8848         calculate D2E/DX2 analytically  !
 ! D83   D(14,13,30,23)       -162.1768         calculate D2E/DX2 analytically  !
 ! D84   D(14,13,30,29)         17.4924         calculate D2E/DX2 analytically  !
 ! D85   D(31,13,30,23)        -68.4025         calculate D2E/DX2 analytically  !
 ! D86   D(31,13,30,29)        111.2667         calculate D2E/DX2 analytically  !
 ! D87   D(13,14,15,6)           1.5753         calculate D2E/DX2 analytically  !
 ! D88   D(13,14,15,33)       -176.0871         calculate D2E/DX2 analytically  !
 ! D89   D(32,14,15,6)         176.6816         calculate D2E/DX2 analytically  !
 ! D90   D(32,14,15,33)         -0.9808         calculate D2E/DX2 analytically  !
 ! D91   D(2,16,17,18)           2.0967         calculate D2E/DX2 analytically  !
 ! D92   D(2,16,17,22)         179.1113         calculate D2E/DX2 analytically  !
 ! D93   D(19,16,17,18)       -177.0013         calculate D2E/DX2 analytically  !
 ! D94   D(19,16,17,22)          0.0133         calculate D2E/DX2 analytically  !
 ! D95   D(2,16,19,20)         179.6509         calculate D2E/DX2 analytically  !
 ! D96   D(2,16,19,23)           4.0473         calculate D2E/DX2 analytically  !
 ! D97   D(17,16,19,20)         -1.3452         calculate D2E/DX2 analytically  !
 ! D98   D(17,16,19,23)       -176.9488         calculate D2E/DX2 analytically  !
 ! D99   D(16,17,18,10)          0.389          calculate D2E/DX2 analytically  !
 ! D100  D(16,17,18,38)        177.1381         calculate D2E/DX2 analytically  !
 ! D101  D(22,17,18,10)       -176.6256         calculate D2E/DX2 analytically  !
 ! D102  D(22,17,18,38)          0.1236         calculate D2E/DX2 analytically  !
 ! D103  D(16,17,22,21)          0.2129         calculate D2E/DX2 analytically  !
 ! D104  D(16,17,22,39)       -179.5196         calculate D2E/DX2 analytically  !
 ! D105  D(18,17,22,21)        177.3915         calculate D2E/DX2 analytically  !
 ! D106  D(18,17,22,39)         -2.341          calculate D2E/DX2 analytically  !
 ! D107  D(16,19,20,21)          2.531          calculate D2E/DX2 analytically  !
 ! D108  D(16,19,20,26)       -174.7464         calculate D2E/DX2 analytically  !
 ! D109  D(23,19,20,21)        178.5182         calculate D2E/DX2 analytically  !
 ! D110  D(23,19,20,26)          1.2409         calculate D2E/DX2 analytically  !
 ! D111  D(16,19,23,24)        168.1386         calculate D2E/DX2 analytically  !
 ! D112  D(16,19,23,30)        -11.6253         calculate D2E/DX2 analytically  !
 ! D113  D(20,19,23,24)         -7.3204         calculate D2E/DX2 analytically  !
 ! D114  D(20,19,23,30)        172.9158         calculate D2E/DX2 analytically  !
 ! D115  D(19,20,21,22)         -2.4971         calculate D2E/DX2 analytically  !
 ! D116  D(19,20,21,40)        178.7275         calculate D2E/DX2 analytically  !
 ! D117  D(26,20,21,22)        174.9363         calculate D2E/DX2 analytically  !
 ! D118  D(26,20,21,40)         -3.8391         calculate D2E/DX2 analytically  !
 ! D119  D(19,20,26,25)          4.5759         calculate D2E/DX2 analytically  !
 ! D120  D(19,20,26,41)       -178.5244         calculate D2E/DX2 analytically  !
 ! D121  D(21,20,26,25)       -172.8623         calculate D2E/DX2 analytically  !
 ! D122  D(21,20,26,41)          4.0374         calculate D2E/DX2 analytically  !
 ! D123  D(20,21,22,17)          0.9799         calculate D2E/DX2 analytically  !
 ! D124  D(20,21,22,39)       -179.2924         calculate D2E/DX2 analytically  !
 ! D125  D(40,21,22,17)        179.7206         calculate D2E/DX2 analytically  !
 ! D126  D(40,21,22,39)         -0.5517         calculate D2E/DX2 analytically  !
 ! D127  D(19,23,24,25)          8.2999         calculate D2E/DX2 analytically  !
 ! D128  D(19,23,24,27)       -171.8818         calculate D2E/DX2 analytically  !
 ! D129  D(30,23,24,25)       -171.8979         calculate D2E/DX2 analytically  !
 ! D130  D(30,23,24,27)          7.9203         calculate D2E/DX2 analytically  !
 ! D131  D(19,23,30,13)        -10.6355         calculate D2E/DX2 analytically  !
 ! D132  D(19,23,30,29)        169.7128         calculate D2E/DX2 analytically  !
 ! D133  D(24,23,30,13)        169.5969         calculate D2E/DX2 analytically  !
 ! D134  D(24,23,30,29)        -10.0547         calculate D2E/DX2 analytically  !
 ! D135  D(23,24,25,26)         -2.8678         calculate D2E/DX2 analytically  !
 ! D136  D(23,24,25,42)        177.1407         calculate D2E/DX2 analytically  !
 ! D137  D(27,24,25,26)        177.3016         calculate D2E/DX2 analytically  !
 ! D138  D(27,24,25,42)         -2.6898         calculate D2E/DX2 analytically  !
 ! D139  D(23,24,27,28)         -0.7467         calculate D2E/DX2 analytically  !
 ! D140  D(23,24,27,43)        178.3806         calculate D2E/DX2 analytically  !
 ! D141  D(25,24,27,28)        179.0822         calculate D2E/DX2 analytically  !
 ! D142  D(25,24,27,43)         -1.7905         calculate D2E/DX2 analytically  !
 ! D143  D(24,25,26,20)         -3.8016         calculate D2E/DX2 analytically  !
 ! D144  D(24,25,26,41)        179.3734         calculate D2E/DX2 analytically  !
 ! D145  D(42,25,26,20)        176.1897         calculate D2E/DX2 analytically  !
 ! D146  D(42,25,26,41)         -0.6354         calculate D2E/DX2 analytically  !
 ! D147  D(24,27,28,29)         -4.5475         calculate D2E/DX2 analytically  !
 ! D148  D(24,27,28,44)        177.3048         calculate D2E/DX2 analytically  !
 ! D149  D(43,27,28,29)        176.3512         calculate D2E/DX2 analytically  !
 ! D150  D(43,27,28,44)         -1.7965         calculate D2E/DX2 analytically  !
 ! D151  D(27,28,29,30)          2.116          calculate D2E/DX2 analytically  !
 ! D152  D(27,28,29,45)       -177.7416         calculate D2E/DX2 analytically  !
 ! D153  D(44,28,29,30)       -179.7136         calculate D2E/DX2 analytically  !
 ! D154  D(44,28,29,45)          0.4289         calculate D2E/DX2 analytically  !
 ! D155  D(28,29,30,13)       -174.1048         calculate D2E/DX2 analytically  !
 ! D156  D(28,29,30,23)          5.5892         calculate D2E/DX2 analytically  !
 ! D157  D(45,29,30,13)          5.752          calculate D2E/DX2 analytically  !
 ! D158  D(45,29,30,23)       -174.554          calculate D2E/DX2 analytically  !
 --------------------------------------------------------------------------------
 Trust Radius=3.00D-01 FncErr=1.00D-07 GrdErr=1.00D-06 EigMax=2.50D+02 EigMin=1.00D-04
 Number of steps in this run=    270 maximum allowed number of steps=    270.
 Search for a saddle point of order  1.
 GradGradGradGradGradGradGradGradGradGradGradGradGradGradGradGradGradGrad

                          Input orientation:                          
 ---------------------------------------------------------------------
 Center     Atomic      Atomic             Coordinates (Angstroms)
 Number     Number       Type             X           Y           Z
 ---------------------------------------------------------------------
      1          6           0       -0.689587   -0.921157   -0.159219
      2          6           0       -0.535423    0.520877   -0.296800
      3          6           0       -1.837993    1.044827   -0.395732
      4          6           0       -2.073279   -1.195075   -0.159095
      5          6           0       -2.773610    0.001374   -0.322583
      6          6           0       -2.699874   -2.382965    0.179165
      7          6           0       -4.133647   -2.291574    0.284665
      8          6           0       -4.816773   -1.087688    0.136752
      9          6           0       -4.129733    0.150274   -0.137666
     10          6           0       -2.227601    2.375520   -0.278712
     11          6           0       -3.664571    2.581059   -0.200955
     12          6           0       -4.565353    1.535364   -0.133200
     13          6           0        0.205895   -1.923942    0.163192
     14          6           0       -0.415146   -3.213654    0.452515
     15          6           0       -1.779075   -3.438956    0.478647
     16          6           0        0.545911    1.368131   -0.083864
     17          6           0        0.182943    2.786424   -0.020277
     18          6           0       -1.148990    3.259713   -0.118524
     19          6           0        1.927681    0.908875    0.085708
     20          6           0        2.879929    1.945795    0.284595
     21          6           0        2.499005    3.324754    0.367978
     22          6           0        1.219452    3.736665    0.214516
     23          6           0        2.416202   -0.489931   -0.021762
     24          6           0        3.851036   -0.656232   -0.076926
     25          6           0        4.742175    0.433520    0.142911
     26          6           0        4.274579    1.682809    0.356193
     27          6           0        4.466023   -1.901208   -0.346688
     28          6           0        3.716938   -3.025195   -0.556183
     29          6           0        2.332858   -2.928684   -0.400597
     30          6           0        1.668393   -1.746045   -0.086368
     31          1           0        0.375625   -1.531491    2.023688
     32          1           0        0.227364   -4.035107    0.741316
     33          1           0       -2.138947   -4.420952    0.767873
     34          1           0       -4.705272   -3.181168    0.528818
     35          1           0       -5.893396   -1.086118    0.273508
     36          1           0       -5.621089    1.765688   -0.032327
     37          1           0       -4.045667    3.595991   -0.150399
     38          1           0       -1.311088    4.327659   -0.011259
     39          1           0        0.964375    4.789162    0.271917
     40          1           0        3.287679    4.048466    0.542052
     41          1           0        4.951786    2.510713    0.533538
     42          1           0        5.807314    0.231152    0.133955
     43          1           0        5.548594   -1.934473   -0.396612
     44          1           0        4.175781   -3.974542   -0.805938
     45          1           0        1.746756   -3.827030   -0.530262
 ---------------------------------------------------------------------
                    Distance matrix (angstroms):
                    1          2          3          4          5
     1  C    0.000000
     2  C    1.456763   0.000000
     3  C    2.289076   1.407480   0.000000
     4  C    1.410544   2.308345   2.264623   0.000000
     5  C    2.284930   2.297831   1.403397   1.395952   0.000000
     6  C    2.508514   3.652901   3.580936   1.384963   2.437675
     7  C    3.733179   4.603824   4.106646   2.375784   2.734239
     8  C    4.141135   4.594062   3.701931   2.761488   2.360415
     9  C    3.603198   3.616868   2.473640   2.457524   1.376748
    10  C    3.639759   2.510676   1.391486   3.575930   2.436518
    11  C    4.595410   3.747680   2.394647   4.097945   2.731919
    12  C    4.588762   4.158880   2.783531   3.696810   2.366291
    13  C    1.382539   2.595821   3.647391   2.414488   3.580540
    14  C    2.388531   3.810861   4.569319   2.682934   4.061962
    15  C    2.816588   4.222353   4.568623   2.351228   3.669733
    16  C    2.602494   1.390131   2.425858   3.665493   3.597809
    17  C    3.811400   2.392743   2.694125   4.578443   4.072972
    18  C    4.206231   2.812378   2.336084   4.549845   3.646615
    19  C    3.202983   2.522645   3.798759   4.527054   4.805455
    20  C    4.599764   3.746070   4.851121   5.881853   6.009321
    21  C    5.335992   4.184664   4.958918   6.450771   6.270741
    22  C    5.047714   3.698962   4.119025   5.941694   5.494126
    23  C    3.138595   3.132007   4.538007   4.546595   5.221688
    24  C    4.549089   4.546972   5.946452   5.949337   6.661736
    25  C    5.606288   5.296604   6.630418   7.013839   7.542576
    26  C    5.629319   4.991253   6.191603   6.988780   7.277701
    27  C    5.251282   5.557288   6.958602   6.579991   7.485498
    28  C    4.899186   5.542967   6.888257   6.085526   7.165326
    29  C    3.636427   4.487458   5.760626   4.741072   5.887898
    30  C    2.499163   3.168599   4.492150   3.782719   4.779190
    31  H    2.504449   3.229069   4.170265   3.297703   4.215726
    32  H    3.368746   4.734609   5.600385   3.764237   5.141100
    33  H    3.899834   5.303441   5.596364   3.357062   4.598789
    34  H    4.659053   5.636881   5.189905   3.368260   3.819002
    35  H    5.224375   5.622771   4.629806   3.846077   3.357235
    36  H    5.617379   5.242471   3.868271   4.622677   3.362319
    37  H    5.627431   4.669001   3.382669   5.181187   3.816942
    38  H    5.287554   3.895482   3.347004   5.577041   4.577405
    39  H    5.960639   4.559725   4.724306   6.724894   6.103186
    40  H    6.403716   5.269124   6.014466   7.531680   7.339330
    41  H    6.639483   5.895623   7.008100   7.972712   8.167709
    42  H    6.604808   6.363946   7.706708   8.013972   8.596132
    43  H    6.324402   6.561552   7.964791   7.661336   8.544710
    44  H    5.780416   6.531727   7.843967   6.869832   8.020946
    45  H    3.810189   4.916009   6.050084   4.653775   5.927353
                    6          7          8          9         10
     6  C    0.000000
     7  C    1.440551   0.000000
     8  C    2.482096   1.392078   0.000000
     9  C    2.926120   2.478104   1.442179   0.000000
    10  C    4.803735   5.072689   4.343988   2.930822   0.000000
    11  C    5.071160   4.919188   3.860223   2.475701   1.453676
    12  C    4.350964   3.873814   2.648865   1.451985   2.488397
    13  C    2.941845   4.356780   5.091877   4.815658   4.960096
    14  C    2.446374   3.834795   4.898342   5.046036   5.921026
    15  C    1.432717   2.626428   3.856548   4.334513   5.880723
    16  C    4.967396   5.952102   5.902381   4.831948   2.957223
    17  C    5.922246   6.671732   6.326971   5.055912   2.458933
    18  C    5.859494   6.315657   5.693654   4.307413   1.403873
    19  C    5.679719   6.857270   7.033955   6.108816   4.421563
    20  C    7.062824   8.194238   8.274243   7.248280   5.156437
    21  C    7.722827   8.691499   8.546562   7.367032   4.864161
    22  C    7.267203   8.062274   7.727641   6.449807   3.738738
    23  C    5.458771   6.800025   7.259364   6.578188   5.462759
    24  C    6.779499   8.158447   8.681171   8.021647   6.795739
    25  C    7.957261   9.285820   9.679235   8.880862   7.247545
    26  C    8.074952   9.300489   9.506655   8.557162   6.569726
    27  C    7.201298   8.631646   9.330907   8.839643   7.943527
    28  C    6.490660   7.929496   8.778287   8.475199   8.036309
    29  C    5.095324   6.533849   7.402380   7.163393   6.996229
    30  C    4.422435   5.839429   6.522315   6.100567   5.674774
    31  H    3.685915   4.892388   5.542426   5.272384   5.229012
    32  H    3.407977   4.718777   5.873338   6.105270   6.939989
    33  H    2.194221   2.957460   4.322004   5.067478   6.877153
    34  H    2.186551   1.085239   2.132793   3.445860   6.137405
    35  H    3.448086   2.133065   1.085275   2.192769   5.072074
    36  H    5.078341   4.332937   2.969388   2.201091   3.456640
    37  H    6.137401   5.904273   4.755408   3.446766   2.193485
    38  H    6.855470   7.201990   6.452729   5.040961   2.173102
    39  H    8.054485   8.725068   8.244835   6.901955   4.039501
    40  H    8.794645   9.764140   9.603462   8.406897   5.821573
    41  H    9.089641  10.279542  10.417806   9.407241   7.226453
    42  H    8.899882  10.257171  10.705633   9.941088   8.326372
    43  H    8.280694   9.712747  10.413566   9.903698   8.891521
    44  H    7.125881   8.548005   9.491502   9.297433   9.033524
    45  H    4.728756   6.131955   7.143446   7.106772   7.370917
                   11         12         13         14         15
    11  C    0.000000
    12  C    1.381838   0.000000
    13  C    5.950474   5.900801   0.000000
    14  C    6.675664   6.334071   1.460396   0.000000
    15  C    6.344883   5.734245   2.516920   1.382659   0.000000
    16  C    4.383271   5.114237   3.318794   4.712121   5.369363
    17  C    3.857225   4.911641   4.713994   6.048320   6.546281
    18  C    2.606821   3.826896   5.365199   6.539808   6.754686
    19  C    5.843942   6.526860   3.315932   4.755905   5.726960
    20  C    6.593163   7.468282   4.705323   6.124184   7.123168
    21  C    6.234295   7.304673   5.731413   7.158925   8.003873
    22  C    5.036042   6.199242   5.750861   7.143913   7.781418
    23  C    6.814609   7.270237   2.641222   3.957289   5.152427
    24  C    8.184118   8.697233   3.866756   5.002102   6.304789
    25  C    8.683522   9.376587   5.112326   6.324215   7.591804
    26  C    8.009205   8.854696   5.440597   6.780719   7.930586
    27  C    9.285393   9.665472   4.290593   5.117328   6.484373
    28  C    9.275934   9.464352   3.749357   4.257594   5.607872
    29  C    8.146550   8.220982   2.418954   2.891459   4.235734
    30  C    6.868585   7.044816   1.494265   2.604881   3.882039
    31  H    6.179425   6.202502   1.908997   2.433840   3.266237
    32  H    7.733608   7.400342   2.188997   1.082132   2.109547
    33  H    7.231481   6.494388   3.478359   2.128029   1.085116
    34  H    5.900753   4.764821   5.082702   4.290927   2.937959
    35  H    4.317518   2.966695   6.157554   5.879598   4.744003
    36  H    2.126318   1.085266   6.899662   7.220164   6.489259
    37  H    1.085300   2.125218   6.974509   7.740507   7.417791
    38  H    2.936916   4.289758   6.435385   7.608495   7.796110
    39  H    5.150385   6.428780   6.756691   8.122854   8.675897
    40  H    7.144167   8.272953   6.731314   8.152136   9.040880
    41  H    8.647892   9.590192   6.505905   7.847223   8.983655
    42  H    9.764775  10.457751   6.001765   7.119493   8.434560
    43  H   10.262101  10.695844   5.371957   6.158207   7.531552
    44  H   10.237823  10.354664   4.572108   4.820712   6.115335
    45  H    8.393718   8.291903   2.544971   2.452733   3.687815
                   16         17         18         19         20
    16  C    0.000000
    17  C    1.465382   0.000000
    18  C    2.540073   1.416933   0.000000
    19  C    1.465933   2.565255   3.877377   0.000000
    20  C    2.432509   2.841362   4.256885   1.421807   0.000000
    21  C    2.801270   2.409291   3.680867   2.498511   1.433033
    22  C    2.480452   1.425636   2.438835   2.917975   2.443217
    23  C    2.637089   3.965091   5.174919   1.485551   2.498331
    24  C    3.875815   5.030904   6.351111   2.485016   2.800766
    25  C    4.305062   5.133165   6.539231   2.854928   2.403125
    26  C    3.767710   4.254548   5.668076   2.485974   1.421034
    27  C    5.111255   6.358082   7.629911   3.811393   4.208758
    28  C    5.438732   6.822846   7.960457   4.369253   5.110600
    29  C    4.664345   6.117944   7.106271   3.889411   4.952708
    30  C    3.310297   4.770137   5.744240   2.673096   3.903219
    31  H    3.588674   4.781141   5.465268   3.481383   4.624662
    32  H    5.475160   6.864057   7.473157   5.269142   6.558650
    33  H    6.437966   7.613056   7.794763   6.738684   8.121462
    34  H    6.974699   7.733583   7.385874   7.805182   9.158639
    35  H    6.900415   7.211434   6.445877   8.073693   9.282449
    36  H    6.180016   5.893118   4.715847   7.598157   8.508830
    37  H    5.103957   4.307374   2.916305   6.554176   7.132759
    38  H    3.494642   2.146536   1.085491   4.710320   4.829641
    39  H    3.464844   2.169556   2.637796   4.002407   3.428446
    40  H    3.885004   3.398286   4.554396   3.451793   2.157260
    41  H    4.593301   4.808804   6.181072   3.451326   2.161873
    42  H    5.387256   6.179543   7.591185   3.938679   3.395920
    43  H    6.002653   7.156725   8.480244   4.629068   4.758392
    44  H    6.499346   7.891177   9.008894   5.449472   6.157831
    45  H    5.350794   6.814937   7.666603   4.779221   5.939157
                   21         22         23         24         25
    21  C    0.000000
    22  C    1.352951   0.000000
    23  C    3.835437   4.399108   0.000000
    24  C    4.227786   5.129105   1.445492   0.000000
    25  C    3.666293   4.829645   2.507993   1.424786   0.000000
    26  C    2.418426   3.684046   2.883958   2.416215   1.350873
    27  C    5.629439   6.529991   2.509790   1.414548   2.401442
    28  C    6.531408   7.249425   2.899152   2.420672   3.674582
    29  C    6.302682   6.785640   2.469409   2.752029   4.171885
    30  C    5.158425   5.509282   1.463289   2.439613   3.775077
    31  H    5.552768   5.633703   3.071265   4.154171   5.144448
    32  H    7.711504   7.852528   4.235749   5.021684   6.380457
    33  H    9.036951   8.839217   6.068429   7.125075   8.444307
    34  H    9.708476   9.113592   7.632908   8.941624  10.122705
    35  H    9.481409   8.593912   8.336189   9.760203  10.744381
    36  H    8.278095   7.123109   8.347813   9.776954  10.450006
    37  H    6.570770   5.279624   7.646375   8.969098   9.344165
    38  H    3.958086   2.608425   6.091139   7.175723   7.199311
    39  H    2.123395   1.084486   5.482962   6.173072   5.767151
    40  H    1.084466   2.117088   4.655578   4.778565   3.916977
    41  H    2.589635   3.941453   3.967544   3.407911   2.123972
    42  H    4.535422   5.774391   3.470425   2.158459   1.084230
    43  H    6.127321   7.160779   3.469740   2.148907   2.559060
    44  H    7.580856   8.321293   3.981653   3.412931   4.544461
    45  H    7.247119   7.618545   3.441360   3.832423   5.251474
                   26         27         28         29         30
    26  C    0.000000
    27  C    3.657304   0.000000
    28  C    4.827908   1.366881   0.000000
    29  C    5.060522   2.368334   1.396137   0.000000
    30  C    4.329562   2.813996   2.460384   1.392440   0.000000
    31  H    5.321100   4.742017   4.477863   3.414684   2.483872
    32  H    7.015899   4.868625   3.857532   2.638417   2.828680
    33  H    8.863334   7.156604   6.163818   4.856874   4.730824
    34  H   10.214000   9.301476   8.493243   7.103720   6.562137
    35  H   10.538572  10.409927   9.839051   8.456992   7.599057
    36  H    9.903639  10.737541  10.508365   9.243269   8.091461
    37  H    8.552391  10.134426  10.210916   9.127955   7.822527
    38  H    6.191117   8.502136   8.924262   8.129234   6.765562
    39  H    4.540262   7.576626   8.326255   7.867030   6.582776
    40  H    2.569990   6.130006   7.171267   7.104991   6.049244
    41  H    1.084198   4.525020   5.775692   6.108881   5.411556
    42  H    2.122728   2.564574   3.930618   4.726749   4.592224
    43  H    3.908268   1.084232   2.137779   3.365922   3.897142
    44  H    5.776325   2.143330   1.083593   2.157426   3.430885
    45  H    6.126501   3.337200   2.127258   1.080442   2.129244
                   31         32         33         34         35
    31  H    0.000000
    32  H    2.816834   0.000000
    33  H    4.031021   2.397709   0.000000
    34  H    5.547214   5.010515   2.860111   0.000000
    35  H    6.523964   6.810219   5.045929   2.421994   0.000000
    36  H    7.145570   8.273581   7.144239   5.062113   2.881056
    37  H    7.110946   8.791337   8.291573   6.842974   5.051331
    38  H    6.427725   8.536338   8.822165   8.258005   7.098424
    39  H    6.585285   8.867426   9.731535   9.784531   9.030390
    40  H    6.466160   8.645773  10.061327  10.777525  10.522747
    41  H    6.284999   8.075339   9.918739  11.209652  11.429032
    42  H    6.015085   7.050227   9.229680  11.059580  11.775453
    43  H    5.725369   5.832927   8.163142  10.370749  11.492950
    44  H    5.330710   4.241186   6.523186   9.015771  10.530742
    45  H    3.697588   1.992174   4.139636   6.570194   8.156627
                   36         37         38         39         40
    36  H    0.000000
    37  H    2.417831   0.000000
    38  H    5.014005   2.834188   0.000000
    39  H    7.252744   5.167449   2.338997   0.000000
    40  H    9.214507   7.379850   4.640340   2.453435   0.000000
    41  H   10.614186   9.088441   6.543828   4.599915   2.265835
    42  H   11.532166  10.415576   8.214262   6.651958   4.592057
    43  H   11.772243  11.076845   9.296130   8.165125   6.464394
    44  H   11.381009  11.195307   9.983175   9.395606   8.183792
    45  H    9.263454   9.423253   8.724605   8.688750   8.096156
                   41         42         43         44         45
    41  H    0.000000
    42  H    2.467386   0.000000
    43  H    4.580506   2.244631   0.000000
    44  H    6.667452   4.607945   2.492799   0.000000
    45  H    7.181286   5.779114   4.248954   2.449065   0.000000
 Stoichiometry    C30H15(2)
 Framework group  C1[X(C30H15)]
 Deg. of freedom   129
 Full point group                 C1      NOp   1
 Largest Abelian subgroup         C1      NOp   1
 Largest concise Abelian subgroup C1      NOp   1
                         Standard orientation:                         
 ---------------------------------------------------------------------
 Center     Atomic      Atomic             Coordinates (Angstroms)
 Number     Number       Type             X           Y           Z
 ---------------------------------------------------------------------
      1          6           0       -0.689587   -0.921157   -0.159219
      2          6           0       -0.535423    0.520877   -0.296800
      3          6           0       -1.837993    1.044827   -0.395732
      4          6           0       -2.073279   -1.195075   -0.159095
      5          6           0       -2.773610    0.001374   -0.322583
      6          6           0       -2.699874   -2.382965    0.179165
      7          6           0       -4.133647   -2.291574    0.284665
      8          6           0       -4.816773   -1.087688    0.136752
      9          6           0       -4.129733    0.150274   -0.137666
     10          6           0       -2.227601    2.375520   -0.278712
     11          6           0       -3.664571    2.581059   -0.200955
     12          6           0       -4.565353    1.535364   -0.133200
     13          6           0        0.205895   -1.923942    0.163192
     14          6           0       -0.415146   -3.213654    0.452515
     15          6           0       -1.779075   -3.438956    0.478647
     16          6           0        0.545911    1.368131   -0.083864
     17          6           0        0.182943    2.786424   -0.020277
     18          6           0       -1.148990    3.259713   -0.118524
     19          6           0        1.927681    0.908875    0.085708
     20          6           0        2.879929    1.945795    0.284595
     21          6           0        2.499005    3.324754    0.367978
     22          6           0        1.219452    3.736665    0.214516
     23          6           0        2.416202   -0.489931   -0.021762
     24          6           0        3.851036   -0.656232   -0.076926
     25          6           0        4.742175    0.433520    0.142911
     26          6           0        4.274579    1.682809    0.356193
     27          6           0        4.466023   -1.901208   -0.346688
     28          6           0        3.716938   -3.025195   -0.556183
     29          6           0        2.332858   -2.928684   -0.400597
     30          6           0        1.668393   -1.746045   -0.086368
     31          1           0        0.375625   -1.531491    2.023688
     32          1           0        0.227364   -4.035107    0.741316
     33          1           0       -2.138947   -4.420952    0.767873
     34          1           0       -4.705272   -3.181168    0.528818
     35          1           0       -5.893396   -1.086118    0.273508
     36          1           0       -5.621089    1.765688   -0.032327
     37          1           0       -4.045667    3.595991   -0.150399
     38          1           0       -1.311088    4.327659   -0.011259
     39          1           0        0.964375    4.789162    0.271917
     40          1           0        3.287679    4.048466    0.542052
     41          1           0        4.951786    2.510713    0.533538
     42          1           0        5.807314    0.231152    0.133955
     43          1           0        5.548594   -1.934473   -0.396612
     44          1           0        4.175781   -3.974542   -0.805938
     45          1           0        1.746756   -3.827030   -0.530262
 ---------------------------------------------------------------------
 Rotational constants (GHZ):           0.2791811           0.1556795           0.1012946
 Standard basis: 6-311+G(d,p) (5D, 7F)
 There are   780 symmetry adapted cartesian basis functions of A   symmetry.
 There are   750 symmetry adapted basis functions of A   symmetry.
   750 basis functions,  1200 primitive gaussians,   780 cartesian basis functions
    98 alpha electrons       97 beta electrons
       nuclear repulsion energy      2601.4786093046 Hartrees.
 NAtoms=   45 NActive=   45 NUniq=   45 SFac= 1.00D+00 NAtFMM=   60 NAOKFM=F Big=F
 Integral buffers will be    131072 words long.
 Raffenetti 2 integral format.
 Two-electron integral symmetry is turned on.
 One-electron integrals computed using PRISM.
 NBasis=   750 RedAO= T EigKep=  1.11D-06  NBF=   750
 NBsUse=   727 1.00D-06 EigRej=  9.50D-07 NBFU=   727
 ExpMin= 4.38D-02 ExpMax= 4.56D+03 ExpMxC= 6.82D+02 IAcc=2 IRadAn=         4 AccDes= 0.00D+00
 Harris functional with IExCor=  402 and IRadAn=       4 diagonalized for initial guess.
 HarFok:  IExCor=  402 AccDes= 0.00D+00 IRadAn=         4 IDoV= 1 UseB2=F ITyADJ=14
 ICtDFT=  3500011 ScaDFX=  1.000000  1.000000  1.000000  1.000000
 FoFCou: FMM=F IPFlag=           0 FMFlag=      100000 FMFlg1=           0
         NFxFlg=           0 DoJE=T BraDBF=F KetDBF=T FulRan=T
         wScrn=  0.000000 ICntrl=       500 IOpCl=  0 I1Cent=   200000004 NGrid=           0
         NMat0=    1 NMatS0=      1 NMatT0=    0 NMatD0=    1 NMtDS0=    0 NMtDT0=    0
 Petite list used in FoFCou.
 Initial guess <Sx>= 0.0000 <Sy>= 0.0000 <Sz>= 0.5000 <S**2>= 0.7500 S= 0.5000
 Requested convergence on RMS density matrix=1.00D-08 within 128 cycles.
 Requested convergence on MAX density matrix=1.00D-06.
 Requested convergence on             energy=1.00D-06.
 No special actions if energy rises.
 Restarting incremental Fock formation.
 SCF Done:  E(UB3LYP) =  -1152.42258050     A.U. after   28 cycles
            NFock= 28  Conv=0.36D-08     -V/T= 2.0044
 <Sx>= 0.0000 <Sy>= 0.0000 <Sz>= 0.5000 <S**2>= 0.7742 S= 0.5120
 <L.S>=  0.00000000000    
 Annihilation of the first spin contaminant:
 S**2 before annihilation     0.7742,   after     0.7502
 DoSCS=F DFT=T ScalE2(SS,OS)=  1.000000  1.000000
 Range of M.O.s used for correlation:     1   727
 NBasis=   750 NAE=    98 NBE=    97 NFC=     0 NFV=     0
 NROrb=    727 NOA=    98 NOB=    97 NVA=   629 NVB=   630

 **** Warning!!: The largest alpha MO coefficient is  0.15180109D+03


 **** Warning!!: The largest beta MO coefficient is  0.14526525D+03


 **** Warning!!: The smallest beta delta epsilon is  0.98088338D-01

 Symmetrizing basis deriv contribution to polar:
 IMax=3 JMax=2 DiffMx= 0.00D+00
 G2DrvN: will do    46 centers at a time, making    1 passes.
 Calling FoFCou, ICntrl=  3107 FMM=F I1Cent=   0 AccDes= 0.00D+00.
 End of G2Drv F.D. properties file   721 does not exist.
 End of G2Drv F.D. properties file   722 does not exist.
 End of G2Drv F.D. properties file   788 does not exist.
          IDoAtm=111111111111111111111111111111111111111111111
          Differentiating once with respect to nuclear coordinates.
 CalDSu exits because no D1Ps are significant.
          There are   138 degrees of freedom in the 1st order CPHF.  IDoFFX=6 NUNeed=     0.
    132 vectors produced by pass  0 Test12= 1.23D-13 1.00D-09 XBig12= 5.70D-01 1.79D-01.
 AX will form   132 AO Fock derivatives at one time.
    132 vectors produced by pass  1 Test12= 1.23D-13 1.00D-09 XBig12= 1.57D-01 5.96D-02.
    132 vectors produced by pass  2 Test12= 1.23D-13 1.00D-09 XBig12= 3.08D-03 9.45D-03.
    132 vectors produced by pass  3 Test12= 1.23D-13 1.00D-09 XBig12= 4.70D-05 8.83D-04.
    132 vectors produced by pass  4 Test12= 1.23D-13 1.00D-09 XBig12= 4.54D-07 8.16D-05.
    132 vectors produced by pass  5 Test12= 1.23D-13 1.00D-09 XBig12= 2.27D-09 3.04D-06.
    130 vectors produced by pass  6 Test12= 1.23D-13 1.00D-09 XBig12= 1.13D-10 7.24D-07.
    111 vectors produced by pass  7 Test12= 1.23D-13 1.00D-09 XBig12= 2.47D-11 3.01D-07.
     83 vectors produced by pass  8 Test12= 1.23D-13 1.00D-09 XBig12= 3.02D-12 8.67D-08.
     37 vectors produced by pass  9 Test12= 1.23D-13 1.00D-09 XBig12= 6.25D-14 1.23D-08.
      4 vectors produced by pass 10 Test12= 1.23D-13 1.00D-09 XBig12= 7.95D-16 1.48D-09.
      4 vectors produced by pass 11 Test12= 1.23D-13 1.00D-09 XBig12= 8.97D-16 1.69D-09.
      3 vectors produced by pass 12 Test12= 1.23D-13 1.00D-09 XBig12= 1.62D-15 1.96D-09.
      3 vectors produced by pass 13 Test12= 1.23D-13 1.00D-09 XBig12= 8.71D-16 1.80D-09.
      3 vectors produced by pass 14 Test12= 1.23D-13 1.00D-09 XBig12= 7.51D-16 1.47D-09.
      1 vectors produced by pass 15 Test12= 1.23D-13 1.00D-09 XBig12= 1.30D-15 1.83D-09.
 InvSVY:  IOpt=1 It=  1 EMax= 1.11D-15
 Solved reduced A of dimension  1171 with   138 vectors.
 End of Minotr F.D. properties file   721 does not exist.
 End of Minotr F.D. properties file   722 does not exist.
 End of Minotr F.D. properties file   788 does not exist.

 **********************************************************************

            Population analysis using the SCF Density.

 **********************************************************************

 Orbital symmetries:
 Alpha Orbitals:
       Occupied  (A) (A) (A) (A) (A) (A) (A) (A) (A) (A) (A) (A)
                 (A) (A) (A) (A) (A) (A) (A) (A) (A) (A) (A) (A)
                 (A) (A) (A) (A) (A) (A) (A) (A) (A) (A) (A) (A)
                 (A) (A) (A) (A) (A) (A) (A) (A) (A) (A) (A) (A)
                 (A) (A) (A) (A) (A) (A) (A) (A) (A) (A) (A) (A)
                 (A) (A) (A) (A) (A) (A) (A) (A) (A) (A) (A) (A)
                 (A) (A) (A) (A) (A) (A) (A) (A) (A) (A) (A) (A)
                 (A) (A) (A) (A) (A) (A) (A) (A) (A) (A) (A) (A)
                 (A) (A)
       Virtual   (A) (A) (A) (A) (A) (A) (A) (A) (A) (A) (A) (A)
                 (A) (A) (A) (A) (A) (A) (A) (A) (A) (A) (A) (A)
                 (A) (A) (A) (A) (A) (A) (A) (A) (A) (A) (A) (A)
                 (A) (A) (A) (A) (A) (A) (A) (A) (A) (A) (A) (A)
                 (A) (A) (A) (A) (A) (A) (A) (A) (A) (A) (A) (A)
                 (A) (A) (A) (A) (A) (A) (A) (A) (A) (A) (A) (A)
                 (A) (A) (A) (A) (A) (A) (A) (A) (A) (A) (A) (A)
                 (A) (A) (A) (A) (A) (A) (A) (A) (A) (A) (A) (A)
                 (A) (A) (A) (A) (A) (A) (A) (A) (A) (A) (A) (A)
                 (A) (A) (A) (A) (A) (A) (A) (A) (A) (A) (A) (A)
                 (A) (A) (A) (A) (A) (A) (A) (A) (A) (A) (A) (A)
                 (A) (A) (A) (A) (A) (A) (A) (A) (A) (A) (A) (A)
                 (A) (A) (A) (A) (A) (A) (A) (A) (A) (A) (A) (A)
                 (A) (A) (A) (A) (A) (A) (A) (A) (A) (A) (A) (A)
                 (A) (A) (A) (A) (A) (A) (A) (A) (A) (A) (A) (A)
                 (A) (A) (A) (A) (A) (A) (A) (A) (A) (A) (A) (A)
                 (A) (A) (A) (A) (A) (A) (A) (A) (A) (A) (A) (A)
                 (A) (A) (A) (A) (A) (A) (A) (A) (A) (A) (A) (A)
                 (A) (A) (A) (A) (A) (A) (A) (A) (A) (A) (A) (A)
                 (A) (A) (A) (A) (A) (A) (A) (A) (A) (A) (A) (A)
                 (A) (A) (A) (A) (A) (A) (A) (A) (A) (A) (A) (A)
                 (A) (A) (A) (A) (A) (A) (A) (A) (A) (A) (A) (A)
                 (A) (A) (A) (A) (A) (A) (A) (A) (A) (A) (A) (A)
                 (A) (A) (A) (A) (A) (A) (A) (A) (A) (A) (A) (A)
                 (A) (A) (A) (A) (A) (A) (A) (A) (A) (A) (A) (A)
                 (A) (A) (A) (A) (A) (A) (A) (A) (A) (A) (A) (A)
                 (A) (A) (A) (A) (A) (A) (A) (A) (A) (A) (A) (A)
                 (A) (A) (A) (A) (A) (A) (A) (A) (A) (A) (A) (A)
                 (A) (A) (A) (A) (A) (A) (A) (A) (A) (A) (A) (A)
                 (A) (A) (A) (A) (A) (A) (A) (A) (A) (A) (A) (A)
                 (A) (A) (A) (A) (A) (A) (A) (A) (A) (A) (A) (A)
                 (A) (A) (A) (A) (A) (A) (A) (A) (A) (A) (A) (A)
                 (A) (A) (A) (A) (A) (A) (A) (A) (A) (A) (A) (A)
                 (A) (A) (A) (A) (A) (A) (A) (A) (A) (A) (A) (A)
                 (A) (A) (A) (A) (A) (A) (A) (A) (A) (A) (A) (A)
                 (A) (A) (A) (A) (A) (A) (A) (A) (A) (A) (A) (A)
                 (A) (A) (A) (A) (A) (A) (A) (A) (A) (A) (A) (A)
                 (A) (A) (A) (A) (A) (A) (A) (A) (A) (A) (A) (A)
                 (A) (A) (A) (A) (A) (A) (A) (A) (A) (A) (A) (A)
                 (A) (A) (A) (A) (A) (A) (A) (A) (A) (A) (A) (A)
                 (A) (A) (A) (A) (A) (A) (A) (A) (A) (A) (A) (A)
                 (A) (A) (A) (A) (A) (A) (A) (A) (A) (A) (A) (A)
                 (A) (A) (A) (A) (A) (A) (A) (A) (A) (A) (A) (A)
                 (A) (A) (A) (A) (A) (A) (A) (A) (A) (A) (A) (A)
                 (A) (A) (A) (A) (A) (A) (A) (A) (A) (A) (A) (A)
                 (A) (A) (A) (A) (A) (A) (A) (A) (A) (A) (A) (A)
                 (A) (A) (A) (A) (A) (A) (A) (A) (A) (A) (A) (A)
                 (A) (A) (A) (A) (A) (A) (A) (A) (A) (A) (A) (A)
                 (A) (A) (A) (A) (A) (A) (A) (A) (A) (A) (A) (A)
                 (A) (A) (A) (A) (A) (A) (A) (A) (A) (A) (A) (A)
                 (A) (A) (A) (A) (A) (A) (A) (A) (A) (A) (A) (A)
                 (A) (A) (A) (A) (A) (A) (A) (A) (A) (A) (A) (A)
                 (A) (A) (A) (A) (A)
 Beta  Orbitals:
       Occupied  (A) (A) (A) (A) (A) (A) (A) (A) (A) (A) (A) (A)
                 (A) (A) (A) (A) (A) (A) (A) (A) (A) (A) (A) (A)
                 (A) (A) (A) (A) (A) (A) (A) (A) (A) (A) (A) (A)
                 (A) (A) (A) (A) (A) (A) (A) (A) (A) (A) (A) (A)
                 (A) (A) (A) (A) (A) (A) (A) (A) (A) (A) (A) (A)
                 (A) (A) (A) (A) (A) (A) (A) (A) (A) (A) (A) (A)
                 (A) (A) (A) (A) (A) (A) (A) (A) (A) (A) (A) (A)
                 (A) (A) (A) (A) (A) (A) (A) (A) (A) (A) (A) (A)
                 (A)
       Virtual   (A) (A) (A) (A) (A) (A) (A) (A) (A) (A) (A) (A)
                 (A) (A) (A) (A) (A) (A) (A) (A) (A) (A) (A) (A)
                 (A) (A) (A) (A) (A) (A) (A) (A) (A) (A) (A) (A)
                 (A) (A) (A) (A) (A) (A) (A) (A) (A) (A) (A) (A)
                 (A) (A) (A) (A) (A) (A) (A) (A) (A) (A) (A) (A)
                 (A) (A) (A) (A) (A) (A) (A) (A) (A) (A) (A) (A)
                 (A) (A) (A) (A) (A) (A) (A) (A) (A) (A) (A) (A)
                 (A) (A) (A) (A) (A) (A) (A) (A) (A) (A) (A) (A)
                 (A) (A) (A) (A) (A) (A) (A) (A) (A) (A) (A) (A)
                 (A) (A) (A) (A) (A) (A) (A) (A) (A) (A) (A) (A)
                 (A) (A) (A) (A) (A) (A) (A) (A) (A) (A) (A) (A)
                 (A) (A) (A) (A) (A) (A) (A) (A) (A) (A) (A) (A)
                 (A) (A) (A) (A) (A) (A) (A) (A) (A) (A) (A) (A)
                 (A) (A) (A) (A) (A) (A) (A) (A) (A) (A) (A) (A)
                 (A) (A) (A) (A) (A) (A) (A) (A) (A) (A) (A) (A)
                 (A) (A) (A) (A) (A) (A) (A) (A) (A) (A) (A) (A)
                 (A) (A) (A) (A) (A) (A) (A) (A) (A) (A) (A) (A)
                 (A) (A) (A) (A) (A) (A) (A) (A) (A) (A) (A) (A)
                 (A) (A) (A) (A) (A) (A) (A) (A) (A) (A) (A) (A)
                 (A) (A) (A) (A) (A) (A) (A) (A) (A) (A) (A) (A)
                 (A) (A) (A) (A) (A) (A) (A) (A) (A) (A) (A) (A)
                 (A) (A) (A) (A) (A) (A) (A) (A) (A) (A) (A) (A)
                 (A) (A) (A) (A) (A) (A) (A) (A) (A) (A) (A) (A)
                 (A) (A) (A) (A) (A) (A) (A) (A) (A) (A) (A) (A)
                 (A) (A) (A) (A) (A) (A) (A) (A) (A) (A) (A) (A)
                 (A) (A) (A) (A) (A) (A) (A) (A) (A) (A) (A) (A)
                 (A) (A) (A) (A) (A) (A) (A) (A) (A) (A) (A) (A)
                 (A) (A) (A) (A) (A) (A) (A) (A) (A) (A) (A) (A)
                 (A) (A) (A) (A) (A) (A) (A) (A) (A) (A) (A) (A)
                 (A) (A) (A) (A) (A) (A) (A) (A) (A) (A) (A) (A)
                 (A) (A) (A) (A) (A) (A) (A) (A) (A) (A) (A) (A)
                 (A) (A) (A) (A) (A) (A) (A) (A) (A) (A) (A) (A)
                 (A) (A) (A) (A) (A) (A) (A) (A) (A) (A) (A) (A)
                 (A) (A) (A) (A) (A) (A) (A) (A) (A) (A) (A) (A)
                 (A) (A) (A) (A) (A) (A) (A) (A) (A) (A) (A) (A)
                 (A) (A) (A) (A) (A) (A) (A) (A) (A) (A) (A) (A)
                 (A) (A) (A) (A) (A) (A) (A) (A) (A) (A) (A) (A)
                 (A) (A) (A) (A) (A) (A) (A) (A) (A) (A) (A) (A)
                 (A) (A) (A) (A) (A) (A) (A) (A) (A) (A) (A) (A)
                 (A) (A) (A) (A) (A) (A) (A) (A) (A) (A) (A) (A)
                 (A) (A) (A) (A) (A) (A) (A) (A) (A) (A) (A) (A)
                 (A) (A) (A) (A) (A) (A) (A) (A) (A) (A) (A) (A)
                 (A) (A) (A) (A) (A) (A) (A) (A) (A) (A) (A) (A)
                 (A) (A) (A) (A) (A) (A) (A) (A) (A) (A) (A) (A)
                 (A) (A) (A) (A) (A) (A) (A) (A) (A) (A) (A) (A)
                 (A) (A) (A) (A) (A) (A) (A) (A) (A) (A) (A) (A)
                 (A) (A) (A) (A) (A) (A) (A) (A) (A) (A) (A) (A)
                 (A) (A) (A) (A) (A) (A) (A) (A) (A) (A) (A) (A)
                 (A) (A) (A) (A) (A) (A) (A) (A) (A) (A) (A) (A)
                 (A) (A) (A) (A) (A) (A) (A) (A) (A) (A) (A) (A)
                 (A) (A) (A) (A) (A) (A) (A) (A) (A) (A) (A) (A)
                 (A) (A) (A) (A) (A) (A) (A) (A) (A) (A) (A) (A)
                 (A) (A) (A) (A) (A) (A)
 The electronic state is 2-A.
 Alpha  occ. eigenvalues --  -10.21769 -10.21673 -10.21005 -10.20850 -10.20749
 Alpha  occ. eigenvalues --  -10.19889 -10.19701 -10.19662 -10.19537 -10.19500
 Alpha  occ. eigenvalues --  -10.19374 -10.19362 -10.19336 -10.19281 -10.19263
 Alpha  occ. eigenvalues --  -10.19249 -10.19240 -10.19005 -10.18919 -10.18608
 Alpha  occ. eigenvalues --  -10.18247 -10.18221 -10.18220 -10.18140 -10.18102
 Alpha  occ. eigenvalues --  -10.18071 -10.18070 -10.17054 -10.17000 -10.16923
 Alpha  occ. eigenvalues --   -0.92669  -0.89371  -0.87968  -0.85751  -0.85137
 Alpha  occ. eigenvalues --   -0.82784  -0.81189  -0.80531  -0.78975  -0.76349
 Alpha  occ. eigenvalues --   -0.75946  -0.74978  -0.73309  -0.71937  -0.71180
 Alpha  occ. eigenvalues --   -0.67090  -0.65975  -0.63849  -0.63710  -0.62176
 Alpha  occ. eigenvalues --   -0.60746  -0.60288  -0.58685  -0.56986  -0.55280
 Alpha  occ. eigenvalues --   -0.53397  -0.51921  -0.51640  -0.51055  -0.50461
 Alpha  occ. eigenvalues --   -0.49838  -0.47863  -0.47192  -0.45852  -0.45192
 Alpha  occ. eigenvalues --   -0.44822  -0.44587  -0.44478  -0.44137  -0.43213
 Alpha  occ. eigenvalues --   -0.42549  -0.41941  -0.41537  -0.41101  -0.40466
 Alpha  occ. eigenvalues --   -0.40379  -0.40059  -0.39122  -0.37875  -0.37327
 Alpha  occ. eigenvalues --   -0.36441  -0.36048  -0.35765  -0.35457  -0.34619
 Alpha  occ. eigenvalues --   -0.33639  -0.33288  -0.32816  -0.32404  -0.31359
 Alpha  occ. eigenvalues --   -0.29499  -0.27658  -0.26048  -0.25294  -0.23753
 Alpha  occ. eigenvalues --   -0.23292  -0.21484  -0.19517
 Alpha virt. eigenvalues --   -0.08954  -0.07008  -0.05370  -0.03356  -0.03167
 Alpha virt. eigenvalues --   -0.00643   0.00022   0.00512   0.00556   0.01170
 Alpha virt. eigenvalues --    0.01516   0.01529   0.01791   0.02727   0.02984
 Alpha virt. eigenvalues --    0.03223   0.03525   0.04132   0.04506   0.04708
 Alpha virt. eigenvalues --    0.04826   0.04910   0.05352   0.05652   0.06385
 Alpha virt. eigenvalues --    0.06799   0.06828   0.07528   0.07884   0.08340
 Alpha virt. eigenvalues --    0.08486   0.08706   0.08934   0.09327   0.09574
 Alpha virt. eigenvalues --    0.09890   0.10610   0.10887   0.11448   0.11499
 Alpha virt. eigenvalues --    0.11768   0.11807   0.12126   0.12470   0.12774
 Alpha virt. eigenvalues --    0.12947   0.13201   0.14044   0.14524   0.14644
 Alpha virt. eigenvalues --    0.15148   0.15354   0.15744   0.15935   0.16274
 Alpha virt. eigenvalues --    0.16315   0.16516   0.16595   0.16814   0.16851
 Alpha virt. eigenvalues --    0.17184   0.17310   0.17695   0.17963   0.18043
 Alpha virt. eigenvalues --    0.18170   0.18293   0.18974   0.18999   0.19174
 Alpha virt. eigenvalues --    0.19316   0.19516   0.20011   0.20070   0.20238
 Alpha virt. eigenvalues --    0.20614   0.20807   0.21059   0.21260   0.21511
 Alpha virt. eigenvalues --    0.21674   0.21903   0.22071   0.22331   0.22425
 Alpha virt. eigenvalues --    0.22791   0.23000   0.23470   0.23562   0.23693
 Alpha virt. eigenvalues --    0.23803   0.23918   0.24246   0.24424   0.24821
 Alpha virt. eigenvalues --    0.24999   0.25511   0.25680   0.25785   0.25928
 Alpha virt. eigenvalues --    0.26279   0.26567   0.26755   0.26894   0.27047
 Alpha virt. eigenvalues --    0.27536   0.27816   0.28337   0.28606   0.28706
 Alpha virt. eigenvalues --    0.29105   0.29292   0.29892   0.30003   0.30074
 Alpha virt. eigenvalues --    0.30421   0.30618   0.31292   0.31317   0.31743
 Alpha virt. eigenvalues --    0.32160   0.32386   0.32846   0.33116   0.33632
 Alpha virt. eigenvalues --    0.33645   0.33997   0.34269   0.34812   0.34934
 Alpha virt. eigenvalues --    0.35433   0.35510   0.36416   0.36572   0.37349
 Alpha virt. eigenvalues --    0.37610   0.38019   0.38368   0.38752   0.38921
 Alpha virt. eigenvalues --    0.39630   0.40018   0.40601   0.41053   0.41625
 Alpha virt. eigenvalues --    0.42463   0.42687   0.43544   0.43904   0.44754
 Alpha virt. eigenvalues --    0.45777   0.46402   0.47049   0.47616   0.47998
 Alpha virt. eigenvalues --    0.48801   0.49125   0.49760   0.50434   0.50853
 Alpha virt. eigenvalues --    0.51132   0.51938   0.51986   0.52991   0.53113
 Alpha virt. eigenvalues --    0.53412   0.54138   0.54335   0.54696   0.55100
 Alpha virt. eigenvalues --    0.55694   0.56008   0.56203   0.56486   0.56868
 Alpha virt. eigenvalues --    0.57697   0.57878   0.58062   0.58708   0.58901
 Alpha virt. eigenvalues --    0.59246   0.59336   0.59888   0.60375   0.60628
 Alpha virt. eigenvalues --    0.61052   0.61180   0.61492   0.61760   0.61999
 Alpha virt. eigenvalues --    0.62809   0.63557   0.64082   0.64145   0.64451
 Alpha virt. eigenvalues --    0.64804   0.65484   0.65952   0.66425   0.66702
 Alpha virt. eigenvalues --    0.67413   0.67729   0.68859   0.69099   0.69341
 Alpha virt. eigenvalues --    0.69692   0.70044   0.70615   0.70831   0.70898
 Alpha virt. eigenvalues --    0.71319   0.71550   0.71809   0.72259   0.72471
 Alpha virt. eigenvalues --    0.73057   0.73203   0.73527   0.74085   0.74495
 Alpha virt. eigenvalues --    0.74659   0.74842   0.75389   0.75807   0.76298
 Alpha virt. eigenvalues --    0.76738   0.77144   0.77308   0.77553   0.78506
 Alpha virt. eigenvalues --    0.79166   0.79773   0.81442   0.82716   0.83037
 Alpha virt. eigenvalues --    0.83549   0.84134   0.84725   0.85317   0.86207
 Alpha virt. eigenvalues --    0.86798   0.87085   0.87128   0.87981   0.88560
 Alpha virt. eigenvalues --    0.88889   0.89571   0.89966   0.90639   0.90864
 Alpha virt. eigenvalues --    0.91331   0.91699   0.92125   0.92625   0.93043
 Alpha virt. eigenvalues --    0.93198   0.93417   0.93695   0.94019   0.94437
 Alpha virt. eigenvalues --    0.94568   0.94908   0.95441   0.95942   0.96340
 Alpha virt. eigenvalues --    0.96757   0.97051   0.97353   0.97751   0.98257
 Alpha virt. eigenvalues --    0.98794   0.98884   0.99713   1.00310   1.00545
 Alpha virt. eigenvalues --    1.01011   1.01810   1.02705   1.03017   1.04010
 Alpha virt. eigenvalues --    1.04420   1.04678   1.05303   1.06099   1.06686
 Alpha virt. eigenvalues --    1.07191   1.07793   1.08047   1.09209   1.09645
 Alpha virt. eigenvalues --    1.10755   1.11547   1.12809   1.13108   1.13898
 Alpha virt. eigenvalues --    1.14668   1.15541   1.16742   1.17367   1.18030
 Alpha virt. eigenvalues --    1.18517   1.19045   1.20388   1.21063   1.22237
 Alpha virt. eigenvalues --    1.23873   1.25988   1.26292   1.27947   1.28740
 Alpha virt. eigenvalues --    1.30718   1.31958   1.32511   1.34382   1.35891
 Alpha virt. eigenvalues --    1.36443   1.38205   1.38548   1.39514   1.39743
 Alpha virt. eigenvalues --    1.41074   1.42507   1.43019   1.43981   1.45013
 Alpha virt. eigenvalues --    1.45539   1.45960   1.47097   1.48134   1.48491
 Alpha virt. eigenvalues --    1.48919   1.49506   1.50123   1.50234   1.50830
 Alpha virt. eigenvalues --    1.51126   1.51529   1.52518   1.53148   1.54048
 Alpha virt. eigenvalues --    1.54439   1.55174   1.55347   1.56529   1.56725
 Alpha virt. eigenvalues --    1.57121   1.58215   1.58429   1.58990   1.60057
 Alpha virt. eigenvalues --    1.60912   1.61168   1.61574   1.63050   1.63271
 Alpha virt. eigenvalues --    1.64301   1.66115   1.67115   1.67733   1.68523
 Alpha virt. eigenvalues --    1.69397   1.69552   1.69925   1.71705   1.72135
 Alpha virt. eigenvalues --    1.72413   1.73173   1.74095   1.74268   1.74447
 Alpha virt. eigenvalues --    1.75642   1.76152   1.76389   1.77295   1.78249
 Alpha virt. eigenvalues --    1.79588   1.80164   1.80292   1.81469   1.82864
 Alpha virt. eigenvalues --    1.83015   1.83521   1.84024   1.84786   1.85074
 Alpha virt. eigenvalues --    1.85793   1.86091   1.86963   1.87678   1.87734
 Alpha virt. eigenvalues --    1.88398   1.88724   1.89315   1.89636   1.91195
 Alpha virt. eigenvalues --    1.91573   1.91938   1.92371   1.92950   1.93271
 Alpha virt. eigenvalues --    1.94290   1.94576   1.95101   1.95837   1.97037
 Alpha virt. eigenvalues --    1.97664   1.98438   1.99017   1.99225   1.99710
 Alpha virt. eigenvalues --    2.00013   2.00681   2.01140   2.01812   2.03192
 Alpha virt. eigenvalues --    2.04552   2.04892   2.05706   2.06927   2.07991
 Alpha virt. eigenvalues --    2.08802   2.09551   2.10936   2.11559   2.11650
 Alpha virt. eigenvalues --    2.11990   2.12996   2.13568   2.14925   2.15585
 Alpha virt. eigenvalues --    2.16124   2.17343   2.18422   2.19714   2.21574
 Alpha virt. eigenvalues --    2.22093   2.22575   2.23417   2.23837   2.24483
 Alpha virt. eigenvalues --    2.25220   2.26536   2.28707   2.29606   2.30473
 Alpha virt. eigenvalues --    2.32688   2.34260   2.35110   2.35550   2.36554
 Alpha virt. eigenvalues --    2.37272   2.39429   2.40215   2.41733   2.42500
 Alpha virt. eigenvalues --    2.42879   2.44699   2.46033   2.46904   2.47069
 Alpha virt. eigenvalues --    2.48939   2.51556   2.53333   2.54621   2.55440
 Alpha virt. eigenvalues --    2.56202   2.57214   2.58190   2.59243   2.61827
 Alpha virt. eigenvalues --    2.62301   2.62931   2.64189   2.65543   2.67521
 Alpha virt. eigenvalues --    2.68535   2.68976   2.69485   2.70056   2.71157
 Alpha virt. eigenvalues --    2.72049   2.72086   2.72387   2.72591   2.72829
 Alpha virt. eigenvalues --    2.73457   2.73850   2.74512   2.75218   2.75582
 Alpha virt. eigenvalues --    2.76168   2.76679   2.77245   2.77693   2.78050
 Alpha virt. eigenvalues --    2.78267   2.78834   2.78911   2.79166   2.80473
 Alpha virt. eigenvalues --    2.81155   2.81410   2.81867   2.83393   2.83989
 Alpha virt. eigenvalues --    2.85020   2.85705   2.86354   2.86635   2.87465
 Alpha virt. eigenvalues --    2.87640   2.88634   2.89773   2.90704   2.92299
 Alpha virt. eigenvalues --    2.93042   2.93209   2.93945   2.96695   2.98397
 Alpha virt. eigenvalues --    2.99916   3.00762   3.01902   3.03277   3.04223
 Alpha virt. eigenvalues --    3.06073   3.07028   3.10135   3.10776   3.12482
 Alpha virt. eigenvalues --    3.13454   3.14225   3.18128   3.18627   3.19095
 Alpha virt. eigenvalues --    3.20247   3.22004   3.22486   3.23429   3.24570
 Alpha virt. eigenvalues --    3.26142   3.27068   3.30877   3.32136   3.33420
 Alpha virt. eigenvalues --    3.36383   3.36789   3.37012   3.38418   3.40349
 Alpha virt. eigenvalues --    3.42129   3.42424   3.42918   3.43785   3.45976
 Alpha virt. eigenvalues --    3.46464   3.48247   3.48719   3.49744   3.51020
 Alpha virt. eigenvalues --    3.54375   3.55618   3.57193   3.59642   3.60986
 Alpha virt. eigenvalues --    3.61827   3.63109   3.64709   3.68539   3.69833
 Alpha virt. eigenvalues --    3.73041   3.82595   3.83548   3.85378   3.90491
 Alpha virt. eigenvalues --    3.95218   4.04505   4.05513   4.06347   4.06805
 Alpha virt. eigenvalues --    4.07777   4.10045   4.11398   4.13405   4.21048
 Alpha virt. eigenvalues --    4.24349   4.29463   4.32160   4.44399   4.51772
 Alpha virt. eigenvalues --    4.71534   4.74388   4.74931   4.77135   4.78865
 Alpha virt. eigenvalues --    4.80477   4.81576   4.85142   4.89169  23.38786
 Alpha virt. eigenvalues --   23.58645  23.67709  23.77777  23.80256  23.83921
 Alpha virt. eigenvalues --   23.84241  23.88129  23.88459  23.89175  23.90731
 Alpha virt. eigenvalues --   23.93007  23.94145  23.97774  23.99261  24.00158
 Alpha virt. eigenvalues --   24.00738  24.04363  24.07222  24.08467  24.09530
 Alpha virt. eigenvalues --   24.10333  24.12222  24.12324  24.13106  24.17046
 Alpha virt. eigenvalues --   24.20424  24.20686  24.23027  24.23506
  Beta  occ. eigenvalues --  -10.21881 -10.21675 -10.21018 -10.20795 -10.20707
  Beta  occ. eigenvalues --  -10.19907 -10.19716 -10.19658 -10.19485 -10.19447
  Beta  occ. eigenvalues --  -10.19340 -10.19336 -10.19326 -10.19287 -10.19269
  Beta  occ. eigenvalues --  -10.19260 -10.19206 -10.18938 -10.18674 -10.18639
[...]
 0.00000417,-0.00001397,0.00000146,0.00001106,-0.00000779,-0.00000264,-
 0.00000170,-0.00001086,0.00000119,0.00007831,-0.00031221,-0.00003080,-
 0.00012123,0.00003301,-0.00000050,0.00002444,-0.00004414,0.00001638,0.
 00004179,0.00005336,0.00003412,-0.00001158,0.00003234,-0.00000172,0.00
 002121,0.00000754,0.00000011,0.00035086,-0.00036531,0.00000572,0.00189
 065,0.00188152,0.00025678,-0.00060176,-0.00021195,-0.00010065,0.000045
 56,0.00028573,0.00002337,0.00028121,-0.00311274,-0.00070606,-0.0168641
 7,0.00536822,0.00053355,-0.32427418,0.04969503,0.00206331,-0.00704852,
 -0.00045824,-0.00045348,0.00044174,0.00274869,0.00075225,0.00027976,-0
 .00047205,-0.00007021,0.00026048,-0.00002546,-0.00004281,-0.00089134,0
 .00072604,0.00022503,-0.00000109,-0.00000201,-0.00000265,0.00000909,-0
 .00000387,-0.00000453,-0.00001543,-0.00000582,0.00000147,-0.00000254,-
 0.00000416,0.00000143,-0.00000549,0.00000006,0.00000102,-0.00000586,0.
 00000055,0.00000112,-0.00000152,0.00000481,0.00000092,-0.00000034,0.00
 000399,0.00000125,-0.00006426,0.00001373,-0.00000477,0.00001175,0.0000
 1989,0.00001019,0.00080333,0.00025184,0.00020135,0.34430909,0.00002130
 ,-0.00000556,-0.00000385,0.00009854,-0.00005660,0.00003234,-0.00004876
 ,0.00004669,-0.00000422,0.00002065,0.00001926,-0.00000909,0.00001119,0
 .00001148,-0.00001016,-0.00001578,0.00001620,-0.00000492,0.00001870,-0
 .00000209,-0.00000116,-0.00000688,0.00001915,-0.00000154,-0.00000519,-
 0.00001307,0.00000621,-0.00000465,-0.00004547,0.00000188,-0.00001658,0
 .00001269,0.00000129,0.00001115,0.00000642,-0.00000111,-0.00000560,-0.
 00033987,0.00003870,-0.00013589,0.00001531,-0.00001288,0.00002739,-0.0
 0004122,0.00002086,-0.00007277,0.00015440,0.00019393,-0.00014226,-0.00
 004418,-0.00004696,0.00005873,0.00002990,-0.00000054,-0.00003197,-0.00
 058840,0.00000576,0.00050719,-0.00467949,-0.00263251,0.00126950,0.0003
 7720,0.00022588,0.00008296,-0.00047950,0.00009066,-0.00147637,-0.00337
 464,-0.00152234,-0.02300192,0.00558919,-0.00008954,0.05065092,-0.06564
 684,-0.00484901,0.03099885,-0.00089367,-0.00018406,-0.00272106,0.00004
 513,0.00045970,0.00037730,0.00017286,0.00005250,-0.00016607,0.00004151
 ,0.00002383,-0.00108955,0.00036030,0.00021998,0.00000516,-0.00000404,-
 0.00001486,0.00000358,-0.00000118,-0.00000214,-0.00001112,0.00000040,0
 .00000062,0.00000111,0.00000203,-0.00000019,0.00000289,0.00000098,-0.0
 0000039,0.00000316,0.00000122,-0.00000060,0.00000169,-0.00000328,-0.00
 000128,-0.00000431,-0.00000107,-0.00000124,0.00013904,-0.00004974,0.00
 001103,-0.00004100,-0.00004299,-0.00003628,-0.00041595,0.00071887,0.00
 110009,-0.05526284,0.06944806,0.00002301,-0.00003662,-0.00002822,0.000
 12494,-0.00000405,0.00002617,-0.00009184,0.00005354,0.00005836,0.00002
 019,0.00000525,0.00000699,0.00001426,0.00002514,0.00000908,0.00000483,
 -0.00000908,0.00001210,0.00000036,0.00001015,-0.00000068,-0.00000427,-
 0.00000059,-0.00000066,-0.00002477,0.00001565,-0.00001286,-0.00003829,
 -0.00007226,-0.00001742,0.00001934,0.00000810,-0.00000014,0.00000038,-
 0.00002621,-0.00000131,0.00004578,-0.00011484,0.00005232,-0.00003008,0
 .00003891,0.00010537,-0.00001341,-0.00001280,-0.00001891,-0.00003120,0
 .00013863,-0.00082188,-0.00018959,-0.00010851,0.00007524,0.00010785,0.
 00001224,0.00002808,-0.00003906,-0.00090643,-0.00087302,0.00004515,-0.
 00278043,0.00864242,0.00034032,0.00032656,0.00018923,0.00026612,-0.000
 11871,-0.00045000,-0.00121910,-0.00057375,0.00406009,-0.00313141,0.001
 84426,0.00290886,0.00205749,-0.00653402,-0.03800728,0.00489305,0.00028
 549,0.00501598,-0.00075348,0.00043005,-0.00240152,0.00022887,0.0001073
 8,-0.00006765,-0.00013557,0.00011333,0.00002983,-0.00035713,-0.0001228
 5,-0.00005872,-0.00000121,-0.00000312,-0.00000021,-0.00000147,0.000005
 12,0.00000922,-0.00000218,-0.00000624,-0.00002088,0.00000006,0.0000002
 8,0.00000112,0.00000006,0.00000049,0.00000009,0.00000017,0.00000006,0.
 00000281,-0.00000015,0.00000044,0.00000186,-0.00000146,0.00000566,-0.0
 0000137,0.00004923,-0.00001406,0.00002668,-0.00003085,-0.00001536,0.00
 007014,0.00017195,0.00107215,-0.00499059,-0.00244052,0.00728005,0.0260
 2963,0.00000419,0.00003445,0.00001332,0.00002215,-0.00003749,0.0000114
 8,-0.00003910,0.00000789,-0.00000969,-0.00002560,-0.00000792,-0.000018
 05,-0.00000600,0.00001150,0.00000681,-0.00002005,0.00002115,-0.0000109
 2,0.00001584,0.00000084,-0.00000321,-0.00000146,0.00001769,-0.00000145
 ,-0.00002220,-0.00000610,-0.00000312,-0.00000239,-0.00001852,-0.000001
 01,0.00000751,-0.00000319,-0.00000207,0.00000106,-0.00001009,0.0000008
 2,0.00005496,-0.00000989,-0.00004069,-0.00007820,-0.00005256,0.0000708
 5,0.00004405,0.00000363,0.00000909,0.00006657,0.00023867,0.00004974,-0
 .00009358,-0.00001211,-0.00001918,0.00003338,0.00002648,0.00000173,-0.
 00064249,-0.00050325,-0.00008919,0.00023700,-0.00013557,0.00003786,0.0
 0002825,0.00001564,-0.00000016,0.00004011,0.00004117,0.00000637,0.0011
 7008,0.00202287,0.00050822,-0.01196908,-0.00118086,0.00041806,0.000375
 72,-0.00287838,-0.00086673,0.00034855,0.00045196,0.00004951,-0.3325513
 2,0.00924039,0.01440693,-0.01299601,0.00347793,0.00161409,0.00046312,-
 0.00378312,-0.00064389,0.00047869,0.00011357,-0.00007610,0.00000090,-0
 .00000360,0.00000315,-0.00000537,0.00004430,-0.00004068,-0.00000780,-0
 .00000439,0.00000405,-0.00000258,-0.00000469,0.00000172,-0.00000618,0.
 00000104,0.00000093,-0.00000603,0.00000120,0.00000116,-0.00000181,0.00
 000524,0.00000093,-0.00000743,0.00000822,0.00000095,-0.00000058,0.0000
 0531,0.00000271,0.00000461,0.00002414,0.00000581,-0.00002964,0.0000697
 3,0.00001587,0.00108074,0.00031262,0.00010075,0.35402651,0.00001451,-0
 .00006006,0.00001187,-0.00002507,-0.00000055,-0.00000825,0.00002441,0.
 00002160,0.00001292,-0.00004879,-0.00000171,-0.00001704,-0.00000246,-0
 .00003805,0.00000225,-0.00003787,0.00003361,-0.00002009,0.00002834,0.0
 0000817,-0.00000797,-0.00001316,0.00001847,-0.00000072,-0.00001286,-0.
 00001237,0.00000375,-0.00000544,0.00001301,-0.00000757,-0.00000734,0.0
 0000314,0.00000123,0.00000736,0.00000614,-0.00000059,-0.00007218,0.000
 14029,0.00024511,-0.00007580,-0.00004021,0.00009768,0.00007082,0.00002
 874,0.00001110,-0.00008330,-0.00036824,-0.00004422,0.00012452,-0.00004
 323,-0.00000254,-0.00001756,-0.00005040,0.00000338,0.00129685,0.000231
 61,0.00013691,0.00020733,0.00005907,-0.00002029,-0.00012587,0.00004344
 ,-0.00000415,0.00004506,0.00000070,0.00000812,0.00044830,-0.00407658,-
 0.00181597,0.02696449,0.00060355,-0.00170616,0.00281402,-0.00013212,0.
 00060734,-0.00044377,0.00016047,0.00005085,0.00768827,-0.05654074,-0.0
 0535401,-0.02743514,0.00572371,0.00160277,-0.00246535,-0.00372220,-0.0
 0249756,0.00002225,-0.00084052,-0.00000301,-0.00001307,-0.00000160,-0.
 00003560,-0.00000388,0.00004475,-0.00005412,0.00000019,-0.00000144,0.0
 0000287,-0.00000165,-0.00000217,0.00000076,-0.00000161,0.00000224,0.00
 000003,-0.00000135,0.00000121,-0.00000020,0.00000003,0.00000137,-0.000
 00036,0.00001259,-0.00000299,0.00000458,-0.00000568,0.00000189,-0.0000
 0035,0.00000569,-0.00002599,-0.00000725,0.00000177,-0.00000115,-0.0000
 4059,-0.00071900,-0.00077415,-0.00028130,-0.00757585,0.05886489,-0.000
 22055,0.00012230,0.00000159,-0.00001148,-0.00003318,-0.00000651,-0.000
 02566,0.00002163,-0.00000752,0.00008899,0.00006910,0.00001093,-0.00003
 240,0.00002588,-0.00000626,0.00008499,-0.00010376,0.00001241,-0.000052
 02,0.00003508,0.00001353,0.00000646,-0.00005488,0.00000718,0.00003768,
 0.00004471,-0.00001517,-0.00003001,-0.00002835,0.00001596,0.00001332,0
 .00001717,-0.00000042,0.00000124,-0.00002008,0.00000217,0.00006973,0.0
 0008230,-0.00078217,0.00015255,-0.00003888,0.00000460,-0.00015116,0.00
 003541,-0.00005909,-0.00002630,-0.00014164,0.00010026,-0.00000936,0.00
 001323,0.00011606,0.00003691,-0.00000404,-0.00004186,0.00033434,-0.000
 07041,-0.00007879,0.00012839,0.00002798,0.00010049,-0.00001771,0.00001
 719,0.00000150,0.00001873,0.00000698,-0.00002056,0.00156354,-0.0010854
 2,0.00476132,0.00461639,0.00134677,0.00270549,0.00067833,0.00060053,-0
 .00317505,-0.00022694,0.00015606,-0.00004371,0.01417889,-0.00709545,-0
 .03781061,-0.00446821,0.00092680,0.00475957,-0.00028893,-0.00250523,0.
 00729481,-0.00016746,-0.00108556,-0.00099714,0.00001920,-0.00001591,-0
 .00001052,0.00001197,0.00006806,0.00003289,0.00000178,0.00000446,0.000
 00315,0.00000152,0.00000122,-0.00000023,-0.00000056,-0.00000063,-0.000
 00162,0.00000032,0.00000084,0.00000086,0.00000063,-0.00000073,0.000000
 81,0.00000702,-0.00000013,-0.00001603,-0.00000026,-0.00000123,0.000000
 40,-0.00000182,-0.00000758,0.00001475,-0.00000991,-0.00002263,0.000159
 71,-0.00021456,-0.00027961,0.00028631,-0.01545984,0.00776807,0.0266544
 9,-0.00043842,-0.00031331,0.00013222,0.00001221,-0.00005371,0.00001681
 ,-0.00001288,-0.00001307,-0.00000833,0.00003125,0.00011527,-0.00010170
 ,-0.00002099,0.00000686,-0.00000510,-0.00006346,-0.00002152,0.00000437
 ,0.00006428,-0.00001885,0.00000714,-0.00001724,0.00005869,-0.00001249,
 -0.00003484,-0.00003484,0.00001362,0.00004113,0.00005326,0.00000691,-0
 .00001675,-0.00000134,-0.00000003,0.00000688,0.00001635,-0.00000088,-0
 .00013375,0.00145373,0.00006314,-0.00002928,0.00008003,-0.00000715,-0.
 00000669,-0.00005451,-0.00001870,0.00001688,-0.00003616,-0.00000642,0.
 00005120,0.00003887,0.00000431,-0.00006850,0.00000690,-0.00000493,0.00
 013658,0.00024468,-0.00003224,-0.00027436,0.00007124,0.00000616,0.0000
 9076,-0.00007361,0.00000910,-0.00008709,-0.00003382,-0.00001577,-0.000
 67138,-0.00080631,-0.00013886,-0.00161248,-0.00335252,-0.00014843,0.00
 066787,-0.00028679,0.00001930,0.00002227,-0.00035451,-0.00010049,0.012
 10258,-0.01639005,-0.00425307,-0.10896827,0.10230656,0.02865117,-0.008
 12416,0.02861326,0.00712326,-0.00476852,-0.00125419,0.00127428,-0.0000
 2683,-0.00000405,0.00002838,-0.00001482,-0.00001047,0.00005022,-0.0000
 2572,-0.00000949,0.00000801,-0.00000687,-0.00000426,0.00000459,-0.0000
 0391,0.00000180,0.00000031,-0.00000413,0.00000338,0.00000150,-0.000001
 32,0.00000317,0.00000011,-0.00000041,0.00000201,0.00000297,-0.00000053
 ,0.00000248,0.00000030,0.00000306,0.00000693,0.00000046,0.00002649,-0.
 00008451,-0.00002388,-0.00003915,0.00000182,0.00001493,0.00074789,0.00
 063049,-0.00018956,0.11045242,0.00004817,0.00006662,-0.00003630,-0.000
 00857,-0.00001943,0.00001190,0.00001638,-0.00000104,-0.00000201,-0.000
 02262,-0.00002404,-0.00001246,0.00000252,-0.00001067,-0.00000325,0.000
 02450,0.00001993,0.00000778,-0.00002324,-0.00000109,0.00000184,0.00000
 944,-0.00001490,0.00000416,0.00002531,-0.00000137,0.00000025,0.0000151
 5,-0.00001394,0.00000645,-0.00002067,0.00000334,0.00000181,0.00000581,
 0.00001348,-0.00000085,-0.00014416,-0.00014302,0.00008996,0.00003791,-
 0.00003619,-0.00003859,0.00000286,0.00000314,0.00000237,0.00002864,-0.
 00004297,-0.00000307,0.00004961,0.00002044,0.00000563,-0.00000627,-0.0
 0000117,-0.00000248,0.00005905,0.00011729,0.00022898,-0.00016005,0.000
 07670,-0.00001504,0.00004323,-0.00001271,-0.00001325,-0.00002851,-0.00
 000804,-0.00000181,-0.00043797,0.00001681,0.00017706,-0.00412256,-0.00
 133324,-0.00224366,0.00104461,-0.00072563,-0.00010589,-0.00034605,-0.0
 0039548,0.00003665,0.01401304,-0.01750300,-0.00568345,0.10243111,-0.27
 114619,-0.06141459,-0.00193976,0.00208371,0.00003647,-0.00055984,0.001
 93077,-0.00088290,0.00001540,0.00000462,-0.00000679,-0.00001245,-0.000
 01576,0.00001333,0.00000812,0.00000577,-0.00000473,0.00000403,0.000005
 00,-0.00000258,0.00000536,-0.00000133,-0.00000120,0.00000547,-0.000000
 79,-0.00000119,0.00000204,-0.00000538,-0.00000136,0.00000288,-0.000006
 05,-0.00000224,0.00000593,-0.00000760,-0.00000019,-0.00000519,0.000001
 69,-0.00000133,0.00004805,-0.00012494,-0.00002846,-0.00005228,0.000010
 18,-0.00002243,-0.00020042,0.00065304,0.00124696,-0.11028398,0.2859528
 6,-0.00003096,-0.00005523,-0.00012433,-0.00002361,0.00002613,-0.000035
 11,-0.00002439,-0.00002582,-0.00001209,0.00010074,0.00003901,0.0000147
 5,0.00004649,0.00003865,0.00001318,-0.00003398,-0.00003655,0.00002306,
 0.00004924,-0.00003025,-0.00000699,-0.00000358,0.00004531,-0.00001479,
 -0.00002207,-0.00002891,0.00000714,0.00004065,0.00003682,0.00000266,-0
 .00001440,-0.00000142,-0.00000038,0.00000671,0.00001547,0.00000028,0.0
 0010927,-0.00009004,-0.00004591,0.00008851,0.00008142,-0.00004913,-0.0
 0002023,-0.00001273,0.00000161,-0.00000349,-0.00000284,0.00002072,0.00
 002218,0.00005285,0.00003931,-0.00005622,0.00000144,-0.00000376,0.0000
 1859,0.00020354,-0.00089082,-0.00019784,-0.00003306,0.00010943,0.00003
 921,-0.00005138,0.00004600,-0.00005034,-0.00003111,-0.00001569,-0.0002
 5289,0.00000827,-0.00059217,-0.00087291,-0.00198911,0.00801732,0.00033
 483,0.00013722,0.00016711,0.00010268,-0.00016270,-0.00055540,0.0028422
 1,-0.00323037,0.00292823,0.02764681,-0.06155791,-0.05308080,0.00180060
 ,-0.00309685,0.00198714,0.00076923,0.00003635,0.00587007,0.00002709,-0
 .00001247,0.00007173,0.00009287,-0.00003529,0.00001496,0.00000679,0.00
 000285,0.00000260,0.00000153,0.00000045,0.00000126,0.00000115,0.000001
 10,0.00000342,0.00000057,0.00000036,0.00000125,0.00000032,-0.00000062,
 0.00000059,-0.00000022,-0.00000258,0.00000623,0.00000042,-0.00000198,-
 0.00000077,-0.00000098,0.00000067,-0.00000051,0.00001538,-0.00003244,-
 0.00000150,-0.00001543,-0.00002912,0.00010685,-0.00024148,0.00112788,-
 0.00422430,-0.03185499,0.06787756,0.04322550,0.00024694,-0.00011108,0.
 00021884,0.00001705,0.00007684,-0.00001129,0.00005845,-0.00002814,0.00
 001636,-0.00015330,-0.00003809,0.00007399,0.00003472,-0.00006725,-0.00
 007618,0.00003110,-0.00003920,-0.00011669,-0.00009206,-0.00000705,0.00
 000096,0.00000438,-0.00007447,0.00001241,0.00000748,0.00005381,0.00000
 453,-0.00005438,-0.00002403,-0.00000845,0.00006190,-0.00000778,-0.0000
 0432,-0.00003419,-0.00004561,0.00001074,-0.00028275,0.00134669,0.00022
 900,-0.00278889,0.00069226,0.00153687,-0.00042220,0.00004343,-0.000107
 47,0.00004106,-0.00003330,0.00005002,-0.00006867,-0.00005240,-0.000007
 61,0.00006114,-0.00000095,0.00001041,0.00060928,0.00023944,-0.00000168
 ,0.00008025,0.00012437,-0.00009353,0.00000470,0.00009155,-0.00000303,0
 .00007818,0.00002807,0.00001669,-0.00116551,0.00270031,0.00138294,-0.0
 0025147,0.00092506,0.00024117,-0.00005631,-0.00030126,-0.00018053,-0.0
 0011412,0.00016651,0.00006235,-0.00560988,0.00156526,0.00153418,-0.013
 82408,-0.02790181,-0.00317288,-0.13935419,-0.12980326,-0.01688024,0.00
 981298,0.01230283,0.00186038,0.00000640,0.00003460,-0.00008405,-0.0029
 5685,0.00040348,0.00241740,0.00000563,0.00003731,0.00012174,-0.0000004
 0,0.00000604,-0.00000591,0.00000926,-0.00000500,0.00000246,0.00000673,
 -0.00000631,-0.00000020,0.00000011,-0.00000406,0.00000037,-0.00000300,
 -0.00000162,-0.00000491,0.00000039,-0.00000094,-0.00000014,-0.00000829
 ,0.00002155,0.00000420,0.00000150,-0.00001231,0.00000471,0.00007106,0.
 00005106,0.00000794,-0.00073698,-0.00121322,-0.00044822,0.00099898,0.0
 0041998,-0.00044405,0.15572782,0.00051535,-0.00016312,-0.00002175,0.00
 006031,0.00003771,0.00005132,0.00000860,0.00007694,0.00000052,-0.00030
 982,-0.00008552,-0.00001914,0.00011198,-0.00017291,0.00000574,-0.00040
 605,0.00027799,-0.00022168,0.00028194,-0.00002647,-0.00010136,-0.00004
 821,0.00026773,-0.00002118,-0.00015245,-0.00019212,0.00002263,0.000112
 44,0.00003501,0.00002202,-0.00014439,0.00002017,0.00000384,0.00009166,
 0.00009457,-0.00000780,-0.00163434,-0.00100132,0.00146906,-0.00159315,
 -0.00013336,0.00143275,0.00056306,0.00033984,0.00018365,-0.00024550,0.
 00008081,-0.00008712,0.00010274,-0.00007328,0.00002111,-0.00009702,-0.
 00001014,-0.00002315,-0.00106625,-0.00029929,-0.00004550,0.00021197,-0
 .00034670,0.00011659,-0.00003803,-0.00001141,-0.00002144,-0.00004253,-
 0.00009122,-0.00001677,0.00348687,-0.00206262,-0.00220605,0.00049680,0
 .00011208,0.00018291,-0.00000383,0.00015816,0.00013697,0.00010369,-0.0
 0008488,-0.00002106,0.00052256,0.00149942,-0.00090598,0.00354178,0.005
 05396,-0.00004137,-0.12754252,-0.25126495,-0.03283682,-0.01409336,-0.0
 2026316,-0.00289273,-0.00008793,-0.00006877,-0.00020771,-0.00112878,0.
 00131339,-0.00003568,-0.00000682,0.00000565,0.00005712,0.00000070,-0.0
 0000789,0.00000428,-0.00000617,0.00001728,0.00001150,-0.00000355,0.000
 00738,0.00000081,0.00000411,0.00000143,-0.00000341,0.00000590,-0.00000
 086,0.00000067,0.00000941,-0.00000281,0.00000405,0.00000961,-0.0000491
 5,-0.00000147,-0.00001238,-0.00001541,-0.00000848,-0.00003559,-0.00001
 238,-0.00001527,0.00023038,0.00007134,-0.00004341,-0.00022190,0.000610
 56,0.00081745,0.13844872,0.26635832,-0.00101022,0.00052497,-0.00013267
 ,-0.00016410,-0.00006227,-0.00001190,-0.00001982,0.00007825,-0.0000025
 6,0.00037358,0.00035027,-0.00004132,-0.00009232,0.00006414,-0.00000655
 ,0.00024700,-0.00047533,0.00011009,-0.00016599,0.00015122,0.00002299,0
 .00003481,-0.00016835,0.00002867,0.00009962,0.00020137,-0.00004446,-0.
 00013060,-0.00005825,-0.00001072,0.00007456,0.00008348,-0.00000371,0.0
 0000432,-0.00010098,0.00001216,-0.00005983,0.00057516,-0.00372302,0.00
 214811,-0.00120498,-0.00003753,-0.00078032,0.00036063,-0.00037314,0.00
 022311,-0.00019120,0.00004634,-0.00003337,0.00022152,-0.00002486,0.000
 09603,0.00000572,0.00001642,-0.00077189,0.00034021,0.00064302,-0.00001
 891,-0.00016962,-0.00043372,0.00001695,-0.00008924,-0.00004346,-0.0000
 9198,-0.00003461,-0.00001501,0.00108231,-0.00306772,0.00577114,0.00096
 139,-0.00067399,-0.00112226,0.00001246,0.00035196,-0.00052020,0.000209
 27,-0.00008394,0.00016897,0.00172155,-0.00015461,0.00558324,0.00079907
 ,0.00319862,0.00449888,-0.01296339,-0.03470927,-0.04200355,-0.00587020
 ,-0.00199738,0.00379063,0.00015974,-0.00011052,-0.00006923,0.00243710,
 0.00060773,-0.00097535,0.00001298,0.00001492,0.00005000,0.00000660,-0.
 00000100,0.00000256,-0.00001085,0.00000274,-0.00000798,-0.00000376,0.0
 0000459,-0.00000115,0.00000217,0.00000069,0.00000199,0.00000459,-0.000
 00024,0.00000551,-0.00000093,-0.00000302,0.00000755,0.00000645,-0.0000
 1977,-0.00002388,-0.00000820,-0.00001088,0.00003341,-0.00003185,-0.000
 02573,0.00001851,0.00018458,0.00023045,0.00023633,-0.00052055,0.000782
 89,-0.00302796,0.01183073,0.03526136,0.03160775\\0.00002147,-0.0000312
 8,0.00001607,0.00000012,0.00001271,-0.00000257,0.00000381,-0.00000251,
 0.00000059,0.00000043,-0.00000228,0.00000402,-0.00000058,-0.00000253,-
 0.00000260,0.00001115,-0.00000778,0.00000121,-0.00000447,0.00000096,-0
 .00000091,0.00000186,-0.00000626,0.00000003,0.00000257,-0.00000131,-0.
 00000151,-0.00000081,0.00000096,-0.00000195,-0.00000101,-0.00000163,-0
 .00000147,-0.00000096,-0.00000173,-0.00000262,-0.00002607,-0.00000763,
 -0.00007611,0.00001887,0.00001973,0.00000235,-0.00001335,0.00000519,0.
 00000115,-0.00000482,-0.00000253,-0.00000198,-0.00000216,0.00000074,-0
 .00000184,-0.00000198,-0.00000168,-0.00000191,0.00000195,-0.00000001,0
 .00000139,-0.00000205,0.00000074,-0.00000017,-0.00000153,0.00000111,-0
 .00000077,-0.00000166,0.00000113,-0.00000113,0.00000048,0.00000296,0.0
 0000047,0.00000052,0.00000190,0.00000095,-0.00000010,0.00000230,0.0000
 0127,-0.00000072,0.00000181,0.00000043,0.00000131,0.00000244,0.0000018
 8,0.00000015,0.00000111,0.00000181,0.00000200,-0.00000148,0.00000296,-
 0.00000897,0.00000282,0.00001429,0.00000498,0.00001050,0.00004578,0.00
 000179,0.00000061,0.00000146,0.00000153,-0.00000064,0.00000107,0.00000
 120,-0.00000184,-0.00000011,0.00000046,-0.00000270,-0.00000125,-0.0000
 0079,-0.00000267,-0.00000241,-0.00000149,-0.00000202,-0.00000277,-0.00
 000186,-0.00000072,-0.00000222,-0.00000248,0.00000049,-0.00000180,-0.0
 0000201,0.00000157,-0.00000082,-0.00000125,0.00000238,0.00000033,-0.00
 000017,0.00000257,0.00000154,0.00000089,0.00000242,0.00000249,0.000001
 90,0.00000150,0.00000287,0.00000183,0.00000056,0.00000252\\\@


 THE DIFFERENCE BETWEEN A NOOSE AND A HALO IS ONLY 12 INCHES.
 Job cpu time:       2 days  5 hours 16 minutes 53.0 seconds.
 Elapsed time:       0 days  2 hours 40 minutes 17.9 seconds.
 File lengths (MBytes):  RWF=   4294 Int=      0 D2E=      0 Chk=     63 Scr=      1
 Normal termination of Gaussian 16 at Wed Jul 24 04:01:21 2019.
