 Entering Gaussian System, Link 0=/share/apps/gaussian16/g16/g16
 Initial command:
 /share/apps/gaussian16/g16/l1.exe "/home/amen01//scratch/907/Gau-41061.inp" -scrdir="/home/amen01//scratch/907/"
 Entering Link 1 = /share/apps/gaussian16/g16/l1.exe PID=     41062.
  
 Copyright (c) 1988-2017, Gaussian, Inc.  All Rights Reserved.
  
 This is part of the Gaussian(R) 16 program.  It is based on
 the Gaussian(R) 09 system (copyright 2009, Gaussian, Inc.),
 the Gaussian(R) 03 system (copyright 2003, Gaussian, Inc.),
 the Gaussian(R) 98 system (copyright 1998, Gaussian, Inc.),
 the Gaussian(R) 94 system (copyright 1995, Gaussian, Inc.),
 the Gaussian 92(TM) system (copyright 1992, Gaussian, Inc.),
 the Gaussian 90(TM) system (copyright 1990, Gaussian, Inc.),
 the Gaussian 88(TM) system (copyright 1988, Gaussian, Inc.),
 the Gaussian 86(TM) system (copyright 1986, Carnegie Mellon
 University), and the Gaussian 82(TM) system (copyright 1983,
 Carnegie Mellon University). Gaussian is a federally registered
 trademark of Gaussian, Inc.
  
 This software contains proprietary and confidential information,
 including trade secrets, belonging to Gaussian, Inc.
  
 This software is provided under written license and may be
 used, copied, transmitted, or stored only in accord with that
 written license.
  
 The following legend is applicable only to US Government
 contracts under FAR:
  
                    RESTRICTED RIGHTS LEGEND
  
 Use, reproduction and disclosure by the US Government is
 subject to restrictions as set forth in subparagraphs (a)
 and (c) of the Commercial Computer Software - Restricted
 Rights clause in FAR 52.227-19.
  
 Gaussian, Inc.
 340 Quinnipiac St., Bldg. 40, Wallingford CT 06492
  
  
 ---------------------------------------------------------------
 Warning -- This program may not be used in any manner that
 competes with the business of Gaussian, Inc. or will provide
 assistance to any competitor of Gaussian, Inc.  The licensee
 of this program is prohibited from giving any competitor of
 Gaussian, Inc. access to this program.  By using this program,
 the user acknowledges that Gaussian, Inc. is engaged in the
 business of creating and licensing software in the field of
 computational chemistry and represents and warrants to the
 licensee that it is not a competitor of Gaussian, Inc. and that
 it will not use this program in any manner prohibited above.
 ---------------------------------------------------------------
  

 Cite this work as:
 Gaussian 16, Revision B.01,
 M. J. Frisch, G. W. Trucks, H. B. Schlegel, G. E. Scuseria, 
 M. A. Robb, J. R. Cheeseman, G. Scalmani, V. Barone, 
 G. A. Petersson, H. Nakatsuji, X. Li, M. Caricato, A. V. Marenich, 
 J. Bloino, B. G. Janesko, R. Gomperts, B. Mennucci, H. P. Hratchian, 
 J. V. Ortiz, A. F. Izmaylov, J. L. Sonnenberg, D. Williams-Young, 
 F. Ding, F. Lipparini, F. Egidi, J. Goings, B. Peng, A. Petrone, 
 T. Henderson, D. Ranasinghe, V. G. Zakrzewski, J. Gao, N. Rega, 
 G. Zheng, W. Liang, M. Hada, M. Ehara, K. Toyota, R. Fukuda, 
 J. Hasegawa, M. Ishida, T. Nakajima, Y. Honda, O. Kitao, H. Nakai, 
 T. Vreven, K. Throssell, J. A. Montgomery, Jr., J. E. Peralta, 
 F. Ogliaro, M. J. Bearpark, J. J. Heyd, E. N. Brothers, K. N. Kudin, 
 V. N. Staroverov, T. A. Keith, R. Kobayashi, J. Normand, 
 K. Raghavachari, A. P. Rendell, J. C. Burant, S. S. Iyengar, 
 J. Tomasi, M. Cossi, J. M. Millam, M. Klene, C. Adamo, R. Cammi, 
 J. W. Ochterski, R. L. Martin, K. Morokuma, O. Farkas, 
 J. B. Foresman, and D. J. Fox, Gaussian, Inc., Wallingford CT, 2016.
 
 ******************************************
 Gaussian 16:  ES64L-G16RevB.01 20-Dec-2017
                13-Aug-2019 
 ******************************************
 %nprocshared=20
 Will use up to   20 processors via shared memory.
 %mem=180GB
 %chk=7-memb2-carbTSguess-3b.chk
 ---------------------------------------------------------------
 # opt=(ts,calcfc,noeigen) freq b3lyp/6-311+g(d,p) int=grid=fine
 ---------------------------------------------------------------
 1/5=1,10=4,11=1,18=20,26=3,38=1/1,3;
 2/9=110,12=2,17=6,18=5,40=1/2;
 3/5=4,6=6,7=111,11=2,25=1,30=1,71=2,74=-5,75=-4,140=1/1,2,3;
 4//1;
 5/5=2,38=5/2;
 8/6=4,10=90,11=11/1;
 11/6=1,8=1,9=11,15=111,16=1/1,2,10;
 10/6=1,13=1/2;
 6/7=2,8=2,9=2,10=2,28=1/1;
 7/10=1,18=20,25=1/1,2,3,16;
 1/5=1,10=4,11=1,18=20,26=3/3(2);
 2/9=110/2;
 99//99;
 2/9=110/2;
 3/5=4,6=6,7=111,11=2,25=1,30=1,71=1,74=-5,75=-4/1,2,3;
 4/5=5,16=3,69=1/1;
 5/5=2,38=5/2;
 7//1,2,3,16;
 1/5=1,11=1,18=20,26=3/3(-5);
 2/9=110/2;
 6/7=2,8=2,9=2,10=2,19=2,28=1/1;
 99/9=1/99;
 ----------------------
 7-memb2-carbTSguess-3b
 ----------------------
 Symbolic Z-matrix:
 Charge =  0 Multiplicity = 1
 C                    -0.49746  -0.77654   0.25012 
 C                    -0.32957   0.67724   0.20609 
 C                    -1.5551    1.24555  -0.04922 
 C                    -1.88881  -1.01928  -0.04766 
 C                    -2.50241   0.22335  -0.20321 
 C                    -2.67061  -2.12824   0.16143 
 C                    -4.0809   -1.95383  -0.00613 
 C                    -4.66282  -0.71211  -0.26765 
 C                    -3.86238   0.46578  -0.33241 
 C                    -1.82939   2.61239  -0.13776 
 C                    -3.24342   2.8839   -0.34367 
 C                    -4.19214   1.87904  -0.424 
 C                     0.14906  -1.96683   0.93619 
 C                    -0.82883  -3.14189   1.2267 
 C                    -1.9343   -3.24029   0.73237 
 C                     0.78493   1.47089   0.21497 
 C                     0.60386   2.89339   0.14383 
 C                    -0.69352   3.44902  -0.00529 
 C                     2.05601   0.819     0.17223 
 C                     3.21897   1.62568   0.19844 
 C                     3.04663   3.05909   0.25866 
 C                     1.82208   3.66332   0.21196 
 C                     2.11116  -0.58336  -0.03159 
 C                     3.37249  -1.17942  -0.19039 
 C                     4.53515  -0.3842   -0.0806 
 C                     4.46936   0.98549   0.10497 
 C                     3.45764  -2.60128  -0.52845 
 C                     2.39245  -3.26831  -0.99601 
 C                     1.05642  -2.58387  -1.15369 
 C                     1.07149  -1.58946  -0.15534 
 H                    -0.35208  -2.06869   2.01698 
 H                    -0.34374  -3.98265   1.715 
 H                    -2.41383  -4.20342   0.88117 
 H                    -4.73075  -2.81486   0.11295 
 H                    -5.74165  -0.65171  -0.36893 
 H                    -5.23098   2.16679  -0.55168 
 H                    -3.57833   3.91294  -0.42649 
 H                    -0.79454   4.52952  -0.03939 
 H                     1.75885   4.74671   0.21194 
 H                     3.94076   3.67299   0.30105 
 H                     5.38057   1.57288   0.14845 
 H                     5.50291  -0.86534  -0.1794 
 H                     4.42571  -3.08692  -0.45228 
 H                     2.48448  -4.30377  -1.30761 
 H                     0.23911  -3.30318  -1.08632 
 H                     0.99607  -2.13774  -2.15849 
 

 GradGradGradGradGradGradGradGradGradGradGradGradGradGradGradGradGradGrad
 Berny optimization.
 Initialization pass.
                           ----------------------------
                           !    Initial Parameters    !
                           ! (Angstroms and Degrees)  !
 --------------------------                            --------------------------
 ! Name  Definition              Value          Derivative Info.                !
 --------------------------------------------------------------------------------
 ! R1    R(1,2)                  1.4641         calculate D2E/DX2 analytically  !
 ! R2    R(1,4)                  1.4434         calculate D2E/DX2 analytically  !
 ! R3    R(1,13)                 1.5184         calculate D2E/DX2 analytically  !
 ! R4    R(1,30)                 1.813          calculate D2E/DX2 analytically  !
 ! R5    R(2,3)                  1.3748         calculate D2E/DX2 analytically  !
 ! R6    R(2,16)                 1.3682         calculate D2E/DX2 analytically  !
 ! R7    R(3,5)                  1.4021         calculate D2E/DX2 analytically  !
 ! R8    R(3,10)                 1.3969         calculate D2E/DX2 analytically  !
 ! R9    R(4,5)                  1.3946         calculate D2E/DX2 analytically  !
 ! R10   R(4,6)                  1.3729         calculate D2E/DX2 analytically  !
 ! R11   R(5,9)                  1.3874         calculate D2E/DX2 analytically  !
 ! R12   R(6,7)                  1.4309         calculate D2E/DX2 analytically  !
 ! R13   R(6,15)                 1.4508         calculate D2E/DX2 analytically  !
 ! R14   R(7,8)                  1.396          calculate D2E/DX2 analytically  !
 ! R15   R(7,34)                 1.0853         calculate D2E/DX2 analytically  !
 ! R16   R(8,9)                  1.4256         calculate D2E/DX2 analytically  !
 ! R17   R(8,35)                 1.0853         calculate D2E/DX2 analytically  !
 ! R18   R(9,12)                 1.4541         calculate D2E/DX2 analytically  !
 ! R19   R(10,11)                1.4545         calculate D2E/DX2 analytically  !
 ! R20   R(10,18)                1.4169         calculate D2E/DX2 analytically  !
 ! R21   R(11,12)                1.3843         calculate D2E/DX2 analytically  !
 ! R22   R(11,37)                1.0853         calculate D2E/DX2 analytically  !
 ! R23   R(12,36)                1.0855         calculate D2E/DX2 analytically  !
 ! R24   R(13,14)                1.5561         calculate D2E/DX2 analytically  !
 ! R25   R(13,30)                1.4781         calculate D2E/DX2 analytically  !
 ! R26   R(13,31)                1.1957         calculate D2E/DX2 analytically  !
 ! R27   R(14,15)                1.215          calculate D2E/DX2 analytically  !
 ! R28   R(14,32)                1.0866         calculate D2E/DX2 analytically  !
 ! R29   R(15,33)                1.0861         calculate D2E/DX2 analytically  !
 ! R30   R(16,17)                1.4357         calculate D2E/DX2 analytically  !
 ! R31   R(16,19)                1.4291         calculate D2E/DX2 analytically  !
 ! R32   R(17,18)                1.4192         calculate D2E/DX2 analytically  !
 ! R33   R(17,22)                1.4427         calculate D2E/DX2 analytically  !
 ! R34   R(18,38)                1.0857         calculate D2E/DX2 analytically  !
 ! R35   R(19,20)                1.4156         calculate D2E/DX2 analytically  !
 ! R36   R(19,23)                1.4182         calculate D2E/DX2 analytically  !
 ! R37   R(20,21)                1.445          calculate D2E/DX2 analytically  !
 ! R38   R(20,26)                1.4079         calculate D2E/DX2 analytically  !
 ! R39   R(21,22)                1.3663         calculate D2E/DX2 analytically  !
 ! R40   R(21,40)                1.0854         calculate D2E/DX2 analytically  !
 ! R41   R(22,39)                1.0852         calculate D2E/DX2 analytically  !
 ! R42   R(23,24)                1.4041         calculate D2E/DX2 analytically  !
 ! R43   R(23,30)                1.4521         calculate D2E/DX2 analytically  !
 ! R44   R(24,25)                1.4129         calculate D2E/DX2 analytically  !
 ! R45   R(24,27)                1.464          calculate D2E/DX2 analytically  !
 ! R46   R(25,26)                1.3838         calculate D2E/DX2 analytically  !
 ! R47   R(25,42)                1.0853         calculate D2E/DX2 analytically  !
 ! R48   R(26,41)                1.085          calculate D2E/DX2 analytically  !
 ! R49   R(27,28)                1.341          calculate D2E/DX2 analytically  !
 ! R50   R(27,43)                1.0857         calculate D2E/DX2 analytically  !
 ! R51   R(28,29)                1.5094         calculate D2E/DX2 analytically  !
 ! R52   R(28,44)                1.0852         calculate D2E/DX2 analytically  !
 ! R53   R(29,30)                1.4092         calculate D2E/DX2 analytically  !
 ! R54   R(29,45)                1.0908         calculate D2E/DX2 analytically  !
 ! R55   R(29,46)                1.101          calculate D2E/DX2 analytically  !
 ! A1    A(2,1,4)              105.7425         calculate D2E/DX2 analytically  !
 ! A2    A(2,1,13)             138.001          calculate D2E/DX2 analytically  !
 ! A3    A(2,1,30)             109.8323         calculate D2E/DX2 analytically  !
 ! A4    A(4,1,13)             111.828          calculate D2E/DX2 analytically  !
 ! A5    A(4,1,30)             135.4505         calculate D2E/DX2 analytically  !
 ! A6    A(1,2,3)              108.2899         calculate D2E/DX2 analytically  !
 ! A7    A(1,2,16)             132.0033         calculate D2E/DX2 analytically  !
 ! A8    A(3,2,16)             119.1787         calculate D2E/DX2 analytically  !
 ! A9    A(2,3,5)              108.7411         calculate D2E/DX2 analytically  !
 ! A10   A(2,3,10)             126.2484         calculate D2E/DX2 analytically  !
 ! A11   A(5,3,10)             125.0099         calculate D2E/DX2 analytically  !
 ! A12   A(1,4,5)              107.2945         calculate D2E/DX2 analytically  !
 ! A13   A(1,4,6)              130.7949         calculate D2E/DX2 analytically  !
 ! A14   A(5,4,6)              119.0907         calculate D2E/DX2 analytically  !
 ! A15   A(3,5,4)              109.8819         calculate D2E/DX2 analytically  !
 ! A16   A(3,5,9)              123.0304         calculate D2E/DX2 analytically  !
 ! A17   A(4,5,9)              126.6812         calculate D2E/DX2 analytically  !
 ! A18   A(4,6,7)              116.4222         calculate D2E/DX2 analytically  !
 ! A19   A(4,6,15)             112.9602         calculate D2E/DX2 analytically  !
 ! A20   A(7,6,15)             129.7722         calculate D2E/DX2 analytically  !
 ! A21   A(6,7,8)              122.7651         calculate D2E/DX2 analytically  !
 ! A22   A(6,7,34)             118.7254         calculate D2E/DX2 analytically  !
 ! A23   A(8,7,34)             118.4655         calculate D2E/DX2 analytically  !
 ! A24   A(7,8,9)              120.6226         calculate D2E/DX2 analytically  !
 ! A25   A(7,8,35)             118.7741         calculate D2E/DX2 analytically  !
 ! A26   A(9,8,35)             120.526          calculate D2E/DX2 analytically  !
 ! A27   A(5,9,8)              113.6883         calculate D2E/DX2 analytically  !
 ! A28   A(5,9,12)             113.4518         calculate D2E/DX2 analytically  !
 ! A29   A(8,9,12)             132.7315         calculate D2E/DX2 analytically  !
 ! A30   A(3,10,11)            112.4896         calculate D2E/DX2 analytically  !
 ! A31   A(3,10,18)            114.4824         calculate D2E/DX2 analytically  !
 ! A32   A(11,10,18)           133.0273         calculate D2E/DX2 analytically  !
 ! A33   A(10,11,12)           122.6146         calculate D2E/DX2 analytically  !
 ! A34   A(10,11,37)           119.1947         calculate D2E/DX2 analytically  !
 ! A35   A(12,11,37)           118.1863         calculate D2E/DX2 analytically  !
 ! A36   A(9,12,11)            123.1226         calculate D2E/DX2 analytically  !
 ! A37   A(9,12,36)            118.8214         calculate D2E/DX2 analytically  !
 ! A38   A(11,12,36)           118.0532         calculate D2E/DX2 analytically  !
 ! A39   A(1,13,14)            114.1257         calculate D2E/DX2 analytically  !
 ! A40   A(1,13,31)            107.2625         calculate D2E/DX2 analytically  !
 ! A41   A(14,13,30)           136.2899         calculate D2E/DX2 analytically  !
 ! A42   A(14,13,31)            60.2328         calculate D2E/DX2 analytically  !
 ! A43   A(30,13,31)           161.9605         calculate D2E/DX2 analytically  !
 ! A44   A(13,14,15)           123.8483         calculate D2E/DX2 analytically  !
 ! A45   A(13,14,32)           112.8082         calculate D2E/DX2 analytically  !
 ! A46   A(15,14,32)           121.762          calculate D2E/DX2 analytically  !
 ! A47   A(6,15,14)            124.044          calculate D2E/DX2 analytically  !
 ! A48   A(6,15,33)            120.6335         calculate D2E/DX2 analytically  !
 ! A49   A(14,15,33)           114.6952         calculate D2E/DX2 analytically  !
 ! A50   A(2,16,17)            118.1417         calculate D2E/DX2 analytically  !
 ! A51   A(2,16,19)            117.3668         calculate D2E/DX2 analytically  !
 ! A52   A(17,16,19)           124.2373         calculate D2E/DX2 analytically  !
 ! A53   A(16,17,18)           120.5568         calculate D2E/DX2 analytically  !
 ! A54   A(16,17,22)           114.8287         calculate D2E/DX2 analytically  !
 ! A55   A(18,17,22)           124.6058         calculate D2E/DX2 analytically  !
 ! A56   A(10,18,17)           120.7626         calculate D2E/DX2 analytically  !
 ! A57   A(10,18,38)           120.6688         calculate D2E/DX2 analytically  !
 ! A58   A(17,18,38)           118.5529         calculate D2E/DX2 analytically  !
 ! A59   A(16,19,20)           118.0466         calculate D2E/DX2 analytically  !
 ! A60   A(16,19,23)           119.3369         calculate D2E/DX2 analytically  !
 ! A61   A(20,19,23)           122.2907         calculate D2E/DX2 analytically  !
 ! A62   A(19,20,21)           117.9095         calculate D2E/DX2 analytically  !
 ! A63   A(19,20,26)           117.9884         calculate D2E/DX2 analytically  !
 ! A64   A(21,20,26)           124.0405         calculate D2E/DX2 analytically  !
 ! A65   A(20,21,22)           122.9673         calculate D2E/DX2 analytically  !
 ! A66   A(20,21,40)           117.6736         calculate D2E/DX2 analytically  !
 ! A67   A(22,21,40)           119.3082         calculate D2E/DX2 analytically  !
 ! A68   A(17,22,21)           121.4924         calculate D2E/DX2 analytically  !
 ! A69   A(17,22,39)           118.9178         calculate D2E/DX2 analytically  !
 ! A70   A(21,22,39)           119.5843         calculate D2E/DX2 analytically  !
 ! A71   A(19,23,24)           118.0976         calculate D2E/DX2 analytically  !
 ! A72   A(19,23,30)           132.0332         calculate D2E/DX2 analytically  !
 ! A73   A(24,23,30)           109.8417         calculate D2E/DX2 analytically  !
 ! A74   A(23,24,25)           119.4402         calculate D2E/DX2 analytically  !
 ! A75   A(23,24,27)           119.3848         calculate D2E/DX2 analytically  !
 ! A76   A(25,24,27)           121.1131         calculate D2E/DX2 analytically  !
 ! A77   A(24,25,26)           121.8981         calculate D2E/DX2 analytically  !
 ! A78   A(24,25,42)           118.5027         calculate D2E/DX2 analytically  !
 ! A79   A(26,25,42)           119.5663         calculate D2E/DX2 analytically  !
 ! A80   A(20,26,25)           120.0815         calculate D2E/DX2 analytically  !
 ! A81   A(20,26,41)           119.8054         calculate D2E/DX2 analytically  !
 ! A82   A(25,26,41)           120.0868         calculate D2E/DX2 analytically  !
 ! A83   A(24,27,28)           121.1601         calculate D2E/DX2 analytically  !
 ! A84   A(24,27,43)           118.0399         calculate D2E/DX2 analytically  !
 ! A85   A(28,27,43)           120.6793         calculate D2E/DX2 analytically  !
 ! A86   A(27,28,29)           120.9289         calculate D2E/DX2 analytically  !
 ! A87   A(27,28,44)           120.4884         calculate D2E/DX2 analytically  !
 ! A88   A(29,28,44)           118.5365         calculate D2E/DX2 analytically  !
 ! A89   A(28,29,30)           103.6806         calculate D2E/DX2 analytically  !
 ! A90   A(28,29,45)           110.9606         calculate D2E/DX2 analytically  !
 ! A91   A(28,29,46)           109.1221         calculate D2E/DX2 analytically  !
 ! A92   A(30,29,45)           115.4409         calculate D2E/DX2 analytically  !
 ! A93   A(30,29,46)           111.1735         calculate D2E/DX2 analytically  !
 ! A94   A(45,29,46)           106.4081         calculate D2E/DX2 analytically  !
 ! A95   A(1,30,23)            106.8512         calculate D2E/DX2 analytically  !
 ! A96   A(1,30,29)            117.7494         calculate D2E/DX2 analytically  !
 ! A97   A(13,30,23)           124.1111         calculate D2E/DX2 analytically  !
 ! A98   A(13,30,29)           109.6544         calculate D2E/DX2 analytically  !
 ! A99   A(23,30,29)           123.847          calculate D2E/DX2 analytically  !
 ! D1    D(4,1,2,3)              2.1768         calculate D2E/DX2 analytically  !
 ! D2    D(4,1,2,16)          -169.1728         calculate D2E/DX2 analytically  !
 ! D3    D(13,1,2,3)          -150.7497         calculate D2E/DX2 analytically  !
 ! D4    D(13,1,2,16)           37.9006         calculate D2E/DX2 analytically  !
 ! D5    D(30,1,2,3)           154.8954         calculate D2E/DX2 analytically  !
 ! D6    D(30,1,2,16)          -16.4542         calculate D2E/DX2 analytically  !
 ! D7    D(2,1,4,5)             -2.1614         calculate D2E/DX2 analytically  !
 ! D8    D(2,1,4,6)           -162.4394         calculate D2E/DX2 analytically  !
 ! D9    D(13,1,4,5)           158.6877         calculate D2E/DX2 analytically  !
 ! D10   D(13,1,4,6)            -1.5903         calculate D2E/DX2 analytically  !
 ! D11   D(30,1,4,5)          -144.2366         calculate D2E/DX2 analytically  !
 ! D12   D(30,1,4,6)            55.4854         calculate D2E/DX2 analytically  !
 ! D13   D(2,1,13,14)          149.0511         calculate D2E/DX2 analytically  !
 ! D14   D(2,1,13,31)           84.5493         calculate D2E/DX2 analytically  !
 ! D15   D(4,1,13,14)           -2.7917         calculate D2E/DX2 analytically  !
 ! D16   D(4,1,13,31)          -67.2935         calculate D2E/DX2 analytically  !
 ! D17   D(2,1,30,23)           15.8926         calculate D2E/DX2 analytically  !
 ! D18   D(2,1,30,29)         -128.8881         calculate D2E/DX2 analytically  !
 ! D19   D(4,1,30,23)          156.9258         calculate D2E/DX2 analytically  !
 ! D20   D(4,1,30,29)           12.1451         calculate D2E/DX2 analytically  !
 ! D21   D(1,2,3,5)             -1.3575         calculate D2E/DX2 analytically  !
 ! D22   D(1,2,3,10)           178.374          calculate D2E/DX2 analytically  !
 ! D23   D(16,2,3,5)           171.2878         calculate D2E/DX2 analytically  !
 ! D24   D(16,2,3,10)           -8.9806         calculate D2E/DX2 analytically  !
 ! D25   D(1,2,16,17)          179.234          calculate D2E/DX2 analytically  !
 ! D26   D(1,2,16,19)            4.777          calculate D2E/DX2 analytically  !
 ! D27   D(3,2,16,17)            8.6477         calculate D2E/DX2 analytically  !
 ! D28   D(3,2,16,19)         -165.8093         calculate D2E/DX2 analytically  !
 ! D29   D(2,3,5,4)             -0.0302         calculate D2E/DX2 analytically  !
 ! D30   D(2,3,5,9)            173.0915         calculate D2E/DX2 analytically  !
 ! D31   D(10,3,5,4)          -179.7658         calculate D2E/DX2 analytically  !
 ! D32   D(10,3,5,9)            -6.6442         calculate D2E/DX2 analytically  !
 ! D33   D(2,3,10,11)         -176.6969         calculate D2E/DX2 analytically  !
 ! D34   D(2,3,10,18)            3.0361         calculate D2E/DX2 analytically  !
 ! D35   D(5,3,10,11)            2.9927         calculate D2E/DX2 analytically  !
 ! D36   D(5,3,10,18)         -177.2743         calculate D2E/DX2 analytically  !
 ! D37   D(1,4,5,3)              1.4171         calculate D2E/DX2 analytically  !
 ! D38   D(1,4,5,9)           -171.3906         calculate D2E/DX2 analytically  !
 ! D39   D(6,4,5,3)            164.4182         calculate D2E/DX2 analytically  !
 ! D40   D(6,4,5,9)             -8.3895         calculate D2E/DX2 analytically  !
 ! D41   D(1,4,6,7)            167.9323         calculate D2E/DX2 analytically  !
 ! D42   D(1,4,6,15)            -2.5838         calculate D2E/DX2 analytically  !
 ! D43   D(5,4,6,7)              9.5686         calculate D2E/DX2 analytically  !
 ! D44   D(5,4,6,15)          -160.9475         calculate D2E/DX2 analytically  !
 ! D45   D(3,5,9,8)           -170.7295         calculate D2E/DX2 analytically  !
 ! D46   D(3,5,9,12)             5.6842         calculate D2E/DX2 analytically  !
 ! D47   D(4,5,9,8)              1.1975         calculate D2E/DX2 analytically  !
 ! D48   D(4,5,9,12)           177.6112         calculate D2E/DX2 analytically  !
 ! D49   D(4,6,7,8)             -4.7515         calculate D2E/DX2 analytically  !
 ! D50   D(4,6,7,34)           177.7009         calculate D2E/DX2 analytically  !
 ! D51   D(15,6,7,8)           163.8638         calculate D2E/DX2 analytically  !
 ! D52   D(15,6,7,34)          -13.6838         calculate D2E/DX2 analytically  !
 ! D53   D(4,6,15,14)           14.0943         calculate D2E/DX2 analytically  !
 ! D54   D(4,6,15,33)         -175.4756         calculate D2E/DX2 analytically  !
 ! D55   D(7,6,15,14)         -154.837          calculate D2E/DX2 analytically  !
 ! D56   D(7,6,15,33)           15.593          calculate D2E/DX2 analytically  !
 ! D57   D(6,7,8,9)             -2.3003         calculate D2E/DX2 analytically  !
 ! D58   D(6,7,8,35)          -179.1192         calculate D2E/DX2 analytically  !
 ! D59   D(34,7,8,9)           175.2533         calculate D2E/DX2 analytically  !
 ! D60   D(34,7,8,35)           -1.5655         calculate D2E/DX2 analytically  !
 ! D61   D(7,8,9,5)              4.0182         calculate D2E/DX2 analytically  !
 ! D62   D(7,8,9,12)          -171.5011         calculate D2E/DX2 analytically  !
 ! D63   D(35,8,9,5)          -179.2188         calculate D2E/DX2 analytically  !
 ! D64   D(35,8,9,12)            5.2619         calculate D2E/DX2 analytically  !
 ! D65   D(5,9,12,11)           -2.0875         calculate D2E/DX2 analytically  !
 ! D66   D(5,9,12,36)          178.5353         calculate D2E/DX2 analytically  !
 ! D67   D(8,9,12,11)          173.4399         calculate D2E/DX2 analytically  !
 ! D68   D(8,9,12,36)           -5.9373         calculate D2E/DX2 analytically  !
 ! D69   D(3,10,11,12)           0.6774         calculate D2E/DX2 analytically  !
 ! D70   D(3,10,11,37)         179.9027         calculate D2E/DX2 analytically  !
 ! D71   D(18,10,11,12)       -178.9903         calculate D2E/DX2 analytically  !
 ! D72   D(18,10,11,37)          0.235          calculate D2E/DX2 analytically  !
 ! D73   D(3,10,18,17)           2.6344         calculate D2E/DX2 analytically  !
 ! D74   D(3,10,18,38)        -178.8279         calculate D2E/DX2 analytically  !
 ! D75   D(11,10,18,17)       -177.703          calculate D2E/DX2 analytically  !
 ! D76   D(11,10,18,38)          0.8348         calculate D2E/DX2 analytically  !
 ! D77   D(10,11,12,9)          -1.0332         calculate D2E/DX2 analytically  !
 ! D78   D(10,11,12,36)        178.3485         calculate D2E/DX2 analytically  !
 ! D79   D(37,11,12,9)         179.7341         calculate D2E/DX2 analytically  !
 ! D80   D(37,11,12,36)         -0.8842         calculate D2E/DX2 analytically  !
 ! D81   D(1,13,14,15)          14.0028         calculate D2E/DX2 analytically  !
 ! D82   D(1,13,14,32)         179.8415         calculate D2E/DX2 analytically  !
 ! D83   D(30,13,14,15)        -78.4839         calculate D2E/DX2 analytically  !
 ! D84   D(30,13,14,32)         87.3547         calculate D2E/DX2 analytically  !
 ! D85   D(31,13,14,15)        110.8041         calculate D2E/DX2 analytically  !
 ! D86   D(31,13,14,32)        -83.3573         calculate D2E/DX2 analytically  !
 ! D87   D(14,13,30,23)       -164.716          calculate D2E/DX2 analytically  !
 ! D88   D(14,13,30,29)         -1.7272         calculate D2E/DX2 analytically  !
 ! D89   D(31,13,30,23)        -11.6149         calculate D2E/DX2 analytically  !
 ! D90   D(31,13,30,29)        151.3739         calculate D2E/DX2 analytically  !
 ! D91   D(13,14,15,6)         -20.361          calculate D2E/DX2 analytically  !
 ! D92   D(13,14,15,33)        168.6979         calculate D2E/DX2 analytically  !
 ! D93   D(32,14,15,6)         175.0206         calculate D2E/DX2 analytically  !
 ! D94   D(32,14,15,33)          4.0795         calculate D2E/DX2 analytically  !
 ! D95   D(2,16,17,18)          -3.3863         calculate D2E/DX2 analytically  !
 ! D96   D(2,16,17,22)         177.6389         calculate D2E/DX2 analytically  !
 ! D97   D(19,16,17,18)        170.6578         calculate D2E/DX2 analytically  !
 ! D98   D(19,16,17,22)         -8.317          calculate D2E/DX2 analytically  !
 ! D99   D(2,16,19,20)        -179.19           calculate D2E/DX2 analytically  !
 ! D100  D(2,16,19,23)           7.2118         calculate D2E/DX2 analytically  !
 ! D101  D(17,16,19,20)          6.7235         calculate D2E/DX2 analytically  !
 ! D102  D(17,16,19,23)       -166.8747         calculate D2E/DX2 analytically  !
 ! D103  D(16,17,18,10)         -2.4072         calculate D2E/DX2 analytically  !
 ! D104  D(16,17,18,38)        179.0247         calculate D2E/DX2 analytically  !
 ! D105  D(22,17,18,10)        176.4624         calculate D2E/DX2 analytically  !
 ! D106  D(22,17,18,38)         -2.1058         calculate D2E/DX2 analytically  !
 ! D107  D(16,17,22,21)          3.7493         calculate D2E/DX2 analytically  !
 ! D108  D(16,17,22,39)       -177.1086         calculate D2E/DX2 analytically  !
 ! D109  D(18,17,22,21)       -175.1781         calculate D2E/DX2 analytically  !
 ! D110  D(18,17,22,39)          3.9639         calculate D2E/DX2 analytically  !
 ! D111  D(16,19,20,21)         -0.3669         calculate D2E/DX2 analytically  !
 ! D112  D(16,19,20,26)       -177.6296         calculate D2E/DX2 analytically  !
 ! D113  D(23,19,20,21)        173.0305         calculate D2E/DX2 analytically  !
 ! D114  D(23,19,20,26)         -4.2323         calculate D2E/DX2 analytically  !
 ! D115  D(16,19,23,24)        174.327          calculate D2E/DX2 analytically  !
 ! D116  D(16,19,23,30)         -3.5493         calculate D2E/DX2 analytically  !
 ! D117  D(20,19,23,24)          1.0119         calculate D2E/DX2 analytically  !
 ! D118  D(20,19,23,30)       -176.8644         calculate D2E/DX2 analytically  !
 ! D119  D(19,20,21,22)         -3.9537         calculate D2E/DX2 analytically  !
 ! D120  D(19,20,21,40)        178.66           calculate D2E/DX2 analytically  !
 ! D121  D(26,20,21,22)        173.1292         calculate D2E/DX2 analytically  !
 ! D122  D(26,20,21,40)         -4.2571         calculate D2E/DX2 analytically  !
 ! D123  D(19,20,26,25)          3.4744         calculate D2E/DX2 analytically  !
 ! D124  D(19,20,26,41)       -178.3903         calculate D2E/DX2 analytically  !
 ! D125  D(21,20,26,25)       -173.6063         calculate D2E/DX2 analytically  !
 ! D126  D(21,20,26,41)          4.529          calculate D2E/DX2 analytically  !
 ! D127  D(20,21,22,17)          2.1474         calculate D2E/DX2 analytically  !
 ! D128  D(20,21,22,39)       -176.9891         calculate D2E/DX2 analytically  !
 ! D129  D(40,21,22,17)        179.4929         calculate D2E/DX2 analytically  !
 ! D130  D(40,21,22,39)          0.3565         calculate D2E/DX2 analytically  !
 ! D131  D(19,23,24,25)          2.9382         calculate D2E/DX2 analytically  !
 ! D132  D(19,23,24,27)       -174.2329         calculate D2E/DX2 analytically  !
 ! D133  D(30,23,24,25)       -178.7386         calculate D2E/DX2 analytically  !
 ! D134  D(30,23,24,27)          4.0903         calculate D2E/DX2 analytically  !
 ! D135  D(19,23,30,1)          -8.3716         calculate D2E/DX2 analytically  !
 ! D136  D(19,23,30,13)        -65.6632         calculate D2E/DX2 analytically  !
 ! D137  D(19,23,30,29)        133.7108         calculate D2E/DX2 analytically  !
 ! D138  D(24,23,30,1)         173.62           calculate D2E/DX2 analytically  !
 ! D139  D(24,23,30,13)        116.3285         calculate D2E/DX2 analytically  !
 ! D140  D(24,23,30,29)        -44.2975         calculate D2E/DX2 analytically  !
 ! D141  D(23,24,25,26)         -3.7241         calculate D2E/DX2 analytically  !
 ! D142  D(23,24,25,42)        178.3734         calculate D2E/DX2 analytically  !
 ! D143  D(27,24,25,26)        173.3967         calculate D2E/DX2 analytically  !
 ! D144  D(27,24,25,42)         -4.5058         calculate D2E/DX2 analytically  !
 ! D145  D(23,24,27,28)         15.9642         calculate D2E/DX2 analytically  !
 ! D146  D(23,24,27,43)       -168.0031         calculate D2E/DX2 analytically  !
 ! D147  D(25,24,27,28)       -161.1582         calculate D2E/DX2 analytically  !
 ! D148  D(25,24,27,43)         14.8745         calculate D2E/DX2 analytically  !
 ! D149  D(24,25,26,20)          0.411          calculate D2E/DX2 analytically  !
 ! D150  D(24,25,26,41)       -177.7191         calculate D2E/DX2 analytically  !
 ! D151  D(42,25,26,20)        178.2917         calculate D2E/DX2 analytically  !
 ! D152  D(42,25,26,41)          0.1616         calculate D2E/DX2 analytically  !
 ! D153  D(24,27,28,29)         -1.7242         calculate D2E/DX2 analytically  !
 ! D154  D(24,27,28,44)        175.7667         calculate D2E/DX2 analytically  !
 ! D155  D(43,27,28,29)       -177.6525         calculate D2E/DX2 analytically  !
 ! D156  D(43,27,28,44)         -0.1617         calculate D2E/DX2 analytically  !
 ! D157  D(27,28,29,30)        -29.1233         calculate D2E/DX2 analytically  !
 ! D158  D(27,28,29,45)       -153.6437         calculate D2E/DX2 analytically  !
 ! D159  D(27,28,29,46)         89.4215         calculate D2E/DX2 analytically  !
 ! D160  D(44,28,29,30)        153.3379         calculate D2E/DX2 analytically  !
 ! D161  D(44,28,29,45)         28.8175         calculate D2E/DX2 analytically  !
 ! D162  D(44,28,29,46)        -88.1173         calculate D2E/DX2 analytically  !
 ! D163  D(28,29,30,1)        -166.4199         calculate D2E/DX2 analytically  !
 ! D164  D(28,29,30,13)       -107.8137         calculate D2E/DX2 analytically  !
 ! D165  D(28,29,30,23)         55.2295         calculate D2E/DX2 analytically  !
 ! D166  D(45,29,30,1)         -44.8524         calculate D2E/DX2 analytically  !
 ! D167  D(45,29,30,13)         13.7538         calculate D2E/DX2 analytically  !
 ! D168  D(45,29,30,23)        176.7969         calculate D2E/DX2 analytically  !
 ! D169  D(46,29,30,1)          76.4611         calculate D2E/DX2 analytically  !
 ! D170  D(46,29,30,13)        135.0672         calculate D2E/DX2 analytically  !
 ! D171  D(46,29,30,23)        -61.8896         calculate D2E/DX2 analytically  !
 --------------------------------------------------------------------------------
 Trust Radius=3.00D-01 FncErr=1.00D-07 GrdErr=1.00D-06 EigMax=2.50D+02 EigMin=1.00D-04
 Number of steps in this run=    276 maximum allowed number of steps=    276.
 Search for a saddle point of order  1.
 GradGradGradGradGradGradGradGradGradGradGradGradGradGradGradGradGradGrad

                          Input orientation:                          
 ---------------------------------------------------------------------
 Center     Atomic      Atomic             Coordinates (Angstroms)
 Number     Number       Type             X           Y           Z
 ---------------------------------------------------------------------
      1          6           0       -0.497460   -0.776540    0.250120
      2          6           0       -0.329570    0.677240    0.206090
      3          6           0       -1.555100    1.245550   -0.049220
      4          6           0       -1.888810   -1.019280   -0.047660
      5          6           0       -2.502410    0.223350   -0.203210
      6          6           0       -2.670610   -2.128240    0.161430
      7          6           0       -4.080900   -1.953830   -0.006130
      8          6           0       -4.662820   -0.712110   -0.267650
      9          6           0       -3.862380    0.465780   -0.332410
     10          6           0       -1.829390    2.612390   -0.137760
     11          6           0       -3.243420    2.883900   -0.343670
     12          6           0       -4.192140    1.879040   -0.424000
     13          6           0        0.149060   -1.966830    0.936190
     14          6           0       -0.828830   -3.141890    1.226700
     15          6           0       -1.934300   -3.240290    0.732370
     16          6           0        0.784930    1.470890    0.214970
     17          6           0        0.603860    2.893390    0.143830
     18          6           0       -0.693520    3.449020   -0.005290
     19          6           0        2.056010    0.819000    0.172230
     20          6           0        3.218970    1.625680    0.198440
     21          6           0        3.046630    3.059090    0.258660
     22          6           0        1.822080    3.663320    0.211960
     23          6           0        2.111160   -0.583360   -0.031590
     24          6           0        3.372490   -1.179420   -0.190390
     25          6           0        4.535150   -0.384200   -0.080600
     26          6           0        4.469360    0.985490    0.104970
     27          6           0        3.457640   -2.601280   -0.528450
     28          6           0        2.392450   -3.268310   -0.996010
     29          6           0        1.056420   -2.583870   -1.153690
     30          6           0        1.071490   -1.589460   -0.155340
     31          1           0       -0.352080   -2.068690    2.016980
     32          1           0       -0.343740   -3.982650    1.715000
     33          1           0       -2.413830   -4.203420    0.881170
     34          1           0       -4.730750   -2.814860    0.112950
     35          1           0       -5.741650   -0.651710   -0.368930
     36          1           0       -5.230980    2.166790   -0.551680
     37          1           0       -3.578330    3.912940   -0.426490
     38          1           0       -0.794540    4.529520   -0.039390
     39          1           0        1.758850    4.746710    0.211940
     40          1           0        3.940760    3.672990    0.301050
     41          1           0        5.380570    1.572880    0.148450
     42          1           0        5.502910   -0.865340   -0.179400
     43          1           0        4.425710   -3.086920   -0.452280
     44          1           0        2.484480   -4.303770   -1.307610
     45          1           0        0.239110   -3.303180   -1.086320
     46          1           0        0.996070   -2.137740   -2.158490
 ---------------------------------------------------------------------
                    Distance matrix (angstroms):
                    1          2          3          4          5
     1  C    0.000000
     2  C    1.464104   0.000000
     3  C    2.301533   1.374803   0.000000
     4  C    1.443416   2.318145   2.289284   0.000000
     5  C    2.285851   2.257161   1.402142   1.394572   0.000000
     6  C    2.560769   3.654200   3.559662   1.372852   2.385630
     7  C    3.780571   4.586943   4.076464   2.383352   2.696402
     8  C    4.197911   4.575126   3.679411   2.799621   2.355124
     9  C    3.633922   3.579866   2.451893   2.486255   1.387438
    10  C    3.661876   2.472347   1.396899   3.633273   2.482892
    11  C    4.614293   3.696229   2.370931   4.142150   2.765384
    12  C    4.599696   4.093994   2.737837   3.721185   2.375972
    13  C    1.518378   2.784464   3.767569   2.453309   3.622901
    14  C    2.580387   3.984553   4.626561   2.693144   4.021238
    15  C    2.892601   4.266049   4.569183   2.354443   3.632473
    16  C    2.587799   1.368236   2.365653   3.663169   3.540881
    17  C    3.833091   2.405512   2.722821   4.643173   4.110774
    18  C    4.237810   2.803552   2.366333   4.625605   3.703539
    19  C    3.011980   2.390028   3.642952   4.357663   4.612477
    20  C    4.425515   3.673109   4.795579   5.757238   5.904409
    21  C    5.222327   4.132154   4.955768   6.409797   6.248727
    22  C    5.009399   3.680531   4.161631   5.980372   5.541387
    23  C    2.630889   2.757312   4.097156   4.023685   4.686711
    24  C    3.915721   4.160484   5.493774   5.265671   6.040064
    25  C    5.058702   4.987419   6.304619   6.455360   7.064800
    26  C    5.272108   4.809883   6.032041   6.668487   7.020072
    27  C    4.424778   5.062727   6.336823   5.596285   6.603523
    28  C    4.014142   4.941842   6.070790   4.928153   6.064641
    29  C    2.766165   3.795367   4.764908   3.513634   4.631325
    30  C    1.812965   2.689150   3.866202   3.016633   4.007659
    31  H    2.193760   3.289371   4.086640   2.779485   3.847936
    32  H    3.528264   4.898121   5.649242   3.778329   5.101943
    33  H    3.976708   5.349833   5.594132   3.358142   4.558511
    34  H    4.700458   5.619059   5.157323   3.365490   3.781028
    35  H    5.282077   5.602443   4.607495   3.883645   3.359445
    36  H    5.631366   5.178493   3.822727   4.644909   3.368009
    37  H    5.651618   4.628645   3.369089   5.227311   3.849744
    38  H    5.322250   3.887997   3.370906   5.655676   4.635381
    39  H    5.966463   4.574070   4.827897   6.827844   6.228280
    40  H    6.284800   5.217207   6.018275   7.491521   7.325895
    41  H    6.330983   5.780242   6.946203   7.720210   8.005390
    42  H    6.016379   6.045327   7.368060   7.394496   8.079045
    43  H    5.483505   6.100413   7.396137   6.656727   7.682367
    44  H    4.874407   5.917823   6.978302   5.612576   6.825217
    45  H    2.951697   4.223442   4.998571   3.289842   4.553266
    46  H    3.144026   3.908027   4.733301   3.745543   4.651583
                    6          7          8          9         10
     6  C    0.000000
     7  C    1.430878   0.000000
     8  C    2.481619   1.396027   0.000000
     9  C    2.897091   2.451270   1.425596   0.000000
    10  C    4.823975   5.092837   4.370068   2.962916   0.000000
    11  C    5.069989   4.921274   3.866751   2.496105   1.454509
    12  C    4.326208   3.857186   2.638189   1.454109   2.490446
    13  C    2.928625   4.333670   5.116419   4.859896   5.102635
    14  C    2.356786   3.675230   4.778744   4.964729   5.997884
    15  C    1.450786   2.609263   3.851825   4.311172   5.917938
    16  C    4.989725   5.954317   5.888666   4.786164   2.874389
    17  C    5.994934   6.742774   6.395847   5.105624   2.465555
    18  C    5.919671   6.376922   5.756664   4.364448   1.416933
    19  C    5.570213   6.736621   6.905105   5.950358   4.290533
    20  C    6.984299   8.132825   8.234386   7.195324   5.154858
    21  C    7.720407   8.717865   8.598521   7.403313   4.912460
    22  C    7.330006   8.151387   7.837623   6.544745   3.815756
    23  C    5.028840   6.341959   6.779315   6.072427   5.074645
    24  C    6.127242   7.495778   8.049258   7.420930   6.437402
    25  C    7.417765   8.758173   9.205714   8.444192   7.034926
    26  C    7.789588   9.042062   9.296096   8.359383   6.509990
    27  C    6.185075   7.584299   8.341394   7.939016   7.435569
    28  C    5.317330   6.679220   7.539330   7.314827   7.289935
    29  C    3.978428   5.301500   6.082619   5.845465   6.030019
    30  C    3.793935   5.167412   5.802126   5.347751   5.105973
    31  H    2.970218   4.243850   5.063825   4.925990   5.360770
    32  H    3.356597   4.587457   5.769037   6.030029   7.009595
    33  H    2.211410   2.937189   4.308943   5.037112   6.916289
    34  H    2.172090   1.085292   2.137996   3.422720   6.159204
    35  H    3.448581   2.141315   1.085256   2.186727   5.100350
    36  H    5.050872   4.312751   2.948142   2.194215   3.455532
    37  H    6.137219   5.903242   4.753150   3.460122   2.198542
    38  H    6.919952   7.268775   6.518464   5.100146   2.180821
    39  H    8.178484   8.890864   8.441953   7.086671   4.189639
    40  H    8.796816   9.803188   9.673371   8.460287   5.883201
    41  H    8.861149  10.098564  10.308443   9.321428   7.290132
    42  H    8.277530   9.646981  10.167268   9.460653   8.115354
    43  H    7.187034   8.593332   9.395488   9.018231   8.468018
    44  H    5.784977   7.093679   8.066315   7.998891   8.234761
    45  H    3.376956   4.652961   5.604711   5.621002   6.338172
    46  H    4.338970   5.517436   6.134389   5.806670   5.884752
                   11         12         13         14         15
    11  C    0.000000
    12  C    1.384293   0.000000
    13  C    6.056116   5.957084   0.000000
    14  C    6.678806   6.264695   1.556095   0.000000
    15  C    6.354318   5.713368   2.450231   1.214952   0.000000
    16  C    4.305378   5.034491   3.569651   4.990547   5.464168
    17  C    3.878055   4.934871   4.945343   6.296810   6.664133
    18  C    2.633601   3.857525   5.561273   6.706430   6.843285
    19  C    5.710860   6.365419   3.461350   5.012271   5.719630
    20  C    6.606019   7.441517   4.782756   6.338117   7.107667
    21  C    6.321252   7.366026   5.840790   7.376208   8.044641
    22  C    5.155144   6.305469   5.917947   7.373459   7.876614
    23  C    6.386769   6.778568   2.588518   4.095474   4.899863
    24  C    7.765586   8.162866   3.504240   4.848765   5.767208
    25  C    8.441317   9.022515   4.772459   6.171399   7.118424
    26  C    7.955640   8.723521   5.298312   6.809138   7.697903
    27  C    8.661729   8.865851   3.673472   4.663329   5.574138
    28  C    8.368887   8.377305   3.234199   3.915746   4.659275
    29  C    7.002947   6.928015   2.360432   3.087363   3.596181
    30  C    6.218108   6.309395   1.478081   2.816255   3.542322
    31  H    6.201666   6.024037   1.195669   1.415483   2.350806
    32  H    7.732773   7.331092   2.216512   1.086566   2.011602
    33  H    7.240066   6.470099   3.402024   1.938675   1.086144
    34  H    5.907327   4.755114   5.020899   4.070917   2.895653
    35  H    4.329241   2.967947   6.175220   5.734355   4.733870
    36  H    2.123184   1.085491   6.945891   7.122053   6.461687
    37  H    1.085333   2.124504   7.093802   7.750059   7.430645
    38  H    2.966086   4.326275   6.636618   7.775261   7.890793
    39  H    5.366700   6.636432   6.941728   8.363961   8.814895
    40  H    7.256085   8.359905   6.825537   8.369493   9.082720
    41  H    8.736942   9.594697   6.365436   7.870726   8.775813
    42  H    9.517462  10.078961   5.578668   6.873917   7.860267
    43  H    9.719982   9.946301   4.633809   5.516538   6.471217
    44  H    9.241246   9.142492   3.993759   4.330210   4.981779
    45  H    7.138593   6.850551   2.425796   2.552758   2.834660
    46  H    6.817897   6.786789   3.213048   3.974681   4.261427
                   16         17         18         19         20
    16  C    0.000000
    17  C    1.435741   0.000000
    18  C    2.479380   1.419210   0.000000
    19  C    1.429137   2.532319   3.808994   0.000000
    20  C    2.439013   2.906694   4.321302   1.415590   0.000000
    21  C    2.763978   2.451075   3.769673   2.450878   1.444988
    22  C    2.425374   1.442738   2.534041   2.854200   2.470518
    23  C    2.457564   3.793483   4.911925   1.418167   2.481938
    24  C    3.726114   4.936071   6.163534   2.420392   2.836079
    25  C    4.194386   5.123281   6.483690   2.767264   2.418638
    26  C    3.717894   4.310880   5.721579   2.420021   1.407855
    27  C    4.927334   6.227955   7.356083   3.762158   4.295640
    28  C    5.148845   6.516505   7.458368   4.264279   5.104996
    29  C    4.288125   5.647012   6.385677   3.786393   4.921909
    30  C    3.095963   4.517092   5.340792   2.622453   3.882519
    31  H    4.131423   5.389318   5.886534   4.188168   5.450491
    32  H    5.767589   7.116632   7.636194   5.585229   6.815147
    33  H    6.547800   7.746924   7.893359   6.760678   8.134677
    34  H    6.985756   7.813011   7.453147   7.698608   9.106248
    35  H    6.887860   7.286711   6.513972   7.953574   9.262890
    36  H    6.104359   5.920899   4.746704   7.445858   8.500420
    37  H    5.041142   4.342287   2.952077   6.455751   7.198985
    38  H    3.451759   2.160096   1.085748   4.683842   4.959548
    39  H    3.417532   2.184819   2.783039   3.939135   3.445716
    40  H    3.849145   3.430364   4.649791   3.422592   2.173244
    41  H    4.597253   4.955878   6.359096   3.409047   2.162823
    42  H    5.279473   6.183302   7.552467   3.852501   3.400636
    43  H    5.871468   7.122218   8.314134   4.611041   4.907979
    44  H    6.209140   7.579084   8.479474   5.349419   6.161659
    45  H    4.978255   6.328016   6.901495   4.677333   5.901172
    46  H    4.324362   5.546781   6.221163   3.911271   4.965857
                   21         22         23         24         25
    21  C    0.000000
    22  C    1.366308   0.000000
    23  C    3.771842   4.263470   0.000000
    24  C    4.274669   5.100763   1.404086   0.000000
    25  C    3.766568   4.881471   2.432652   1.412872   0.000000
    26  C    2.519444   3.767003   2.835674   2.444831   1.383768
    27  C    5.729595   6.516784   2.476263   1.463974   2.505402
    28  C    6.483683   7.059179   2.866738   2.443965   3.707726
    29  C    6.148062   6.440390   2.524604   2.874823   4.253426
    30  C    5.067701   5.318834   1.452055   2.337512   3.668130
    31  H    6.398207   6.390697   3.531345   4.419921   5.578742
    32  H    7.949946   8.087692   4.542277   5.029809   6.322704
    33  H    9.107590   8.959708   5.866302   6.616216   7.987476
    34  H    9.747418   9.214999   7.198070   8.272193   9.581361
    35  H    9.560218   8.727367   7.860350   9.131150  10.284324
    36  H    8.364908   7.250407   7.857534   9.238363  10.104789
    37  H    6.714803   5.443745   7.262435   8.619848   9.187688
    38  H    4.123783   2.767703   5.880875   7.069578   7.249272
    39  H    2.123351   1.085234   5.347249   6.155056   5.841204
    40  H    1.085421   2.120574   4.644847   4.910227   4.118221
    41  H    2.769159   4.127569   3.920565   3.423792   2.144146
    42  H    4.650415   5.848969   3.406659   2.153475   1.085273
    43  H    6.338828   7.265387   3.435394   2.194633   2.730351
    44  H    7.548571   8.137714   3.950828   3.434866   4.590624
    45  H    7.083052   7.261091   3.466186   3.889874   5.290357
    46  H    6.087237   6.320888   2.860634   3.230970   4.462916
                   26         27         28         29         30
    26  C    0.000000
    27  C    3.780174   0.000000
    28  C    4.860095   1.340959   0.000000
    29  C    5.096343   2.481348   1.509403   0.000000
    30  C    4.271259   2.618531   2.295691   1.409177   0.000000
    31  H    6.019143   4.612682   4.248487   3.507482   2.641058
    32  H    7.102151   4.625121   3.917473   3.485171   3.350881
    33  H    8.654801   6.247243   5.243907   4.336615   4.478236
    34  H    9.954132   8.216249   7.223253   5.928665   5.936293
    35  H   10.352281   9.404956   8.567579   7.110756   6.880688
    36  H    9.794042   9.910961   9.373069   7.903327   7.347627
    37  H    8.580077   9.589074   9.356544   8.013630   7.209074
    38  H    6.347411   8.316762   8.478100   7.434247   6.398236
    39  H    4.637357   7.578062   8.130261   7.489710   6.383918
    40  H    2.746001   6.347278   7.229196   7.041590   6.011188
    41  H    1.084998   4.645370   5.803083   6.137786   5.353583
    42  H    2.138846   2.705264   4.014484   4.865579   4.490257
    43  H    4.110591   1.085729   2.112508   3.478096   3.685289
    44  H    5.823350   2.110119   1.085238   2.240782   3.269823
    45  H    6.140593   3.341080   2.155515   1.090844   2.120476
    46  H    5.190526   2.988516   2.139959   1.101044   2.078199
                   31         32         33         34         35
    31  H    0.000000
    32  H    1.937654   0.000000
    33  H    3.177727   2.242607   0.000000
    34  H    4.832686   4.814162   2.808270   0.000000
    35  H    6.062002   6.676478   5.025115   2.435846   0.000000
    36  H    6.952767   8.175486   7.111186   5.050624   2.870213
    37  H    7.222128   8.797096   8.303092   6.847069   5.051663
    38  H    6.925374   8.702766   8.929377   8.334079   7.171307
    39  H    7.359611   9.103944   9.897674   9.965041   9.259473
    40  H    7.371552   8.886226  10.136823  10.831559  10.625487
    41  H    7.043842   8.129312   9.729090  11.022355  11.354306
    42  H    6.368127   6.891276   8.656925  10.421799  11.248186
    43  H    5.473693   5.314799   7.057193   9.177922  10.455257
    44  H    4.908620   4.151881   5.366029   7.502959   9.049192
    45  H    3.391746   2.940882   3.423381   5.135778   6.581370
    46  H    4.388260   4.494742   5.013381   6.197935   7.127951
                   36         37         38         39         40
    36  H    0.000000
    37  H    2.407481   0.000000
    38  H    5.052419   2.877413   0.000000
    39  H    7.489781   5.439509   2.574906   0.000000
    40  H    9.333627   7.558016   4.824169   2.433423   0.000000
    41  H   10.651193   9.277302   6.849014   4.816024   2.550843
    42  H   11.160143  10.264596   8.293491   6.757680   4.823648
    43  H   10.993771  10.633126   9.242924   8.301752   6.819022
    44  H   10.097916  10.249310   9.507227   9.205800   8.266634
    45  H    7.754244   8.190275   7.969673   8.294324   8.018351
    46  H    7.738667   7.780468   7.221442   7.320958   6.963126
                   41         42         43         44         45
    41  H    0.000000
    42  H    2.463203   0.000000
    43  H    4.794410   2.483997   0.000000
    44  H    6.711368   4.712386   2.445544   0.000000
    45  H    7.192721   5.871385   4.239858   2.468165   0.000000
    46  H    6.189872   5.084034   3.946457   2.762435   1.755217
                   46
    46  H    0.000000
 Stoichiometry    C30H16
 Framework group  C1[X(C30H16)]
 Deg. of freedom   132
 Full point group                 C1      NOp   1
 Largest Abelian subgroup         C1      NOp   1
 Largest concise Abelian subgroup C1      NOp   1
                         Standard orientation:                         
 ---------------------------------------------------------------------
 Center     Atomic      Atomic             Coordinates (Angstroms)
 Number     Number       Type             X           Y           Z
 ---------------------------------------------------------------------
      1          6           0       -0.495189   -0.761308    0.260092
      2          6           0       -0.312018    0.690545    0.213487
      3          6           0       -1.530569    1.270980   -0.047879
      4          6           0       -1.887819   -0.990251   -0.042590
      5          6           0       -2.487853    0.258333   -0.203302
      6          6           0       -2.681917   -2.090551    0.165905
      7          6           0       -4.089655   -1.901876   -0.007560
      8          6           0       -4.657608   -0.654771   -0.274115
      9          6           0       -3.844715    0.514588   -0.338361
     10          6           0       -1.790283    2.640392   -0.140531
     11          6           0       -3.200601    2.926114   -0.352576
     12          6           0       -4.159401    1.930987   -0.434383
     13          6           0        0.136244   -1.956696    0.951332
     14          6           0       -0.854936   -3.120870    1.240625
     15          6           0       -1.959439   -3.208897    0.742193
     16          6           0        0.810632    1.472590    0.224963
     17          6           0        0.644644    2.896730    0.149953
     18          6           0       -0.646297    3.465472   -0.005478
     19          6           0        2.075021    0.807432    0.188647
     20          6           0        3.246196    1.602041    0.217614
     21          6           0        3.088540    3.037297    0.273972
     22          6           0        1.870531    3.654111    0.221137
     23          6           0        2.116375   -0.595884   -0.011837
     24          6           0        3.372046   -1.205376   -0.164374
     25          6           0        4.542478   -0.422034   -0.051804
     26          6           0        4.490215    0.948682    0.130461
     27          6           0        3.443719   -2.628806   -0.498936
     28          6           0        2.373476   -3.285788   -0.969177
     29          6           0        1.045260   -2.587861   -1.133605
     30          6           0        1.066788   -1.591403   -0.137417
     31          1           0       -0.370128   -2.050896    2.030376
     32          1           0       -0.380519   -3.965518    1.732687
     33          1           0       -2.449534   -4.166652    0.891257
     34          1           0       -4.748882   -2.755835    0.110891
     35          1           0       -5.735349   -0.583393   -0.379750
     36          1           0       -5.194688    2.229227   -0.566766
     37          1           0       -3.524466    3.958389   -0.438993
     38          1           0       -0.735941    4.546883   -0.042375
     39          1           0        1.818572    4.738097    0.218461
     40          1           0        3.988835    3.641967    0.318495
     41          1           0        5.407308    1.526669    0.176200
     42          1           0        5.505559   -0.913427   -0.145747
     43          1           0        4.406382   -3.124305   -0.417899
     44          1           0        2.455944   -4.322851   -1.278111
     45          1           0        0.220257   -3.298485   -1.067834
     46          1           0        0.993462   -2.143404   -2.139623
 ---------------------------------------------------------------------
 Rotational constants (GHZ):           0.2702768           0.1760786           0.1110572
 Standard basis: 6-311+G(d,p) (5D, 7F)
 There are   786 symmetry adapted cartesian basis functions of A   symmetry.
 There are   756 symmetry adapted basis functions of A   symmetry.
   756 basis functions,  1208 primitive gaussians,   786 cartesian basis functions
    98 alpha electrons       98 beta electrons
       nuclear repulsion energy      2683.9756509790 Hartrees.
 NAtoms=   46 NActive=   46 NUniq=   46 SFac= 1.00D+00 NAtFMM=   60 NAOKFM=F Big=F
 Integral buffers will be    131072 words long.
 Raffenetti 2 integral format.
 Two-electron integral symmetry is turned on.
 One-electron integrals computed using PRISM.
 NBasis=   756 RedAO= T EigKep=  1.26D-06  NBF=   756
 NBsUse=   735 1.00D-06 EigRej=  9.29D-07 NBFU=   735
 ExpMin= 4.38D-02 ExpMax= 4.56D+03 ExpMxC= 6.82D+02 IAcc=2 IRadAn=         4 AccDes= 0.00D+00
 Harris functional with IExCor=  402 and IRadAn=       4 diagonalized for initial guess.
 HarFok:  IExCor=  402 AccDes= 0.00D+00 IRadAn=         4 IDoV= 1 UseB2=F ITyADJ=14
 ICtDFT=  3500011 ScaDFX=  1.000000  1.000000  1.000000  1.000000
 FoFCou: FMM=F IPFlag=           0 FMFlag=      100000 FMFlg1=           0
         NFxFlg=           0 DoJE=T BraDBF=F KetDBF=T FulRan=T
         wScrn=  0.000000 ICntrl=       500 IOpCl=  0 I1Cent=   200000004 NGrid=           0
         NMat0=    1 NMatS0=      1 NMatT0=    0 NMatD0=    1 NMtDS0=    0 NMtDT0=    0
 Petite list used in FoFCou.
 Requested convergence on RMS density matrix=1.00D-08 within 128 cycles.
 Requested convergence on MAX density matrix=1.00D-06.
 Requested convergence on             energy=1.00D-06.
 No special actions if energy rises.
 SCF Done:  E(RB3LYP) =  -1152.89077599     A.U. after   17 cycles
            NFock= 17  Conv=0.32D-08     -V/T= 2.0036
 DoSCS=F DFT=T ScalE2(SS,OS)=  1.000000  1.000000
 Range of M.O.s used for correlation:     1   735
 NBasis=   756 NAE=    98 NBE=    98 NFC=     0 NFV=     0
 NROrb=    735 NOA=    98 NOB=    98 NVA=   637 NVB=   637

 **** Warning!!: The largest alpha MO coefficient is  0.11004061D+03

 Symmetrizing basis deriv contribution to polar:
 IMax=3 JMax=2 DiffMx= 0.00D+00
 G2DrvN: will do    47 centers at a time, making    1 passes.
 Calling FoFCou, ICntrl=  3107 FMM=F I1Cent=   0 AccDes= 0.00D+00.
 End of G2Drv F.D. properties file   721 does not exist.
 End of G2Drv F.D. properties file   722 does not exist.
 End of G2Drv F.D. properties file   788 does not exist.
          IDoAtm=1111111111111111111111111111111111111111111111
          Differentiating once with respect to nuclear coordinates.
 CalDSu exits because no D1Ps are significant.
          There are   141 degrees of freedom in the 1st order CPHF.  IDoFFX=6 NUNeed=     0.
    135 vectors produced by pass  0 Test12= 6.24D-14 1.00D-09 XBig12= 3.24D-01 1.11D-01.
 AX will form   135 AO Fock derivatives at one time.
    135 vectors produced by pass  1 Test12= 6.24D-14 1.00D-09 XBig12= 7.28D-02 3.80D-02.
    135 vectors produced by pass  2 Test12= 6.24D-14 1.00D-09 XBig12= 8.53D-04 3.43D-03.
    135 vectors produced by pass  3 Test12= 6.24D-14 1.00D-09 XBig12= 5.89D-06 2.21D-04.
    135 vectors produced by pass  4 Test12= 6.24D-14 1.00D-09 XBig12= 1.62D-08 9.54D-06.
    135 vectors produced by pass  5 Test12= 6.24D-14 1.00D-09 XBig12= 7.31D-11 9.02D-07.
    113 vectors produced by pass  6 Test12= 6.24D-14 1.00D-09 XBig12= 1.23D-11 2.51D-07.
     86 vectors produced by pass  7 Test12= 6.24D-14 1.00D-09 XBig12= 1.53D-12 7.63D-08.
     41 vectors produced by pass  8 Test12= 6.24D-14 1.00D-09 XBig12= 6.04D-14 1.46D-08.
      5 vectors produced by pass  9 Test12= 6.24D-14 1.00D-09 XBig12= 3.95D-16 1.10D-09.
      2 vectors produced by pass 10 Test12= 6.24D-14 1.00D-09 XBig12= 4.75D-16 1.31D-09.
 InvSVY:  IOpt=1 It=  1 EMax= 8.88D-16
 Solved reduced A of dimension  1057 with   141 vectors.
 End of Minotr F.D. properties file   721 does not exist.
 End of Minotr F.D. properties file   722 does not exist.
 End of Minotr F.D. properties file   788 does not exist.

 **********************************************************************

            Population analysis using the SCF Density.

 **********************************************************************

 Orbital symmetries:
       Occupied  (A) (A) (A) (A) (A) (A) (A) (A) (A) (A) (A) (A)
                 (A) (A) (A) (A) (A) (A) (A) (A) (A) (A) (A) (A)
                 (A) (A) (A) (A) (A) (A) (A) (A) (A) (A) (A) (A)
                 (A) (A) (A) (A) (A) (A) (A) (A) (A) (A) (A) (A)
                 (A) (A) (A) (A) (A) (A) (A) (A) (A) (A) (A) (A)
                 (A) (A) (A) (A) (A) (A) (A) (A) (A) (A) (A) (A)
                 (A) (A) (A) (A) (A) (A) (A) (A) (A) (A) (A) (A)
                 (A) (A) (A) (A) (A) (A) (A) (A) (A) (A) (A) (A)
                 (A) (A)
       Virtual   (A) (A) (A) (A) (A) (A) (A) (A) (A) (A) (A) (A)
                 (A) (A) (A) (A) (A) (A) (A) (A) (A) (A) (A) (A)
                 (A) (A) (A) (A) (A) (A) (A) (A) (A) (A) (A) (A)
                 (A) (A) (A) (A) (A) (A) (A) (A) (A) (A) (A) (A)
                 (A) (A) (A) (A) (A) (A) (A) (A) (A) (A) (A) (A)
                 (A) (A) (A) (A) (A) (A) (A) (A) (A) (A) (A) (A)
                 (A) (A) (A) (A) (A) (A) (A) (A) (A) (A) (A) (A)
                 (A) (A) (A) (A) (A) (A) (A) (A) (A) (A) (A) (A)
                 (A) (A) (A) (A) (A) (A) (A) (A) (A) (A) (A) (A)
                 (A) (A) (A) (A) (A) (A) (A) (A) (A) (A) (A) (A)
                 (A) (A) (A) (A) (A) (A) (A) (A) (A) (A) (A) (A)
                 (A) (A) (A) (A) (A) (A) (A) (A) (A) (A) (A) (A)
                 (A) (A) (A) (A) (A) (A) (A) (A) (A) (A) (A) (A)
                 (A) (A) (A) (A) (A) (A) (A) (A) (A) (A) (A) (A)
                 (A) (A) (A) (A) (A) (A) (A) (A) (A) (A) (A) (A)
                 (A) (A) (A) (A) (A) (A) (A) (A) (A) (A) (A) (A)
                 (A) (A) (A) (A) (A) (A) (A) (A) (A) (A) (A) (A)
                 (A) (A) (A) (A) (A) (A) (A) (A) (A) (A) (A) (A)
                 (A) (A) (A) (A) (A) (A) (A) (A) (A) (A) (A) (A)
                 (A) (A) (A) (A) (A) (A) (A) (A) (A) (A) (A) (A)
                 (A) (A) (A) (A) (A) (A) (A) (A) (A) (A) (A) (A)
                 (A) (A) (A) (A) (A) (A) (A) (A) (A) (A) (A) (A)
                 (A) (A) (A) (A) (A) (A) (A) (A) (A) (A) (A) (A)
                 (A) (A) (A) (A) (A) (A) (A) (A) (A) (A) (A) (A)
                 (A) (A) (A) (A) (A) (A) (A) (A) (A) (A) (A) (A)
                 (A) (A) (A) (A) (A) (A) (A) (A) (A) (A) (A) (A)
                 (A) (A) (A) (A) (A) (A) (A) (A) (A) (A) (A) (A)
                 (A) (A) (A) (A) (A) (A) (A) (A) (A) (A) (A) (A)
                 (A) (A) (A) (A) (A) (A) (A) (A) (A) (A) (A) (A)
                 (A) (A) (A) (A) (A) (A) (A) (A) (A) (A) (A) (A)
                 (A) (A) (A) (A) (A) (A) (A) (A) (A) (A) (A) (A)
                 (A) (A) (A) (A) (A) (A) (A) (A) (A) (A) (A) (A)
                 (A) (A) (A) (A) (A) (A) (A) (A) (A) (A) (A) (A)
                 (A) (A) (A) (A) (A) (A) (A) (A) (A) (A) (A) (A)
                 (A) (A) (A) (A) (A) (A) (A) (A) (A) (A) (A) (A)
                 (A) (A) (A) (A) (A) (A) (A) (A) (A) (A) (A) (A)
                 (A) (A) (A) (A) (A) (A) (A) (A) (A) (A) (A) (A)
                 (A) (A) (A) (A) (A) (A) (A) (A) (A) (A) (A) (A)
                 (A) (A) (A) (A) (A) (A) (A) (A) (A) (A) (A) (A)
                 (A) (A) (A) (A) (A) (A) (A) (A) (A) (A) (A) (A)
                 (A) (A) (A) (A) (A) (A) (A) (A) (A) (A) (A) (A)
                 (A) (A) (A) (A) (A) (A) (A) (A) (A) (A) (A) (A)
                 (A) (A) (A) (A) (A) (A) (A) (A) (A) (A) (A) (A)
                 (A) (A) (A) (A) (A) (A) (A) (A) (A) (A) (A) (A)
                 (A) (A) (A) (A) (A) (A) (A) (A) (A) (A) (A) (A)
                 (A) (A) (A) (A) (A) (A) (A) (A) (A) (A) (A) (A)
                 (A) (A) (A) (A) (A) (A) (A) (A) (A) (A) (A) (A)
                 (A) (A) (A) (A) (A) (A) (A) (A) (A) (A) (A) (A)
                 (A) (A) (A) (A) (A) (A) (A) (A) (A) (A) (A) (A)
                 (A) (A) (A) (A) (A) (A) (A) (A) (A) (A) (A) (A)
                 (A) (A) (A) (A) (A) (A) (A) (A) (A) (A) (A) (A)
                 (A) (A) (A) (A) (A) (A) (A) (A) (A) (A) (A) (A)
                 (A) (A) (A) (A) (A) (A) (A) (A) (A) (A) (A) (A)
                 (A)
 The electronic state is 1-A.
 Alpha  occ. eigenvalues --  -10.24164 -10.20848 -10.20191 -10.19667 -10.19370
 Alpha  occ. eigenvalues --  -10.19319 -10.19290 -10.19116 -10.19101 -10.19087
 Alpha  occ. eigenvalues --  -10.18915 -10.18821 -10.18789 -10.18609 -10.18535
 Alpha  occ. eigenvalues --  -10.18524 -10.18520 -10.18409 -10.18349 -10.18234
 Alpha  occ. eigenvalues --  -10.18232 -10.18212 -10.18118 -10.17897 -10.17860
 Alpha  occ. eigenvalues --  -10.17587 -10.17415 -10.17183 -10.16291 -10.16236
 Alpha  occ. eigenvalues --   -0.93488  -0.90166  -0.89050  -0.86025  -0.85432
 Alpha  occ. eigenvalues --   -0.82876  -0.81667  -0.80771  -0.79070  -0.77033
 Alpha  occ. eigenvalues --   -0.75813  -0.75092  -0.72979  -0.72099  -0.71012
 Alpha  occ. eigenvalues --   -0.67101  -0.66075  -0.64290  -0.63748  -0.62599
 Alpha  occ. eigenvalues --   -0.62114  -0.60044  -0.56753  -0.56435  -0.55649
 Alpha  occ. eigenvalues --   -0.54303  -0.53723  -0.51947  -0.50940  -0.50177
 Alpha  occ. eigenvalues --   -0.49208  -0.48544  -0.48051  -0.46498  -0.46197
 Alpha  occ. eigenvalues --   -0.44873  -0.44786  -0.44436  -0.43960  -0.43312
 Alpha  occ. eigenvalues --   -0.42700  -0.42145  -0.41678  -0.40788  -0.40698
 Alpha  occ. eigenvalues --   -0.40196  -0.39467  -0.39136  -0.38437  -0.38001
 Alpha  occ. eigenvalues --   -0.37287  -0.36283  -0.35189  -0.34737  -0.33931
 Alpha  occ. eigenvalues --   -0.33678  -0.33344  -0.32874  -0.32324  -0.30252
 Alpha  occ. eigenvalues --   -0.29059  -0.28449  -0.25806  -0.25221  -0.23762
 Alpha  occ. eigenvalues --   -0.22654  -0.20718  -0.17971
 Alpha virt. eigenvalues --   -0.07246  -0.06660  -0.04888  -0.03234  -0.01392
 Alpha virt. eigenvalues --   -0.00348  -0.00200   0.00548   0.00897   0.01139
 Alpha virt. eigenvalues --    0.01524   0.01720   0.01936   0.02182   0.02346
 Alpha virt. eigenvalues --    0.03137   0.03243   0.04344   0.04477   0.04699
 Alpha virt. eigenvalues --    0.04816   0.05092   0.05317   0.05569   0.06078
 Alpha virt. eigenvalues --    0.06605   0.07090   0.07484   0.07541   0.07836
 Alpha virt. eigenvalues --    0.08263   0.08426   0.08816   0.08952   0.09568
 Alpha virt. eigenvalues --    0.09718   0.10173   0.10472   0.10817   0.11189
 Alpha virt. eigenvalues --    0.11750   0.11790   0.12111   0.12281   0.12796
 Alpha virt. eigenvalues --    0.12989   0.13443   0.13456   0.14165   0.14436
 Alpha virt. eigenvalues --    0.14929   0.15206   0.15251   0.15613   0.15900
 Alpha virt. eigenvalues --    0.16083   0.16308   0.16491   0.16806   0.17015
 Alpha virt. eigenvalues --    0.17243   0.17496   0.17682   0.17759   0.17891
 Alpha virt. eigenvalues --    0.17955   0.18233   0.18824   0.19035   0.19133
 Alpha virt. eigenvalues --    0.19209   0.19478   0.19552   0.19857   0.20050
 Alpha virt. eigenvalues --    0.20299   0.20531   0.20781   0.20821   0.21150
 Alpha virt. eigenvalues --    0.21293   0.21552   0.21695   0.21968   0.22121
 Alpha virt. eigenvalues --    0.22427   0.22750   0.22767   0.23192   0.23434
 Alpha virt. eigenvalues --    0.23732   0.23907   0.23977   0.24218   0.24399
 Alpha virt. eigenvalues --    0.24535   0.24799   0.25034   0.25242   0.25405
 Alpha virt. eigenvalues --    0.25648   0.25925   0.25984   0.26117   0.26627
 Alpha virt. eigenvalues --    0.27003   0.27148   0.27437   0.27821   0.27914
 Alpha virt. eigenvalues --    0.28396   0.28565   0.28959   0.29258   0.29468
 Alpha virt. eigenvalues --    0.29830   0.30186   0.30375   0.30655   0.31019
 Alpha virt. eigenvalues --    0.31302   0.31418   0.31615   0.31992   0.32221
 Alpha virt. eigenvalues --    0.32481   0.32941   0.33035   0.33527   0.34256
 Alpha virt. eigenvalues --    0.34350   0.34970   0.35149   0.35798   0.35877
 Alpha virt. eigenvalues --    0.36539   0.37170   0.37329   0.37795   0.38235
 Alpha virt. eigenvalues --    0.39056   0.39277   0.39969   0.40150   0.40475
 Alpha virt. eigenvalues --    0.41037   0.41913   0.42297   0.42670   0.43136
 Alpha virt. eigenvalues --    0.43223   0.44187   0.44737   0.45552   0.46338
 Alpha virt. eigenvalues --    0.46884   0.47360   0.48108   0.48546   0.49731
 Alpha virt. eigenvalues --    0.50154   0.50506   0.51652   0.52035   0.52279
 Alpha virt. eigenvalues --    0.52825   0.52894   0.54039   0.54474   0.54561
 Alpha virt. eigenvalues --    0.54895   0.55467   0.55607   0.56440   0.56629
 Alpha virt. eigenvalues --    0.57103   0.57486   0.57837   0.57964   0.58213
 Alpha virt. eigenvalues --    0.58567   0.59078   0.59483   0.59861   0.59960
 Alpha virt. eigenvalues --    0.60833   0.61292   0.61764   0.62073   0.62340
 Alpha virt. eigenvalues --    0.62515   0.62921   0.63643   0.63890   0.64145
 Alpha virt. eigenvalues --    0.64471   0.65057   0.65463   0.66061   0.66110
 Alpha virt. eigenvalues --    0.66688   0.67034   0.67229   0.68122   0.68568
 Alpha virt. eigenvalues --    0.68691   0.69298   0.69834   0.69994   0.70078
 Alpha virt. eigenvalues --    0.70364   0.70983   0.71402   0.71655   0.72159
 Alpha virt. eigenvalues --    0.72349   0.72442   0.72954   0.73094   0.73431
 Alpha virt. eigenvalues --    0.73870   0.74301   0.74673   0.74777   0.75075
 Alpha virt. eigenvalues --    0.75356   0.75778   0.76176   0.76932   0.77121
 Alpha virt. eigenvalues --    0.77319   0.77659   0.78285   0.78654   0.79488
 Alpha virt. eigenvalues --    0.79662   0.80478   0.82038   0.82750   0.83008
 Alpha virt. eigenvalues --    0.83437   0.84129   0.84628   0.84901   0.85530
 Alpha virt. eigenvalues --    0.85944   0.86722   0.87567   0.88199   0.88454
 Alpha virt. eigenvalues --    0.88931   0.89189   0.89559   0.90584   0.90775
 Alpha virt. eigenvalues --    0.91268   0.91832   0.92430   0.92828   0.93230
 Alpha virt. eigenvalues --    0.93495   0.94637   0.94891   0.95212   0.95567
 Alpha virt. eigenvalues --    0.96069   0.96444   0.96764   0.97212   0.97348
 Alpha virt. eigenvalues --    0.98350   0.98814   0.99026   0.99238   0.99709
 Alpha virt. eigenvalues --    1.00366   1.00778   1.01227   1.01552   1.02831
 Alpha virt. eigenvalues --    1.03298   1.04075   1.04341   1.04865   1.05801
 Alpha virt. eigenvalues --    1.06241   1.06642   1.08060   1.08494   1.09117
 Alpha virt. eigenvalues --    1.09470   1.10270   1.10709   1.11053   1.12657
 Alpha virt. eigenvalues --    1.13388   1.14069   1.15708   1.16541   1.17555
 Alpha virt. eigenvalues --    1.18592   1.18812   1.20492   1.20802   1.21923
 Alpha virt. eigenvalues --    1.22740   1.23208   1.24613   1.25854   1.26442
 Alpha virt. eigenvalues --    1.28868   1.30332   1.30833   1.31156   1.32812
 Alpha virt. eigenvalues --    1.33848   1.35150   1.35698   1.36233   1.37588
 Alpha virt. eigenvalues --    1.39228   1.39855   1.41043   1.41796   1.42870
 Alpha virt. eigenvalues --    1.44377   1.44950   1.47035   1.47173   1.47388
 Alpha virt. eigenvalues --    1.47549   1.48725   1.49072   1.49637   1.50293
 Alpha virt. eigenvalues --    1.50559   1.51274   1.51431   1.51764   1.52766
 Alpha virt. eigenvalues --    1.53199   1.53980   1.54943   1.55501   1.56461
 Alpha virt. eigenvalues --    1.56678   1.57609   1.58001   1.58511   1.59016
 Alpha virt. eigenvalues --    1.60059   1.60957   1.61495   1.61742   1.62322
 Alpha virt. eigenvalues --    1.63171   1.63958   1.64980   1.65954   1.66811
 Alpha virt. eigenvalues --    1.66842   1.67544   1.68659   1.68886   1.69690
 Alpha virt. eigenvalues --    1.69748   1.70674   1.71669   1.72722   1.73387
 Alpha virt. eigenvalues --    1.73924   1.74664   1.74846   1.75749   1.76812
 Alpha virt. eigenvalues --    1.77229   1.78058   1.78587   1.78835   1.79280
 Alpha virt. eigenvalues --    1.79932   1.81322   1.82127   1.82954   1.83392
 Alpha virt. eigenvalues --    1.83988   1.84632   1.84833   1.85239   1.85879
 Alpha virt. eigenvalues --    1.86595   1.87096   1.87400   1.88009   1.88403
 Alpha virt. eigenvalues --    1.89222   1.89731   1.89964   1.90996   1.91817
 Alpha virt. eigenvalues --    1.93255   1.93686   1.94672   1.95354   1.95453
 Alpha virt. eigenvalues --    1.96164   1.96873   1.97703   1.98213   1.98547
 Alpha virt. eigenvalues --    1.99431   2.00120   2.00358   2.00635   2.01382
 Alpha virt. eigenvalues --    2.01770   2.02667   2.03777   2.04120   2.05608
 Alpha virt. eigenvalues --    2.05878   2.07314   2.07915   2.08364   2.09036
 Alpha virt. eigenvalues --    2.09559   2.09886   2.11148   2.12673   2.13876
 Alpha virt. eigenvalues --    2.14164   2.14724   2.16287   2.16889   2.17775
 Alpha virt. eigenvalues --    2.18489   2.19400   2.20646   2.21284   2.21987
 Alpha virt. eigenvalues --    2.22691   2.24659   2.25771   2.26190   2.26461
 Alpha virt. eigenvalues --    2.27939   2.28494   2.28981   2.31629   2.31774
 Alpha virt. eigenvalues --    2.34190   2.35561   2.36759   2.37895   2.38965
 Alpha virt. eigenvalues --    2.39505   2.40462   2.41906   2.42883   2.44216
 Alpha virt. eigenvalues --    2.45098   2.45449   2.47454   2.48167   2.49186
 Alpha virt. eigenvalues --    2.49612   2.50573   2.54264   2.55196   2.55480
 Alpha virt. eigenvalues --    2.56139   2.57037   2.58114   2.58474   2.59738
 Alpha virt. eigenvalues --    2.61292   2.62230   2.64964   2.66065   2.66366
 Alpha virt. eigenvalues --    2.66953   2.67509   2.69009   2.70255   2.71467
 Alpha virt. eigenvalues --    2.71840   2.72460   2.72826   2.73140   2.73436
 Alpha virt. eigenvalues --    2.73810   2.75162   2.75502   2.75830   2.76386
 Alpha virt. eigenvalues --    2.76432   2.76879   2.77425   2.77847   2.78081
 Alpha virt. eigenvalues --    2.78710   2.78848   2.79865   2.80639   2.81444
 Alpha virt. eigenvalues --    2.82749   2.82855   2.83387   2.83930   2.84885
 Alpha virt. eigenvalues --    2.85447   2.86276   2.86524   2.87162   2.87718
 Alpha virt. eigenvalues --    2.89413   2.89905   2.90959   2.92414   2.93179
 Alpha virt. eigenvalues --    2.93461   2.94835   2.95604   2.96771   2.99832
 Alpha virt. eigenvalues --    3.00905   3.01777   3.02734   3.03865   3.05314
 Alpha virt. eigenvalues --    3.07056   3.07634   3.08350   3.10634   3.11399
 Alpha virt. eigenvalues --    3.14188   3.15741   3.16706   3.20079   3.20884
 Alpha virt. eigenvalues --    3.20924   3.22136   3.22408   3.24037   3.25338
 Alpha virt. eigenvalues --    3.26110   3.27186   3.28868   3.30287   3.32005
 Alpha virt. eigenvalues --    3.33612   3.34176   3.36793   3.37321   3.37971
 Alpha virt. eigenvalues --    3.40248   3.42144   3.43772   3.44560   3.45089
 Alpha virt. eigenvalues --    3.45920   3.47421   3.48299   3.49723   3.50503
 Alpha virt. eigenvalues --    3.52849   3.55162   3.55452   3.58876   3.61176
 Alpha virt. eigenvalues --    3.61309   3.63891   3.64502   3.67295   3.70274
 Alpha virt. eigenvalues --    3.71690   3.75924   3.77082   3.82890   3.84392
 Alpha virt. eigenvalues --    3.85299   3.86694   3.96552   3.96852   4.01089
 Alpha virt. eigenvalues --    4.04089   4.06319   4.08252   4.08427   4.09858
 Alpha virt. eigenvalues --    4.11798   4.18990   4.21812   4.26200   4.30938
 Alpha virt. eigenvalues --    4.37574   4.41697   4.42781   4.53851   4.66469
 Alpha virt. eigenvalues --    4.72630   4.74398   4.77613   4.80450   4.83388
 Alpha virt. eigenvalues --    4.85598   4.88644  23.43999  23.61717  23.68180
 Alpha virt. eigenvalues --   23.76337  23.79061  23.82163  23.83982  23.86172
 Alpha virt. eigenvalues --   23.91400  23.94294  23.95407  23.96732  23.98008
 Alpha virt. eigenvalues --   23.98707  23.99284  24.00659  24.03464  24.07100
 Alpha virt. eigenvalues --   24.07678  24.08027  24.10098  24.11069  24.12141
 Alpha virt. eigenvalues --   24.13724  24.16234  24.18596  24.20056  24.23519
 Alpha virt. eigenvalues --   24.23808  24.81113
          Condensed to atoms (all electrons):
               1          2          3          4          5          6
     1  C   16.283358   0.406975   0.150677   1.084994  -0.705043  -2.223366
     2  C    0.406975   7.750628   0.017394   0.518808  -0.554177  -0.187542
     3  C    0.150677   0.017394   7.115071   0.559366   0.635574  -0.020736
     4  C    1.084994   0.518808   0.559366   8.660571   0.722684   0.763552
     5  C   -0.705043  -0.554177   0.635574   0.722684   8.393206  -0.015002
     6  C   -2.223366  -0.187542  -0.020736   0.763552  -0.015002  13.019953
     7  C   -1.341110  -0.688457  -0.749911  -1.791165   0.711672  -1.652991
     8  C    0.127813  -0.063583  -0.527797  -0.226006  -1.238379  -1.735524
     9  C    0.087205   0.088234   0.031866   0.159823   1.121150   0.590931
    10  C    0.085452   0.058643   0.489002   0.158564  -0.108371  -0.160629
    11  C   -0.357604  -0.713172   0.224336  -0.281425   0.927210   0.034344
    12  C   -0.134090   0.034181   0.318053  -0.002922  -0.890903  -0.074119
    13  C   -2.264952   0.242467  -0.818211  -2.527481  -1.250518   0.701657
    14  C   -0.878753  -0.289534   0.071088   0.597225  -0.209018  -1.055877
    15  C    0.821762   0.381574   0.038757  -1.430604  -0.646676  -2.260437
    16  C    0.490784  -0.109228   0.558633   0.055245   0.065562  -0.273253
    17  C   -0.045586   0.653705  -0.522260  -0.094936  -0.421162   0.221509
    18  C    0.202200   0.316121   0.195591  -0.159348  -0.694057  -0.150147
    19  C   -0.567734  -0.079195  -0.182604  -0.144568  -0.355202   0.205798
    20  C   -0.605284   0.229687  -0.207331   0.081304   0.105485   0.024687
    21  C    0.064864  -0.521648  -0.205463  -0.090968   0.000365   0.012002
    22  C    0.025652  -0.468983  -0.654655  -0.074128   0.036590   0.060079
    23  C   -1.202230  -0.657135  -0.125139  -0.166107   0.109623   0.074850
    24  C   -1.878544  -0.230967  -0.032184  -0.302508   0.068897   0.315257
    25  C   -0.242087  -0.059960  -0.037695  -0.043636  -0.007481   0.047710
    26  C   -0.295359   0.056007  -0.090964  -0.055330  -0.006865   0.015890
    27  C    0.103107   0.409985  -0.013273  -0.030492   0.058114  -0.161530
    28  C    0.035885  -0.292279   0.019418  -0.081463  -0.023085   0.110186
    29  C    0.814398   0.285090  -0.169029   0.217621   0.016267  -0.484627
    30  C   -2.354090  -0.702364  -0.410787  -0.716534   0.138549   0.517677
    31  H    0.151360   0.105875   0.016670   0.164627   0.004292  -0.080942
    32  H    0.004345  -0.000106  -0.003306  -0.000037  -0.000778  -0.035829
[...]
 008313,0.00077691,-0.00010498,-0.29746041,0.02538736,0.08619116,-0.015
 76327,0.00419787,0.00808255,0.00132213,-0.00356810,0.00144097,0.000569
 83,-0.00003521,-0.00017319,0.00006871,0.00000232,0.00002959,0.00000948
 ,0.00006312,-0.00001352,-0.00000780,0.00000250,0.00002147,-0.00000486,
 -0.00000672,0.00000406,-0.00000866,0.00000459,0.00000259,-0.00000926,0
 .00000212,0.00000247,0.00000072,0.00000791,0.00000286,-0.00000303,0.00
 001007,-0.00000011,0.00000296,0.00000940,-0.00000410,0.00000852,0.0000
 1543,0.00000790,-0.00001340,0.00004467,0.00005122,0.00088655,0.0000028
 6,0.00023470,0.31687578,-0.00012594,-0.00013592,0.00004523,-0.00000022
 ,0.00013100,-0.00004495,0.00004988,0.00000456,0.00001253,0.00009726,0.
 00000658,-0.00002315,-0.00003614,0.00001963,0.00000417,0.00002560,-0.0
 0008658,0.00002208,-0.00003872,0.00003535,-0.00000526,-0.00000899,-0.0
 0006255,0.00000903,0.00006585,0.00001209,-0.00000443,0.00001668,0.0000
 2882,0.00000007,-0.00001091,0.00000138,0.00000440,0.00000613,0.0000204
 9,-0.00000054,-0.00010065,0.00016626,0.00015617,0.00006312,-0.00001144
 ,0.00007321,-0.00004752,0.00013076,0.00002882,-0.00018371,-0.00040526,
 -0.00001854,0.00014844,-0.00002996,0.00004877,-0.00006240,-0.00005391,
 -0.00000728,0.00135121,0.00011034,0.00008848,0.00003976,0.00014545,-0.
 00005038,-0.00008048,0.00000266,-0.00001587,-0.00001190,0.00000178,0.0
 0001617,-0.00094922,-0.00404494,-0.00219220,0.02609107,-0.00275968,-0.
 00901037,0.00243553,0.00039195,0.00049125,-0.00024140,-0.00005872,0.00
 006478,0.02603338,-0.05651251,-0.01424836,-0.02592481,0.00591853,0.008
 87840,-0.00249544,-0.00281806,-0.00307341,0.00005989,-0.00024747,0.000
 05505,-0.00005168,0.00000059,-0.00003690,0.00001202,0.00006965,-0.0000
 6498,0.00000006,-0.00000495,-0.00001487,-0.00000004,0.00000100,-0.0000
 0150,0.00000105,-0.00000007,-0.00000079,0.00000164,0.00000021,-0.00000
 073,-0.00000041,-0.00000105,-0.00000182,0.00001465,-0.00000589,-0.0000
 1139,-0.00000504,-0.00000055,-0.00000296,-0.00000144,-0.00002455,-0.00
 000864,-0.00000102,-0.00001030,-0.00002632,-0.00094505,-0.00040281,-0.
 00024452,-0.02492447,0.06002950,-0.00030729,-0.00011493,0.00009534,0.0
 0002188,0.00021044,-0.00003308,0.00008735,0.00001138,0.00000313,0.0002
 6627,0.00007034,0.00002694,-0.00010158,0.00004798,0.00000022,0.0001626
 0,-0.00035717,0.00004872,-0.00016179,0.00012503,0.00000082,-0.00002170
 ,-0.00022938,0.00003609,0.00018783,0.00012061,-0.00003048,-0.00009487,
 0.00000384,-0.00000111,0.00006456,0.00003027,0.00000217,-0.00002013,-0
 .00003679,0.00000056,0.00039580,-0.00004378,-0.00068250,0.00027415,0.0
 0011232,0.00019707,-0.00036982,0.00022437,-0.00007804,-0.00016292,-0.0
 0022438,-0.00011398,-0.00001355,-0.00001179,0.00007340,0.00004970,-0.0
 0005608,-0.00000413,0.00073170,-0.00009216,-0.00000771,0.00030527,-0.0
 0003069,0.00002709,-0.00012246,0.00012382,0.00002365,0.00010631,0.0000
 2149,0.00000670,0.00031348,-0.00205194,0.00182173,0.00896305,0.0020733
 1,0.00052879,0.00028399,0.00022306,-0.00105416,-0.00051482,0.00048489,
 0.00002860,0.08606420,-0.01683819,-0.06978545,0.00071737,0.00012892,0.
 00486544,0.00262574,-0.00192420,0.01022632,-0.00075480,-0.00041570,-0.
 00020403,-0.00017115,-0.00017158,-0.00001457,0.00003421,0.00004122,0.0
 0004024,-0.00000374,0.00000318,0.00000092,0.00000059,0.00000395,-0.000
 00355,0.00000177,-0.00000385,-0.00000292,0.00000353,-0.00000089,0.0000
 0068,0.00000027,-0.00000270,0.00000052,0.00000998,-0.00000130,-0.00001
 662,-0.00000196,-0.00000155,-0.00000028,-0.00000495,-0.00001386,0.0000
 0274,-0.00000006,-0.00001930,0.00003016,-0.00054640,-0.00038439,0.0001
 2430,-0.09591009,0.01704332,0.05950969,-0.00028008,-0.00022370,0.00008
 513,-0.00003344,-0.00009000,0.00002948,0.00007801,0.00001099,-0.000014
 51,-0.00016235,0.00008564,-0.00015781,-0.00006476,-0.00009279,0.000003
 31,-0.00002958,0.00009784,-0.00001347,0.00006893,-0.00000898,0.0000079
 1,-0.00000958,0.00007436,-0.00001444,-0.00003382,-0.00005032,0.0000219
 3,0.00003125,0.00002122,0.00000316,-0.00003125,0.00000071,0.00000280,0
 .00000086,0.00004291,0.00000132,-0.00056105,0.00159304,0.00029535,0.00
 000031,0.00015515,-0.00011660,0.00003186,-0.00008445,0.00000469,0.0001
 7837,0.00004592,-0.00000080,-0.00001075,-0.00005927,-0.00000397,-0.000
 00641,0.00003490,0.00001211,0.00006643,0.00045920,-0.00026465,-0.00040
 292,-0.00010048,0.00001161,0.00003517,0.00005145,0.00007660,-0.0000318
 9,-0.00004594,-0.00002376,-0.00077871,-0.00078353,-0.00019320,-0.00142
 914,-0.00326204,0.00294299,0.00060621,-0.00039249,-0.00023413,0.000038
 59,-0.00023314,-0.00036112,0.00988404,-0.02021947,-0.00635475,-0.07677
 857,0.07052054,0.03337134,-0.00466634,0.02573257,0.00772400,-0.0035536
 7,-0.00175777,0.00271429,0.00011803,-0.00000716,-0.00008675,0.00006343
 ,0.00002891,0.00003323,-0.00002636,-0.00000403,0.00001089,-0.00000954,
 -0.00000422,0.00000384,-0.00000435,0.00000386,-0.00000094,-0.00000346,
 0.00000398,0.00000246,-0.00000235,0.00000481,-0.00000025,-0.00000299,0
 .00000740,0.00000666,0.00000678,0.00000810,-0.00000328,0.00000272,0.00
 000815,-0.00000111,0.00001431,-0.00009007,-0.00002699,-0.00003081,-0.0
 0000514,0.00011674,0.00035422,0.00084720,-0.00206262,0.07623274,-0.000
 15590,-0.00009190,-0.00000774,0.00004636,0.00015868,-0.00003242,0.0000
 5149,-0.00000276,0.00001496,0.00014321,0.00001311,0.00004373,-0.000049
 86,0.00003874,0.00001614,0.00006412,-0.00011992,0.00001900,-0.00007755
 ,0.00004621,0.00000078,-0.00001656,-0.00012769,0.00001988,0.00012336,0
 .00005614,-0.00001822,-0.00004859,0.00000135,-0.00001038,0.00003436,0.
 00001001,0.00000546,-0.00000871,-0.00000973,-0.00000423,0.00001141,-0.
 00001506,-0.00016250,0.00008694,-0.00003421,0.00001127,-0.00009102,0.0
 0009493,0.00002278,-0.00015200,-0.00005463,-0.00001443,-0.00000429,-0.
 00002152,0.00000757,0.00001819,-0.00002339,0.00000587,0.00017016,-0.00
 011947,0.00012614,0.00010056,0.00002473,-0.00003712,-0.00001111,0.0000
 4611,-0.00002026,0.00003991,-0.00000223,0.00001245,-0.00009957,0.00032
 177,0.00027246,-0.00479185,0.00060719,-0.00160789,0.00075748,-0.001302
 65,-0.00029421,-0.00046352,-0.00006004,0.00015450,0.00980885,-0.018635
 56,-0.00970077,0.06714631,-0.27888041,-0.08750740,-0.00142026,0.001261
 56,0.00040880,-0.00031636,0.00105539,-0.00020015,-0.00005342,-0.000011
 05,-0.00006567,-0.00000994,-0.00003494,0.00001254,0.00000752,0.0000013
 0,-0.00001262,0.00000427,0.00000589,-0.00000365,0.00000644,-0.00000407
 ,-0.00000244,0.00000689,-0.00000215,-0.00000137,0.00000045,-0.00000574
 ,-0.00000101,0.00000321,-0.00000386,-0.00000903,0.00000471,-0.00000775
 ,0.00000127,-0.00000783,-0.00000117,-0.00000041,0.00002049,-0.00013108
 ,-0.00005322,-0.00004749,0.00003468,-0.00004046,0.00025661,0.00044358,
 0.00184942,-0.07211540,0.29528711,0.00010027,0.00001316,0.00008440,0.0
 0000785,0.00007162,0.00005750,-0.00003398,-0.00004755,-0.00003521,0.00
 005711,-0.00022843,-0.00012100,0.00000771,0.00011858,-0.00007852,-0.00
 018565,0.00027289,-0.00000599,0.00012705,-0.00010334,0.00002550,-0.000
 00803,0.00012430,-0.00003280,0.00005100,-0.00021288,0.00005135,0.00021
 348,0.00004025,0.00000803,-0.00015497,-0.00006820,0.00000729,0.0000639
 7,0.00019046,0.00001673,0.00005931,-0.00077431,0.00028107,-0.00036025,
 -0.00011784,-0.00003115,0.00036276,-0.00009463,0.00001962,-0.00010520,
 0.00002884,0.00000500,0.00010915,0.00002178,-0.00003608,-0.00016559,0.
 00000795,-0.00000407,0.00023484,0.00021340,-0.00056333,-0.00049494,-0.
 00012812,0.00015323,-0.00002980,-0.00005999,0.00011069,-0.00006055,0.0
 0001281,-0.00002599,-0.00001454,-0.00015018,-0.00035996,0.00231443,-0.
 00218727,0.00909166,-0.00010331,0.00098715,0.00039275,0.00039299,-0.00
 021474,-0.00100647,0.00123832,0.00024974,0.00531112,0.03251099,-0.0889
 8192,-0.06924839,0.00135571,-0.01082566,-0.00088555,0.00166875,0.00215
 480,0.00081525,0.00017140,0.00011509,-0.00008634,-0.00001651,-0.000003
 98,0.00000442,0.00001693,-0.00001269,-0.00002837,0.00000407,0.00000124
 ,-0.00000427,0.00000631,-0.00000026,0.00000036,0.00000545,-0.00000097,
 -0.00000532,-0.00000351,-0.00000392,-0.00000189,-0.00000519,-0.0000082
 8,0.00002412,-0.00000036,-0.00000227,-0.00001236,-0.00000068,0.0000000
 6,-0.00000371,0.00000542,0.00003693,-0.00004175,0.00000233,-0.00008677
 ,0.00034239,-0.00199365,0.00157575,-0.00540450,-0.03738910,0.09712901,
 0.06063937,0.00174936,0.00054463,-0.00029084,-0.00018337,-0.00107557,0
 .00029077,-0.00011054,0.00003679,0.00000074,-0.00157615,-0.00027150,-0
 .00031577,0.00026594,-0.00049955,-0.00000741,-0.00051409,0.00167006,0.
 00014740,0.00061756,-0.00038019,0.00010510,0.00003489,0.00079019,-0.00
 017520,-0.00058229,-0.00042377,0.00013587,0.00017088,-0.00014474,0.000
 01423,-0.00023520,-0.00005100,0.00000089,0.00008870,0.00014542,-0.0000
 0189,-0.00145191,0.00060949,0.00200306,-0.00247034,-0.00127109,-0.0024
 1369,0.00142538,-0.00097731,0.00039720,0.00101961,0.00029528,0.0000098
 4,0.00000329,-0.00020198,-0.00002346,0.00009610,0.00014113,0.00002532,
 -0.00060615,0.00107111,0.00039219,-0.00080027,-0.00027966,0.00002465,0
 .00005813,0.00020015,0.00002546,-0.00006531,-0.00009819,-0.00003759,-0
 .00173881,-0.00138568,-0.00031164,0.00073361,-0.00137844,-0.00034057,0
 .00025937,0.00020361,-0.00022867,0.00048015,-0.00051004,0.00006361,-0.
 00163730,0.00425533,0.00235018,-0.00787051,-0.01750839,0.02881182,-0.0
 4114308,-0.00188240,0.00993193,0.00379405,0.00435873,-0.00623807,0.001
 35765,0.00083793,-0.00012885,-0.00219224,-0.00008267,-0.00015075,0.000
 04685,-0.00005019,-0.00016238,0.00000549,-0.00000519,0.00001797,0.0000
 0379,0.00000764,-0.00001829,0.00000213,0.00000241,-0.00000020,0.000000
 44,-0.00000136,-0.00000256,-0.00000928,0.00000353,0.00000679,0.0000154
 8,0.00000637,0.00000642,-0.00000459,0.00000510,-0.00000650,0.00000559,
 -0.00003004,-0.00002838,0.00005543,0.00007802,-0.00008809,-0.00081725,
 0.00003515,-0.00182373,0.00019585,0.00073684,-0.00066460,0.05263095,-0
 .00346639,-0.00264508,0.00110342,0.00067682,0.00304199,-0.00068293,0.0
 0074399,-0.00015490,0.00006068,0.00308735,0.00035972,0.00061036,-0.000
 98930,0.00094928,0.00012366,0.00119617,-0.00294344,0.00068073,-0.00132
 869,0.00094629,-0.00003064,-0.00021019,-0.00190978,0.00027689,0.001840
 75,0.00057803,-0.00026940,0.00007363,0.00043568,-0.00005424,0.00009930
 ,0.00006643,0.00005548,-0.00003127,0.00019690,-0.00005072,0.00149897,0
 .00018998,-0.00347384,0.00260933,0.00074761,0.00058381,-0.00299503,0.0
 0243325,0.00008436,-0.00274801,0.00000921,-0.00003688,0.00036847,-0.00
 013761,0.00008689,-0.00062591,-0.00029227,-0.00004712,0.00169895,-0.00
 244574,-0.00076992,-0.00043873,-0.00018544,-0.00044482,-0.00020593,-0.
 00017031,-0.00030375,0.00001296,0.00026657,0.00005174,0.00628725,0.002
 27743,0.00121081,-0.00264687,-0.00076351,0.00045684,0.00020994,0.00234
 336,0.00056367,0.00095508,-0.00103524,-0.00017277,0.00052920,0.0007886
 2,-0.00010097,-0.00471839,0.00316278,-0.00076008,-0.00182438,-0.088310
 61,0.09164413,-0.00203839,-0.02694019,0.02283553,-0.00126047,-0.000939
 99,-0.00107451,0.00031471,0.00086489,-0.00001712,-0.00006734,-0.000052
 34,-0.00021913,-0.00000418,0.00003502,-0.00001841,0.00001538,-0.000033
 12,-0.00002256,0.00002623,-0.00000353,0.00000092,-0.00001021,-0.000017
 53,0.00001096,0.00000709,-0.00000033,-0.00001941,-0.00001429,-0.000019
 86,0.00001664,-0.00002423,-0.00003575,0.00003307,-0.00000729,-0.000004
 58,-0.00000659,-0.00001844,0.00001280,-0.00003939,0.00003971,-0.000067
 57,0.00027565,-0.00016467,-0.00021136,0.00045894,0.00395084,0.10351283
 ,0.00019548,0.00103378,0.00003196,-0.00040831,-0.00091449,-0.00002180,
 -0.00015654,-0.00004385,0.00000675,-0.00057905,0.00055271,-0.00012002,
 0.00044127,-0.00049055,-0.00000786,0.00038335,-0.00057910,-0.00035946,
 -0.00012141,-0.00006349,-0.00008877,0.00013232,0.00005347,0.00004647,-
 0.00063960,0.00063309,-0.00001988,-0.00075133,-0.00014576,-0.00000432,
 0.00062703,0.00014721,-0.00005778,-0.00026086,-0.00076709,0.00001966,0
 .00114979,0.00058055,-0.00015107,0.00165406,0.00241211,0.00130817,-0.0
 0092857,-0.00077333,0.00004898,0.00131019,-0.00039396,0.00003344,-0.00
 039057,0.00039333,0.00007203,0.00065372,-0.00003972,0.00003309,-0.0013
 2572,0.00037628,-0.00076200,0.00175715,0.00023924,0.00025917,-0.000064
 19,-0.00005701,-0.00000999,0.00018693,0.00001598,0.00003991,-0.0012367
 4,-0.00109192,-0.00046341,0.00154633,0.00294805,0.00025224,-0.00112448
 ,-0.00257188,-0.00051212,-0.00136201,0.00182947,0.00048507,-0.00026892
 ,-0.00450654,-0.00138648,0.00851944,0.00585704,-0.00932175,0.00687194,
 0.08640247,-0.20889641,-0.00179181,0.00257891,0.00957992,-0.00155503,-
 0.00022728,-0.00072016,0.00019246,-0.00117270,0.00050599,-0.00004979,0
 .00010849,0.00028583,-0.00000418,-0.00000981,-0.00000836,-0.00001383,-
 0.00000377,0.00002687,-0.00001989,-0.00000647,0.00000822,0.00001580,0.
 00001038,0.00000754,0.00001180,0.00000088,-0.00001952,-0.00001244,0.00
 000253,-0.00000346,0.00001517,-0.00000820,0.00000979,-0.00001715,0.000
 05148,-0.00000009,-0.00002017,-0.00005430,-0.00003464,0.00015269,0.000
 03704,0.00041756,0.00068341,-0.00028385,0.00011781,-0.01175012,-0.1007
 5684,0.23210350,-0.00002099,-0.00114467,0.00061561,0.00021979,0.001145
 54,-0.00017318,0.00070390,0.00000524,0.00005254,-0.00011959,0.00050110
 ,0.00001005,-0.00023859,-0.00055487,0.00019720,0.00050856,-0.00107392,
 -0.00006882,-0.00030539,0.00030223,-0.00015528,-0.00000493,-0.00045678
 ,0.00011747,0.00029215,0.00030434,-0.00012177,-0.00008864,0.00020596,0
 .00000005,-0.00000625,0.00020311,0.00001907,0.00009550,-0.00005908,-0.
 00003545,0.00108700,0.00291512,0.00089185,-0.00028828,-0.00054834,0.00
 177213,-0.00148685,0.00094171,0.00054415,-0.00052056,0.00022408,-0.000
 04780,0.00011499,-0.00031123,0.00007424,-0.00015135,-0.00016453,-0.000
 00834,0.00065519,-0.00009207,-0.00059095,-0.00077762,-0.00026323,-0.00
 020656,-0.00003513,0.00019023,0.00004269,0.00002390,0.00000550,-0.0000
 1032,0.00079185,0.00202420,-0.00039174,-0.00109937,-0.00004138,-0.0005
 5416,0.00034539,0.00086812,0.00002662,0.00075318,-0.00061138,-0.000077
 38,-0.00391334,0.00400289,0.00187093,-0.02285881,-0.01603881,-0.015877
 81,-0.14856296,-0.07152037,-0.09515000,0.00615393,0.00085432,0.0067269
 4,-0.00056560,-0.00063499,-0.00196441,-0.00086576,0.00043440,0.0011690
 3,0.00003696,0.00003023,0.00003157,0.00000360,0.00000610,-0.00000635,0
 .00000176,0.00000080,0.00000838,0.00000588,0.00000488,0.00000636,0.000
 00744,-0.00000835,-0.00000510,-0.00000271,0.00001596,-0.00001249,0.000
 01124,0.00000366,-0.00000212,-0.00001518,0.00000288,0.00000693,0.00000
 091,-0.00004331,0.00000065,0.00007061,0.00002159,0.00004104,-0.0002486
 1,-0.00114795,0.00149886,0.00093606,0.00029108,0.00070281,-0.00110802,
 -0.00040352,-0.00164763,0.17046476,-0.00142938,-0.00153359,0.00107178,
 0.00040351,0.00170247,0.00007519,0.00040483,-0.00010499,-0.00001256,0.
 00131755,-0.00007755,-0.00014120,-0.00039334,0.00041540,-0.00001870,0.
 00044811,-0.00112889,0.00017823,-0.00045601,0.00033452,-0.00001163,-0.
 00006925,-0.00069872,0.00010479,0.00076135,0.00007649,-0.00007136,0.00
 023944,0.00031827,-0.00002882,-0.00010330,-0.00002096,0.00003188,0.000
 07075,0.00023278,0.00000989,-0.00069774,-0.00063784,-0.00035174,0.0008
 3184,0.00117655,0.00053549,-0.00078325,0.00111801,0.00038590,-0.001724
 89,-0.00012939,-0.00025492,0.00034902,-0.00008786,-0.00018152,-0.00052
 480,-0.00017710,-0.00004801,0.00085958,-0.00148603,0.00094602,-0.00033
 391,-0.00023780,0.00010596,-0.00010894,-0.00021931,0.00006655,-0.00006
 854,0.00009129,0.00000759,0.00436558,-0.00157752,-0.00222484,-0.000878
 72,-0.00084049,-0.00090591,0.00026409,0.00172416,0.00034737,0.00061606
 ,-0.00082777,-0.00034499,0.00062368,0.00189673,-0.00052527,-0.00116248
 ,0.00171158,0.00432167,-0.07125217,-0.09687239,-0.07015424,-0.01869342
 ,-0.02160848,-0.01651839,-0.00081042,-0.00009301,-0.00019147,0.0000492
 0,0.00024979,-0.00015047,-0.00005611,-0.00004078,-0.00011173,-0.000004
 28,0.00000917,-0.00002189,0.00000616,-0.00001124,-0.00000923,0.0000098
 5,-0.00000063,-0.00000525,-0.00000622,-0.00000534,-0.00000922,-0.00000
 072,-0.00001152,0.00004503,-0.00000537,-0.00000782,-0.00001390,0.00000
 082,-0.00002182,-0.00003089,-0.00000035,-0.00001776,0.00003595,-0.0000
 3377,-0.00004772,0.00010262,-0.00011703,0.00007257,-0.00020224,-0.0000
 4380,0.00040588,0.00048944,0.00852320,0.00610138,0.00869740,0.07961354
 ,0.11088726,-0.00120992,-0.00046008,0.00051468,0.00001409,0.00096957,-
 0.00010841,0.00028860,-0.00007661,-0.00001380,0.00133939,0.00017089,-0
 .00012911,-0.00024013,0.00032437,0.00001378,0.00048623,-0.00155607,0.0
 0022860,-0.00060109,0.00046967,-0.00007021,-0.00009433,-0.00083237,0.0
 0014156,0.00062199,0.00046865,-0.00008190,-0.00030049,0.00015654,-0.00
 004700,0.00032971,0.00009192,0.00001040,-0.00012717,-0.00019850,-0.000
 00261,0.00026392,-0.00096317,-0.00015417,0.00113584,-0.00044644,0.0007
 0128,-0.00129392,0.00154680,0.00041358,-0.00050381,-0.00025974,-0.0001
 2424,-0.00008184,0.00010484,-0.00005592,0.00003826,-0.00010462,0.00001
 667,0.00045101,-0.00030447,0.00010857,0.00033645,-0.00007070,0.0000305
 9,-0.00007407,0.00000458,-0.00001627,0.00009184,0.00006160,0.00002538,
 0.00060772,0.00037470,-0.00028335,0.00040677,0.00083008,0.00008494,-0.
 00038818,-0.00018119,-0.00008681,0.00001039,0.00040396,0.00016634,0.00
 157941,-0.00085879,-0.00069692,0.01113528,0.00837509,0.00966712,-0.093
 98017,-0.07110111,-0.12684669,-0.00051401,-0.00083730,0.00047633,-0.00
 088669,-0.00005202,-0.00067051,0.00065118,0.00042096,-0.00135983,-0.00
 001812,-0.00002667,-0.00006284,-0.00000421,0.00000496,-0.00001184,-0.0
 0000446,-0.00000713,-0.00000554,0.00000023,-0.00000306,-0.00000003,-0.
 00000172,0.00000277,0.00000486,0.00000518,0.00000580,0.00000785,-0.000
 00597,0.00000143,0.00000079,-0.00000047,-0.00000172,0.00000145,-0.0000
 0761,0.00000627,-0.00000359,0.00000183,0.00000493,-0.00005070,0.000255
 77,0.00045544,-0.00070247,-0.00084100,-0.00004258,0.00046339,-0.019552
 20,-0.01185316,-0.02273061,0.10068050,0.07498167,0.14123722\\0.0000013
 8,-0.00000724,0.00000986,0.00000117,0.00000508,0.00000290,0.00000039,-
 0.00000015,-0.00000242,0.00000171,0.00000585,-0.00000508,-0.00000055,-
 0.00000194,-0.00000327,0.00000116,-0.00000234,0.00000370,-0.00000171,0
 .00000031,0.00000063,-0.00000117,-0.00000022,-0.00000064,0.00000368,0.
 00000123,-0.00000046,0.00000141,0.00000085,-0.00000003,0.00000065,0.00
 000110,-0.00000143,0.00000001,0.00000004,-0.00000081,0.00000041,-0.000
 00046,-0.00000968,-0.00005756,-0.00000042,-0.00000331,0.00006057,0.000
 00305,0.00000168,-0.00000281,0.00000001,-0.00000228,0.00000113,-0.0000
 0006,-0.00000047,-0.00000018,-0.00000047,-0.00000298,0.00000140,-0.000
 00158,0.00000116,0.00000016,-0.00000074,0.00000196,-0.00000031,-0.0000
 0038,-0.00000033,0.00000107,-0.00000034,-0.00000102,0.00000581,-0.0000
 0206,-0.00000229,-0.00000189,-0.00000007,-0.00000091,-0.00000011,0.000
 00003,0.00000145,0.00000066,-0.00000126,-0.00000114,-0.00000226,-0.000
 00056,-0.00000037,0.00000170,-0.00000116,0.00000346,0.00000138,-0.0000
 0207,0.00000078,-0.00001192,0.00000728,0.00000383,-0.00000420,0.000000
 55,0.00000558,-0.00000156,0.00000067,0.00000367,-0.00000017,0.00000008
 ,-0.00000159,-0.00000034,0.00000080,-0.00000023,-0.00000007,0.00000105
 ,-0.00000077,0.00000031,0.00000059,-0.00000120,0.00000068,0.00000055,-
 0.00000165,0.00000049,0.00000009,-0.00000088,0.00000057,-0.00000020,-0
 .00000031,0.00000029,-0.00000055,0.00000083,0.00000023,-0.00000085,0.0
 0000106,0.00000001,-0.00000078,0.00000034,-0.00000017,-0.00000110,0.00
 000120,0.00000025,-0.00000132,0.00000291,-0.00000139,-0.00000193,-0.00
 000066,-0.00000034,0.00000104,-0.00000080\\\@


 EVERYTHING'S GOT A MORAL, IF ONLY YOU CAN FIND IT.

                                    -- LEWIS CARROL, ALICE IN WONDERLAND
 Job cpu time:       1 days  0 hours  6 minutes 33.8 seconds.
 Elapsed time:       0 days  1 hours 12 minutes 31.7 seconds.
 File lengths (MBytes):  RWF=   2277 Int=      0 D2E=      0 Chk=     62 Scr=      1
 Normal termination of Gaussian 16 at Wed Aug 14 02:12:30 2019.
