 Entering Gaussian System, Link 0=/share/apps/gaussian16/g16/g16
 Initial command:
 /share/apps/gaussian16/g16/l1.exe "/home/amen01//scratch/740/Gau-36278.inp" -scrdir="/home/amen01//scratch/740/"
 Entering Link 1 = /share/apps/gaussian16/g16/l1.exe PID=     36279.
  
 Copyright (c) 1988-2017, Gaussian, Inc.  All Rights Reserved.
  
 This is part of the Gaussian(R) 16 program.  It is based on
 the Gaussian(R) 09 system (copyright 2009, Gaussian, Inc.),
 the Gaussian(R) 03 system (copyright 2003, Gaussian, Inc.),
 the Gaussian(R) 98 system (copyright 1998, Gaussian, Inc.),
 the Gaussian(R) 94 system (copyright 1995, Gaussian, Inc.),
 the Gaussian 92(TM) system (copyright 1992, Gaussian, Inc.),
 the Gaussian 90(TM) system (copyright 1990, Gaussian, Inc.),
 the Gaussian 88(TM) system (copyright 1988, Gaussian, Inc.),
 the Gaussian 86(TM) system (copyright 1986, Carnegie Mellon
 University), and the Gaussian 82(TM) system (copyright 1983,
 Carnegie Mellon University). Gaussian is a federally registered
 trademark of Gaussian, Inc.
  
 This software contains proprietary and confidential information,
 including trade secrets, belonging to Gaussian, Inc.
  
 This software is provided under written license and may be
 used, copied, transmitted, or stored only in accord with that
 written license.
  
 The following legend is applicable only to US Government
 contracts under FAR:
  
                    RESTRICTED RIGHTS LEGEND
  
 Use, reproduction and disclosure by the US Government is
 subject to restrictions as set forth in subparagraphs (a)
 and (c) of the Commercial Computer Software - Restricted
 Rights clause in FAR 52.227-19.
  
 Gaussian, Inc.
 340 Quinnipiac St., Bldg. 40, Wallingford CT 06492
  
  
 ---------------------------------------------------------------
 Warning -- This program may not be used in any manner that
 competes with the business of Gaussian, Inc. or will provide
 assistance to any competitor of Gaussian, Inc.  The licensee
 of this program is prohibited from giving any competitor of
 Gaussian, Inc. access to this program.  By using this program,
 the user acknowledges that Gaussian, Inc. is engaged in the
 business of creating and licensing software in the field of
 computational chemistry and represents and warrants to the
 licensee that it is not a competitor of Gaussian, Inc. and that
 it will not use this program in any manner prohibited above.
 ---------------------------------------------------------------
  

 Cite this work as:
 Gaussian 16, Revision B.01,
 M. J. Frisch, G. W. Trucks, H. B. Schlegel, G. E. Scuseria, 
 M. A. Robb, J. R. Cheeseman, G. Scalmani, V. Barone, 
 G. A. Petersson, H. Nakatsuji, X. Li, M. Caricato, A. V. Marenich, 
 J. Bloino, B. G. Janesko, R. Gomperts, B. Mennucci, H. P. Hratchian, 
 J. V. Ortiz, A. F. Izmaylov, J. L. Sonnenberg, D. Williams-Young, 
 F. Ding, F. Lipparini, F. Egidi, J. Goings, B. Peng, A. Petrone, 
 T. Henderson, D. Ranasinghe, V. G. Zakrzewski, J. Gao, N. Rega, 
 G. Zheng, W. Liang, M. Hada, M. Ehara, K. Toyota, R. Fukuda, 
 J. Hasegawa, M. Ishida, T. Nakajima, Y. Honda, O. Kitao, H. Nakai, 
 T. Vreven, K. Throssell, J. A. Montgomery, Jr., J. E. Peralta, 
 F. Ogliaro, M. J. Bearpark, J. J. Heyd, E. N. Brothers, K. N. Kudin, 
 V. N. Staroverov, T. A. Keith, R. Kobayashi, J. Normand, 
 K. Raghavachari, A. P. Rendell, J. C. Burant, S. S. Iyengar, 
 J. Tomasi, M. Cossi, J. M. Millam, M. Klene, C. Adamo, R. Cammi, 
 J. W. Ochterski, R. L. Martin, K. Morokuma, O. Farkas, 
 J. B. Foresman, and D. J. Fox, Gaussian, Inc., Wallingford CT, 2016.
 
 ******************************************
 Gaussian 16:  ES64L-G16RevB.01 20-Dec-2017
                31-Jul-2019 
 ******************************************
 %nprocshared=20
 Will use up to   20 processors via shared memory.
 %mem=160GB
 %chk=7-memb2-haddTSguess-3b.chk
 ---------------------------------------------------------------
 # opt=(ts,calcfc,noeigen) freq b3lyp/6-311+g(d,p) int=grid=fine
 ---------------------------------------------------------------
 1/5=1,10=4,11=1,18=20,26=3,38=1/1,3;
 2/9=110,12=2,17=6,18=5,40=1/2;
 3/5=4,6=6,7=111,11=2,25=1,30=1,71=2,74=-5,75=-4,140=1/1,2,3;
 4//1;
 5/5=2,38=5/2;
 8/6=4,10=90,11=11/1;
 11/6=1,8=1,9=11,15=111,16=1/1,2,10;
 10/6=1,13=1/2;
 6/7=2,8=2,9=2,10=2,28=1/1;
 7/10=1,18=20,25=1/1,2,3,16;
 1/5=1,10=4,11=1,18=20,26=3/3(2);
 2/9=110/2;
 99//99;
 2/9=110/2;
 3/5=4,6=6,7=111,11=2,25=1,30=1,71=1,74=-5,75=-4/1,2,3;
 4/5=5,16=3,69=1/1;
 5/5=2,38=5/2;
 7//1,2,3,16;
 1/5=1,11=1,18=20,26=3/3(-5);
 2/9=110/2;
 6/7=2,8=2,9=2,10=2,19=2,28=1/1;
 99/9=1/99;
 ----------------------
 7-memb2-haddTSguess-3b
 ----------------------
 Symbolic Z-matrix:
 Charge =  0 Multiplicity = 2
 C                     0.63863  -0.88233  -0.09557 
 C                     0.52048   0.56439   0.0884 
 C                     1.82842   1.07407   0.0235 
 C                     2.00644  -1.16188  -0.29183 
 C                     2.73075   0.02886  -0.2052 
 C                     2.6152   -2.40385  -0.3051 
 C                     4.06114  -2.34502  -0.34117 
 C                     4.76736  -1.14658  -0.29225 
 C                     4.09992   0.13306  -0.18714 
 C                     2.23731   2.3913    0.18246 
 C                     3.68189   2.55981   0.15195 
 C                     4.5608    1.49961  -0.00954 
 C                    -0.24869  -1.91899   0.10703 
 C                     0.33239  -3.24176   0.04082 
 C                     1.68589  -3.4864   -0.16964 
 C                    -0.54218   1.44591   0.2259 
 C                    -0.17997   2.85475   0.29484 
 C                     1.16304   3.30026   0.3245 
 C                    -1.9276    1.0091    0.09987 
 C                    -2.88453   2.02498  -0.18742 
 C                    -2.52103   3.41249  -0.05175 
 C                    -1.25327   3.80957   0.2232 
 C                    -2.3499   -0.36013   0.13687 
 C                    -3.61807  -0.6814   -0.37373 
 C                    -4.50801   0.33871  -0.77137 
 C                    -4.17588   1.66417  -0.61585 
 C                    -4.04297  -2.08084  -0.48946 
 C                    -3.48397  -3.04042   0.25241 
 C                    -2.45695  -2.65169   1.27609 
 C                    -1.54439  -1.49586   0.82021 
 H                    -1.06473  -2.10711  -1.76705 
 H                     2.0298   -4.51564  -0.18459 
 H                     4.62744  -3.26989  -0.38584 
 H                     5.85169  -1.18971  -0.30639 
 H                     5.62556   1.70963   0.00243 
 H                     4.09731   3.55509   0.27354 
 H                     1.34189   4.36811   0.4052 
 H                    -1.01885   4.86445   0.31891 
 H                    -3.30423   4.15131  -0.18655 
 H                    -4.89304   2.44368  -0.84992 
 H                    -5.48454   0.06112  -1.15407 
 H                    -4.84128  -2.30375  -1.19042 
 H                    -3.80495  -4.07354   0.17404 
 H                    -2.98674  -2.32661   2.18213 
 H                    -1.16478  -1.04629   1.74637 
 H                    -0.31581  -4.09996   0.17262 
 H                    -1.84816  -3.50415   1.5835 
 
 Add virtual bond connecting atoms H31        and C13        Dist= 3.88D+00.

 GradGradGradGradGradGradGradGradGradGradGradGradGradGradGradGradGradGrad
 Berny optimization.
 Initialization pass.
                           ----------------------------
                           !    Initial Parameters    !
                           ! (Angstroms and Degrees)  !
 --------------------------                            --------------------------
 ! Name  Definition              Value          Derivative Info.                !
 --------------------------------------------------------------------------------
 ! R1    R(1,2)                  1.4631         calculate D2E/DX2 analytically  !
 ! R2    R(1,4)                  1.4098         calculate D2E/DX2 analytically  !
 ! R3    R(1,13)                 1.3795         calculate D2E/DX2 analytically  !
 ! R4    R(2,3)                  1.4052         calculate D2E/DX2 analytically  !
 ! R5    R(2,16)                 1.3875         calculate D2E/DX2 analytically  !
 ! R6    R(3,5)                  1.3996         calculate D2E/DX2 analytically  !
 ! R7    R(3,10)                 1.3884         calculate D2E/DX2 analytically  !
 ! R8    R(4,5)                  1.3964         calculate D2E/DX2 analytically  !
 ! R9    R(4,6)                  1.3832         calculate D2E/DX2 analytically  !
 ! R10   R(5,9)                  1.3732         calculate D2E/DX2 analytically  !
 ! R11   R(6,7)                  1.4476         calculate D2E/DX2 analytically  !
 ! R12   R(6,15)                 1.4331         calculate D2E/DX2 analytically  !
 ! R13   R(7,8)                  1.3919         calculate D2E/DX2 analytically  !
 ! R14   R(7,33)                 1.0854         calculate D2E/DX2 analytically  !
 ! R15   R(8,9)                  1.4471         calculate D2E/DX2 analytically  !
 ! R16   R(8,34)                 1.0853         calculate D2E/DX2 analytically  !
 ! R17   R(9,12)                 1.4531         calculate D2E/DX2 analytically  !
 ! R18   R(10,11)                1.4547         calculate D2E/DX2 analytically  !
 ! R19   R(10,18)                1.4144         calculate D2E/DX2 analytically  !
 ! R20   R(11,12)                1.3866         calculate D2E/DX2 analytically  !
 ! R21   R(11,36)                1.0853         calculate D2E/DX2 analytically  !
 ! R22   R(12,35)                1.0853         calculate D2E/DX2 analytically  !
 ! R23   R(13,14)                1.4463         calculate D2E/DX2 analytically  !
 ! R24   R(13,30)                1.5383         calculate D2E/DX2 analytically  !
 ! R25   R(13,31)                2.0527         calculate D2E/DX2 analytically  !
 ! R26   R(14,15)                1.3914         calculate D2E/DX2 analytically  !
 ! R27   R(14,46)                1.0835         calculate D2E/DX2 analytically  !
 ! R28   R(15,32)                1.0853         calculate D2E/DX2 analytically  !
 ! R29   R(16,17)                1.4563         calculate D2E/DX2 analytically  !
 ! R30   R(16,19)                1.4581         calculate D2E/DX2 analytically  !
 ! R31   R(17,18)                1.4153         calculate D2E/DX2 analytically  !
 ! R32   R(17,22)                1.4383         calculate D2E/DX2 analytically  !
 ! R33   R(18,37)                1.0857         calculate D2E/DX2 analytically  !
 ! R34   R(19,20)                1.4249         calculate D2E/DX2 analytically  !
 ! R35   R(19,23)                1.4334         calculate D2E/DX2 analytically  !
 ! R36   R(20,21)                1.4407         calculate D2E/DX2 analytically  !
 ! R37   R(20,26)                1.4076         calculate D2E/DX2 analytically  !
 ! R38   R(21,22)                1.3566         calculate D2E/DX2 analytically  !
 ! R39   R(21,39)                1.0851         calculate D2E/DX2 analytically  !
 ! R40   R(22,38)                1.0848         calculate D2E/DX2 analytically  !
 ! R41   R(23,24)                1.4043         calculate D2E/DX2 analytically  !
 ! R42   R(23,30)                1.551          calculate D2E/DX2 analytically  !
 ! R43   R(24,25)                1.4109         calculate D2E/DX2 analytically  !
 ! R44   R(24,27)                1.4671         calculate D2E/DX2 analytically  !
 ! R45   R(25,26)                1.3753         calculate D2E/DX2 analytically  !
 ! R46   R(25,41)                1.085          calculate D2E/DX2 analytically  !
 ! R47   R(26,40)                1.0848         calculate D2E/DX2 analytically  !
 ! R48   R(27,28)                1.3355         calculate D2E/DX2 analytically  !
 ! R49   R(27,42)                1.0855         calculate D2E/DX2 analytically  !
 ! R50   R(28,29)                1.5013         calculate D2E/DX2 analytically  !
 ! R51   R(28,43)                1.0847         calculate D2E/DX2 analytically  !
 ! R52   R(29,30)                1.5416         calculate D2E/DX2 analytically  !
 ! R53   R(29,44)                1.0988         calculate D2E/DX2 analytically  !
 ! R54   R(29,47)                1.0917         calculate D2E/DX2 analytically  !
 ! R55   R(30,45)                1.0973         calculate D2E/DX2 analytically  !
 ! A1    A(2,1,4)              106.9727         calculate D2E/DX2 analytically  !
 ! A2    A(2,1,13)             132.2701         calculate D2E/DX2 analytically  !
 ! A3    A(4,1,13)             119.7015         calculate D2E/DX2 analytically  !
 ! A4    A(1,2,3)              106.1205         calculate D2E/DX2 analytically  !
 ! A5    A(1,2,16)             134.6271         calculate D2E/DX2 analytically  !
 ! A6    A(3,2,16)             119.1427         calculate D2E/DX2 analytically  !
 ! A7    A(2,3,5)              109.6787         calculate D2E/DX2 analytically  !
 ! A8    A(2,3,10)             127.8027         calculate D2E/DX2 analytically  !
 ! A9    A(5,3,10)             122.504          calculate D2E/DX2 analytically  !
 ! A10   A(1,4,5)              108.9963         calculate D2E/DX2 analytically  !
 ! A11   A(1,4,6)              127.3278         calculate D2E/DX2 analytically  !
 ! A12   A(5,4,6)              122.5453         calculate D2E/DX2 analytically  !
 ! A13   A(3,5,4)              108.2119         calculate D2E/DX2 analytically  !
 ! A14   A(3,5,9)              125.7299         calculate D2E/DX2 analytically  !
 ! A15   A(4,5,9)              125.6378         calculate D2E/DX2 analytically  !
 ! A16   A(4,6,7)              113.7881         calculate D2E/DX2 analytically  !
 ! A17   A(4,6,15)             113.0764         calculate D2E/DX2 analytically  !
 ! A18   A(7,6,15)             132.9026         calculate D2E/DX2 analytically  !
 ! A19   A(6,7,8)              122.7458         calculate D2E/DX2 analytically  !
 ! A20   A(6,7,33)             119.1798         calculate D2E/DX2 analytically  !
 ! A21   A(8,7,33)             118.06           calculate D2E/DX2 analytically  !
 ! A22   A(7,8,9)              122.0            calculate D2E/DX2 analytically  !
 ! A23   A(7,8,34)             118.1806         calculate D2E/DX2 analytically  !
 ! A24   A(9,8,34)             119.797          calculate D2E/DX2 analytically  !
 ! A25   A(5,9,8)              113.0677         calculate D2E/DX2 analytically  !
 ! A26   A(5,9,12)             112.9046         calculate D2E/DX2 analytically  !
 ! A27   A(8,9,12)             133.9658         calculate D2E/DX2 analytically  !
 ! A28   A(3,10,11)            113.5757         calculate D2E/DX2 analytically  !
 ! A29   A(3,10,18)            113.4248         calculate D2E/DX2 analytically  !
 ! A30   A(11,10,18)           132.9939         calculate D2E/DX2 analytically  !
 ! A31   A(10,11,12)           122.9111         calculate D2E/DX2 analytically  !
 ! A32   A(10,11,36)           118.9449         calculate D2E/DX2 analytically  !
 ! A33   A(12,11,36)           118.1389         calculate D2E/DX2 analytically  !
 ! A34   A(9,12,11)            122.1595         calculate D2E/DX2 analytically  !
 ! A35   A(9,12,35)            119.6359         calculate D2E/DX2 analytically  !
 ! A36   A(11,12,35)           118.2042         calculate D2E/DX2 analytically  !
 ! A37   A(1,13,14)            114.9701         calculate D2E/DX2 analytically  !
 ! A38   A(1,13,30)            113.7753         calculate D2E/DX2 analytically  !
 ! A39   A(1,13,31)            100.9812         calculate D2E/DX2 analytically  !
 ! A40   A(14,13,30)           127.6754         calculate D2E/DX2 analytically  !
 ! A41   A(14,13,31)            91.9543         calculate D2E/DX2 analytically  !
 ! A42   A(30,13,31)            96.5248         calculate D2E/DX2 analytically  !
 ! A43   A(13,14,15)           123.9551         calculate D2E/DX2 analytically  !
 ! A44   A(13,14,46)           118.5858         calculate D2E/DX2 analytically  !
 ! A45   A(15,14,46)           117.4557         calculate D2E/DX2 analytically  !
 ! A46   A(6,15,14)            120.8137         calculate D2E/DX2 analytically  !
 ! A47   A(6,15,32)            120.6362         calculate D2E/DX2 analytically  !
 ! A48   A(14,15,32)           118.4941         calculate D2E/DX2 analytically  !
 ! A49   A(2,16,17)            115.3927         calculate D2E/DX2 analytically  !
 ! A50   A(2,16,19)            121.9244         calculate D2E/DX2 analytically  !
 ! A51   A(17,16,19)           122.0207         calculate D2E/DX2 analytically  !
 ! A52   A(16,17,18)           122.7887         calculate D2E/DX2 analytically  !
 ! A53   A(16,17,22)           117.0168         calculate D2E/DX2 analytically  !
 ! A54   A(18,17,22)           120.012          calculate D2E/DX2 analytically  !
 ! A55   A(10,18,17)           121.0873         calculate D2E/DX2 analytically  !
 ! A56   A(10,18,37)           120.9594         calculate D2E/DX2 analytically  !
 ! A57   A(17,18,37)           117.8705         calculate D2E/DX2 analytically  !
 ! A58   A(16,19,20)           116.2288         calculate D2E/DX2 analytically  !
 ! A59   A(16,19,23)           124.3241         calculate D2E/DX2 analytically  !
 ! A60   A(20,19,23)           119.236          calculate D2E/DX2 analytically  !
 ! A61   A(19,20,21)           119.8805         calculate D2E/DX2 analytically  !
 ! A62   A(19,20,26)           119.6526         calculate D2E/DX2 analytically  !
 ! A63   A(21,20,26)           120.4635         calculate D2E/DX2 analytically  !
 ! A64   A(20,21,22)           122.4619         calculate D2E/DX2 analytically  !
 ! A65   A(20,21,39)           117.5112         calculate D2E/DX2 analytically  !
 ! A66   A(22,21,39)           120.0249         calculate D2E/DX2 analytically  !
 ! A67   A(17,22,21)           120.8716         calculate D2E/DX2 analytically  !
 ! A68   A(17,22,38)           118.6762         calculate D2E/DX2 analytically  !
 ! A69   A(21,22,38)           120.2931         calculate D2E/DX2 analytically  !
 ! A70   A(19,23,24)           118.3725         calculate D2E/DX2 analytically  !
 ! A71   A(19,23,30)           123.9074         calculate D2E/DX2 analytically  !
 ! A72   A(24,23,30)           117.4938         calculate D2E/DX2 analytically  !
 ! A73   A(23,24,25)           120.4413         calculate D2E/DX2 analytically  !
 ! A74   A(23,24,27)           120.5597         calculate D2E/DX2 analytically  !
 ! A75   A(25,24,27)           118.9963         calculate D2E/DX2 analytically  !
 ! A76   A(24,25,26)           120.8384         calculate D2E/DX2 analytically  !
 ! A77   A(24,25,41)           118.825          calculate D2E/DX2 analytically  !
 ! A78   A(26,25,41)           120.2554         calculate D2E/DX2 analytically  !
 ! A79   A(20,26,25)           120.2007         calculate D2E/DX2 analytically  !
 ! A80   A(20,26,40)           119.2091         calculate D2E/DX2 analytically  !
 ! A81   A(25,26,40)           120.5639         calculate D2E/DX2 analytically  !
 ! A82   A(24,27,28)           121.3542         calculate D2E/DX2 analytically  !
 ! A83   A(24,27,42)           117.3748         calculate D2E/DX2 analytically  !
 ! A84   A(28,27,42)           121.2636         calculate D2E/DX2 analytically  !
 ! A85   A(27,28,29)           118.6243         calculate D2E/DX2 analytically  !
 ! A86   A(27,28,43)           121.3561         calculate D2E/DX2 analytically  !
 ! A87   A(29,28,43)           119.8903         calculate D2E/DX2 analytically  !
 ! A88   A(28,29,30)           113.4191         calculate D2E/DX2 analytically  !
 ! A89   A(28,29,44)           108.0014         calculate D2E/DX2 analytically  !
 ! A90   A(28,29,47)           111.7966         calculate D2E/DX2 analytically  !
 ! A91   A(30,29,44)           107.9051         calculate D2E/DX2 analytically  !
 ! A92   A(30,29,47)           109.792          calculate D2E/DX2 analytically  !
 ! A93   A(44,29,47)           105.5288         calculate D2E/DX2 analytically  !
 ! A94   A(13,30,23)           115.7584         calculate D2E/DX2 analytically  !
 ! A95   A(13,30,29)           115.4332         calculate D2E/DX2 analytically  !
 ! A96   A(13,30,45)           102.2755         calculate D2E/DX2 analytically  !
 ! A97   A(23,30,29)           111.8309         calculate D2E/DX2 analytically  !
 ! A98   A(23,30,45)           104.5677         calculate D2E/DX2 analytically  !
 ! A99   A(29,30,45)           105.2115         calculate D2E/DX2 analytically  !
 ! D1    D(4,1,2,3)             -1.3205         calculate D2E/DX2 analytically  !
 ! D2    D(4,1,2,16)           174.6721         calculate D2E/DX2 analytically  !
 ! D3    D(13,1,2,3)           166.5041         calculate D2E/DX2 analytically  !
 ! D4    D(13,1,2,16)          -17.5033         calculate D2E/DX2 analytically  !
 ! D5    D(2,1,4,5)              1.4283         calculate D2E/DX2 analytically  !
 ! D6    D(2,1,4,6)            169.3926         calculate D2E/DX2 analytically  !
 ! D7    D(13,1,4,5)          -168.221          calculate D2E/DX2 analytically  !
 ! D8    D(13,1,4,6)            -0.2568         calculate D2E/DX2 analytically  !
 ! D9    D(2,1,13,14)         -169.0403         calculate D2E/DX2 analytically  !
 ! D10   D(2,1,13,30)           -8.6714         calculate D2E/DX2 analytically  !
 ! D11   D(2,1,13,31)           93.5664         calculate D2E/DX2 analytically  !
 ! D12   D(4,1,13,14)           -2.4686         calculate D2E/DX2 analytically  !
 ! D13   D(4,1,13,30)          157.9003         calculate D2E/DX2 analytically  !
 ! D14   D(4,1,13,31)          -99.8619         calculate D2E/DX2 analytically  !
 ! D15   D(1,2,3,5)              0.7421         calculate D2E/DX2 analytically  !
 ! D16   D(1,2,3,10)          -177.8784         calculate D2E/DX2 analytically  !
 ! D17   D(16,2,3,5)          -175.9934         calculate D2E/DX2 analytically  !
 ! D18   D(16,2,3,10)            5.3861         calculate D2E/DX2 analytically  !
 ! D19   D(1,2,16,17)         -175.7632         calculate D2E/DX2 analytically  !
 ! D20   D(1,2,16,19)           -4.9166         calculate D2E/DX2 analytically  !
 ! D21   D(3,2,16,17)           -0.1718         calculate D2E/DX2 analytically  !
 ! D22   D(3,2,16,19)          170.6749         calculate D2E/DX2 analytically  !
 ! D23   D(2,3,5,4)              0.1252         calculate D2E/DX2 analytically  !
 ! D24   D(2,3,5,9)           -172.7537         calculate D2E/DX2 analytically  !
 ! D25   D(10,3,5,4)           178.8328         calculate D2E/DX2 analytically  !
 ! D26   D(10,3,5,9)             5.9539         calculate D2E/DX2 analytically  !
 ! D27   D(2,3,10,11)          175.68           calculate D2E/DX2 analytically  !
 ! D28   D(2,3,10,18)           -5.0715         calculate D2E/DX2 analytically  !
 ! D29   D(5,3,10,11)           -2.7798         calculate D2E/DX2 analytically  !
 ! D30   D(5,3,10,18)          176.4686         calculate D2E/DX2 analytically  !
 ! D31   D(1,4,5,3)             -0.9871         calculate D2E/DX2 analytically  !
 ! D32   D(1,4,5,9)            171.9            calculate D2E/DX2 analytically  !
 ! D33   D(6,4,5,3)           -169.643          calculate D2E/DX2 analytically  !
 ! D34   D(6,4,5,9)              3.2441         calculate D2E/DX2 analytically  !
 ! D35   D(1,4,6,7)           -171.6602         calculate D2E/DX2 analytically  !
 ! D36   D(1,4,6,15)             3.5247         calculate D2E/DX2 analytically  !
 ! D37   D(5,4,6,7)             -5.1867         calculate D2E/DX2 analytically  !
 ! D38   D(5,4,6,15)           169.9983         calculate D2E/DX2 analytically  !
 ! D39   D(3,5,9,8)            172.6829         calculate D2E/DX2 analytically  !
 ! D40   D(3,5,9,12)            -4.8633         calculate D2E/DX2 analytically  !
 ! D41   D(4,5,9,8)              1.014          calculate D2E/DX2 analytically  !
 ! D42   D(4,5,9,12)          -176.5321         calculate D2E/DX2 analytically  !
 ! D43   D(4,6,7,8)              3.3432         calculate D2E/DX2 analytically  !
 ! D44   D(4,6,7,33)          -178.0664         calculate D2E/DX2 analytically  !
 ! D45   D(15,6,7,8)          -170.6053         calculate D2E/DX2 analytically  !
 ! D46   D(15,6,7,33)            7.9851         calculate D2E/DX2 analytically  !
 ! D47   D(4,6,15,14)           -3.9889         calculate D2E/DX2 analytically  !
 ! D48   D(4,6,15,32)          178.7724         calculate D2E/DX2 analytically  !
 ! D49   D(7,6,15,14)          169.9922         calculate D2E/DX2 analytically  !
 ! D50   D(7,6,15,32)           -7.2465         calculate D2E/DX2 analytically  !
 ! D51   D(6,7,8,9)              0.6589         calculate D2E/DX2 analytically  !
 ! D52   D(6,7,8,34)           178.932          calculate D2E/DX2 analytically  !
 ! D53   D(33,7,8,9)          -177.9465         calculate D2E/DX2 analytically  !
 ! D54   D(33,7,8,34)            0.3266         calculate D2E/DX2 analytically  !
 ! D55   D(7,8,9,5)             -2.8261         calculate D2E/DX2 analytically  !
 ! D56   D(7,8,9,12)           174.0329         calculate D2E/DX2 analytically  !
 ! D57   D(34,8,9,5)           178.928          calculate D2E/DX2 analytically  !
 ! D58   D(34,8,9,12)           -4.213          calculate D2E/DX2 analytically  !
 ! D59   D(5,9,12,11)            1.3505         calculate D2E/DX2 analytically  !
 ! D60   D(5,9,12,35)         -178.8743         calculate D2E/DX2 analytically  !
 ! D61   D(8,9,12,11)         -175.5123         calculate D2E/DX2 analytically  !
 ! D62   D(8,9,12,35)            4.263          calculate D2E/DX2 analytically  !
 ! D63   D(3,10,11,12)          -0.5149         calculate D2E/DX2 analytically  !
 ! D64   D(3,10,11,36)        -179.6785         calculate D2E/DX2 analytically  !
 ! D65   D(18,10,11,12)       -179.5721         calculate D2E/DX2 analytically  !
 ! D66   D(18,10,11,36)          1.2643         calculate D2E/DX2 analytically  !
 ! D67   D(3,10,18,17)          -0.2169         calculate D2E/DX2 analytically  !
 ! D68   D(3,10,18,37)        -176.8374         calculate D2E/DX2 analytically  !
 ! D69   D(11,10,18,17)        178.8414         calculate D2E/DX2 analytically  !
 ! D70   D(11,10,18,37)          2.2209         calculate D2E/DX2 analytically  !
 ! D71   D(10,11,12,9)           1.1993         calculate D2E/DX2 analytically  !
 ! D72   D(10,11,12,35)       -178.579          calculate D2E/DX2 analytically  !
 ! D73   D(36,11,12,9)        -179.6308         calculate D2E/DX2 analytically  !
 ! D74   D(36,11,12,35)          0.5909         calculate D2E/DX2 analytically  !
 ! D75   D(1,13,14,15)           1.8509         calculate D2E/DX2 analytically  !
 ! D76   D(1,13,14,46)        -178.8436         calculate D2E/DX2 analytically  !
 ! D77   D(30,13,14,15)       -155.2912         calculate D2E/DX2 analytically  !
 ! D78   D(30,13,14,46)         24.0143         calculate D2E/DX2 analytically  !
 ! D79   D(31,13,14,15)        104.9208         calculate D2E/DX2 analytically  !
 ! D80   D(31,13,14,46)        -75.7737         calculate D2E/DX2 analytically  !
 ! D81   D(1,13,30,23)          56.3986         calculate D2E/DX2 analytically  !
 ! D82   D(1,13,30,29)        -170.2346         calculate D2E/DX2 analytically  !
 ! D83   D(1,13,30,45)         -56.6057         calculate D2E/DX2 analytically  !
 ! D84   D(14,13,30,23)       -146.2324         calculate D2E/DX2 analytically  !
 ! D85   D(14,13,30,29)        -12.8656         calculate D2E/DX2 analytically  !
 ! D86   D(14,13,30,45)        100.7633         calculate D2E/DX2 analytically  !
 ! D87   D(31,13,30,23)        -48.6652         calculate D2E/DX2 analytically  !
 ! D88   D(31,13,30,29)         84.7015         calculate D2E/DX2 analytically  !
 ! D89   D(31,13,30,45)       -161.6696         calculate D2E/DX2 analytically  !
 ! D90   D(13,14,15,6)           1.555          calculate D2E/DX2 analytically  !
 ! D91   D(13,14,15,32)        178.8516         calculate D2E/DX2 analytically  !
 ! D92   D(46,14,15,6)        -177.7577         calculate D2E/DX2 analytically  !
 ! D93   D(46,14,15,32)         -0.4611         calculate D2E/DX2 analytically  !
 ! D94   D(2,16,17,18)          -4.6902         calculate D2E/DX2 analytically  !
 ! D95   D(2,16,17,22)         170.3938         calculate D2E/DX2 analytically  !
 ! D96   D(19,16,17,18)       -175.5271         calculate D2E/DX2 analytically  !
 ! D97   D(19,16,17,22)         -0.4431         calculate D2E/DX2 analytically  !
 ! D98   D(2,16,19,20)        -159.6029         calculate D2E/DX2 analytically  !
 ! D99   D(2,16,19,23)          15.0598         calculate D2E/DX2 analytically  !
 ! D100  D(17,16,19,20)         10.6385         calculate D2E/DX2 analytically  !
 ! D101  D(17,16,19,23)       -174.6988         calculate D2E/DX2 analytically  !
 ! D102  D(16,17,18,10)          5.0113         calculate D2E/DX2 analytically  !
 ! D103  D(16,17,18,37)       -178.2669         calculate D2E/DX2 analytically  !
 ! D104  D(22,17,18,10)       -169.9307         calculate D2E/DX2 analytically  !
 ! D105  D(22,17,18,37)          6.7911         calculate D2E/DX2 analytically  !
 ! D106  D(16,17,22,21)         -7.4133         calculate D2E/DX2 analytically  !
 ! D107  D(16,17,22,38)        177.1578         calculate D2E/DX2 analytically  !
 ! D108  D(18,17,22,21)        167.8144         calculate D2E/DX2 analytically  !
 ! D109  D(18,17,22,38)         -7.6145         calculate D2E/DX2 analytically  !
 ! D110  D(16,19,20,21)        -13.4212         calculate D2E/DX2 analytically  !
 ! D111  D(16,19,20,26)        165.9161         calculate D2E/DX2 analytically  !
 ! D112  D(23,19,20,21)        171.6293         calculate D2E/DX2 analytically  !
 ! D113  D(23,19,20,26)         -9.0333         calculate D2E/DX2 analytically  !
 ! D114  D(16,19,23,24)       -161.7298         calculate D2E/DX2 analytically  !
 ! D115  D(16,19,23,30)         23.8819         calculate D2E/DX2 analytically  !
 ! D116  D(20,19,23,24)         12.7831         calculate D2E/DX2 analytically  !
 ! D117  D(20,19,23,30)       -161.6052         calculate D2E/DX2 analytically  !
 ! D118  D(19,20,21,22)          6.2993         calculate D2E/DX2 analytically  !
 ! D119  D(19,20,21,39)       -174.2172         calculate D2E/DX2 analytically  !
 ! D120  D(26,20,21,22)       -173.0326         calculate D2E/DX2 analytically  !
 ! D121  D(26,20,21,39)          6.4509         calculate D2E/DX2 analytically  !
 ! D122  D(19,20,26,25)         -0.748          calculate D2E/DX2 analytically  !
 ! D123  D(19,20,26,40)       -178.8953         calculate D2E/DX2 analytically  !
 ! D124  D(21,20,26,25)        178.5854         calculate D2E/DX2 analytically  !
 ! D125  D(21,20,26,40)          0.4381         calculate D2E/DX2 analytically  !
 ! D126  D(20,21,22,17)          4.7095         calculate D2E/DX2 analytically  !
 ! D127  D(20,21,22,38)       -179.9353         calculate D2E/DX2 analytically  !
 ! D128  D(39,21,22,17)       -174.7614         calculate D2E/DX2 analytically  !
 ! D129  D(39,21,22,38)          0.5938         calculate D2E/DX2 analytically  !
 ! D130  D(19,23,24,25)         -7.0405         calculate D2E/DX2 analytically  !
 ! D131  D(19,23,24,27)        173.5701         calculate D2E/DX2 analytically  !
 ! D132  D(30,23,24,25)        167.7102         calculate D2E/DX2 analytically  !
 ! D133  D(30,23,24,27)        -11.6792         calculate D2E/DX2 analytically  !
 ! D134  D(19,23,30,13)        -71.2877         calculate D2E/DX2 analytically  !
 ! D135  D(19,23,30,29)        153.723          calculate D2E/DX2 analytically  !
 ! D136  D(19,23,30,45)         40.3853         calculate D2E/DX2 analytically  !
 ! D137  D(24,23,30,13)        114.2784         calculate D2E/DX2 analytically  !
 ! D138  D(24,23,30,29)        -20.7109         calculate D2E/DX2 analytically  !
 ! D139  D(24,23,30,45)       -134.0486         calculate D2E/DX2 analytically  !
 ! D140  D(23,24,25,26)         -2.7373         calculate D2E/DX2 analytically  !
 ! D141  D(23,24,25,41)       -179.4689         calculate D2E/DX2 analytically  !
 ! D142  D(27,24,25,26)        176.6615         calculate D2E/DX2 analytically  !
 ! D143  D(27,24,25,41)         -0.0701         calculate D2E/DX2 analytically  !
 ! D144  D(23,24,27,28)         22.3478         calculate D2E/DX2 analytically  !
 ! D145  D(23,24,27,42)       -158.6282         calculate D2E/DX2 analytically  !
 ! D146  D(25,24,27,28)       -157.0503         calculate D2E/DX2 analytically  !
 ! D147  D(25,24,27,42)         21.9737         calculate D2E/DX2 analytically  !
 ! D148  D(24,25,26,20)          6.7219         calculate D2E/DX2 analytically  !
 ! D149  D(24,25,26,40)       -175.1561         calculate D2E/DX2 analytically  !
 ! D150  D(41,25,26,20)       -176.5931         calculate D2E/DX2 analytically  !
 ! D151  D(41,25,26,40)          1.5289         calculate D2E/DX2 analytically  !
 ! D152  D(24,27,28,29)          3.5171         calculate D2E/DX2 analytically  !
 ! D153  D(24,27,28,43)        179.3788         calculate D2E/DX2 analytically  !
 ! D154  D(42,27,28,29)       -175.4689         calculate D2E/DX2 analytically  !
 ! D155  D(42,27,28,43)          0.3927         calculate D2E/DX2 analytically  !
 ! D156  D(27,28,29,30)        -36.7234         calculate D2E/DX2 analytically  !
 ! D157  D(27,28,29,44)         82.8166         calculate D2E/DX2 analytically  !
 ! D158  D(27,28,29,47)       -161.5174         calculate D2E/DX2 analytically  !
 ! D159  D(43,28,29,30)        147.3526         calculate D2E/DX2 analytically  !
 ! D160  D(43,28,29,44)        -93.1073         calculate D2E/DX2 analytically  !
 ! D161  D(43,28,29,47)         22.5587         calculate D2E/DX2 analytically  !
 ! D162  D(28,29,30,13)        -91.2561         calculate D2E/DX2 analytically  !
 ! D163  D(28,29,30,23)         43.8886         calculate D2E/DX2 analytically  !
 ! D164  D(28,29,30,45)        156.8257         calculate D2E/DX2 analytically  !
 ! D165  D(44,29,30,13)        149.1489         calculate D2E/DX2 analytically  !
 ! D166  D(44,29,30,23)        -75.7064         calculate D2E/DX2 analytically  !
 ! D167  D(44,29,30,45)         37.2307         calculate D2E/DX2 analytically  !
 ! D168  D(47,29,30,13)         34.6118         calculate D2E/DX2 analytically  !
 ! D169  D(47,29,30,23)        169.7566         calculate D2E/DX2 analytically  !
 ! D170  D(47,29,30,45)        -77.3064         calculate D2E/DX2 analytically  !
 --------------------------------------------------------------------------------
 Trust Radius=3.00D-01 FncErr=1.00D-07 GrdErr=1.00D-06 EigMax=2.50D+02 EigMin=1.00D-04
 Number of steps in this run=    282 maximum allowed number of steps=    282.
 Search for a saddle point of order  1.
 GradGradGradGradGradGradGradGradGradGradGradGradGradGradGradGradGradGrad

                          Input orientation:                          
 ---------------------------------------------------------------------
 Center     Atomic      Atomic             Coordinates (Angstroms)
 Number     Number       Type             X           Y           Z
 ---------------------------------------------------------------------
      1          6           0        0.638626   -0.882325   -0.095573
      2          6           0        0.520476    0.564389    0.088402
      3          6           0        1.828422    1.074068    0.023503
      4          6           0        2.006445   -1.161883   -0.291834
      5          6           0        2.730746    0.028861   -0.205204
      6          6           0        2.615196   -2.403847   -0.305104
      7          6           0        4.061138   -2.345021   -0.341166
      8          6           0        4.767357   -1.146578   -0.292252
      9          6           0        4.099917    0.133055   -0.187143
     10          6           0        2.237306    2.391301    0.182457
     11          6           0        3.681892    2.559808    0.151949
     12          6           0        4.560798    1.499614   -0.009541
     13          6           0       -0.248692   -1.918990    0.107032
     14          6           0        0.332387   -3.241763    0.040816
     15          6           0        1.685892   -3.486403   -0.169644
     16          6           0       -0.542178    1.445906    0.225903
     17          6           0       -0.179965    2.854746    0.294840
     18          6           0        1.163043    3.300259    0.324495
     19          6           0       -1.927602    1.009100    0.099866
     20          6           0       -2.884530    2.024981   -0.187416
     21          6           0       -2.521027    3.412488   -0.051749
     22          6           0       -1.253271    3.809570    0.223197
     23          6           0       -2.349901   -0.360131    0.136869
     24          6           0       -3.618066   -0.681398   -0.373729
     25          6           0       -4.508012    0.338714   -0.771371
     26          6           0       -4.175876    1.664173   -0.615848
     27          6           0       -4.042966   -2.080841   -0.489459
     28          6           0       -3.483970   -3.040424    0.252414
     29          6           0       -2.456954   -2.651694    1.276093
     30          6           0       -1.544393   -1.495863    0.820213
     31          1           0       -1.064727   -2.107111   -1.767054
     32          1           0        2.029801   -4.515636   -0.184591
     33          1           0        4.627435   -3.269885   -0.385843
     34          1           0        5.851690   -1.189713   -0.306391
     35          1           0        5.625564    1.709627    0.002433
     36          1           0        4.097306    3.555089    0.273544
     37          1           0        1.341891    4.368114    0.405196
     38          1           0       -1.018847    4.864448    0.318912
     39          1           0       -3.304227    4.151312   -0.186554
     40          1           0       -4.893037    2.443680   -0.849921
     41          1           0       -5.484542    0.061119   -1.154067
     42          1           0       -4.841276   -2.303747   -1.190419
     43          1           0       -3.804951   -4.073536    0.174043
     44          1           0       -2.986738   -2.326606    2.182130
     45          1           0       -1.164783   -1.046288    1.746371
     46          1           0       -0.315812   -4.099959    0.172619
     47          1           0       -1.848156   -3.504145    1.583495
 ---------------------------------------------------------------------
                    Distance matrix (angstroms):
                    1          2          3          4          5
     1  C    0.000000
     2  C    1.463143   0.000000
     3  C    2.292873   1.405243   0.000000
     4  C    1.409823   2.309264   2.265084   0.000000
     5  C    2.284567   2.293096   1.399626   1.396420   0.000000
     6  C    2.503150   3.654193   3.580906   1.383195   2.437499
     7  C    3.730065   4.602769   4.099777   2.371500   2.724655
     8  C    4.141851   4.594377   3.697068   2.760954   2.353087
     9  C    3.608312   3.615850   2.467705   2.463828   1.373249
    10  C    3.653725   2.508776   1.388364   3.592125   2.444358
    11  C    4.601197   3.739022   2.378923   4.105490   2.727257
    12  C    4.589604   4.148306   2.765513   3.699726   2.355948
    13  C    1.379513   2.599834   3.644143   2.412042   3.573327
    14  C    2.383135   3.811094   4.567802   2.690544   4.063205
    15  C    2.807753   4.222996   4.566784   2.349697   3.667433
    16  C    2.630267   1.387520   2.408106   3.682946   3.592478
    17  C    3.845545   2.403949   2.697787   4.610627   4.087531
    18  C    4.236210   2.820216   2.342915   4.582783   3.666104
    19  C    3.193933   2.488169   3.757362   4.510357   4.770130
    20  C    4.568752   3.715302   4.812550   5.838548   5.959542
    21  C    5.332049   4.169179   4.938783   6.440537   6.249288
    22  C    5.069001   3.700750   4.125492   5.967106   5.509054
    23  C    3.042698   3.015982   4.419068   4.450207   5.106986
    24  C    4.270500   4.346617   5.736173   5.645591   6.390640
    25  C    5.332497   5.106450   6.428294   6.702231   7.267474
    26  C    5.471267   4.874548   6.067008   6.805341   7.109452
    27  C    4.848597   5.306239   6.685041   6.122002   7.100339
    28  C    4.666292   5.390470   6.723314   5.828360   6.946411
    29  C    3.820308   4.540803   5.815044   4.959825   6.024272
    30  C    2.445540   3.007303   4.314530   3.735859   4.653287
    31  H    2.682417   3.618356   4.657929   3.535792   4.626810
    32  H    3.891560   5.306528   5.597200   3.355549   4.598282
    33  H    4.657821   5.638588   5.183818   3.364833   3.809434
    34  H    5.226372   5.626240   4.628198   3.845373   3.351933
    35  H    5.621154   5.232675   3.850022   4.629275   3.353813
    36  H    5.638205   4.666077   3.371323   5.190489   3.811951
    37  H    5.320945   3.904280   3.351588   5.613230   4.596806
    38  H    5.995366   4.573091   4.749862   6.770677   6.141421
    39  H    6.394675   5.250711   5.988125   7.512946   7.308615
    40  H    6.498511   5.806747   6.914963   7.804768   8.023034
    41  H    6.285196   6.152825   7.476107   7.638983   8.269966
    42  H    5.766147   6.213692   7.574174   7.000185   7.984186
    43  H    5.477399   6.342476   7.632521   6.516678   7.725854
    44  H    4.518533   5.004208   6.277740   5.692886   6.628515
    45  H    2.583007   2.860636   4.052587   3.771515   4.487732
    46  H    3.366905   4.739474   5.602725   3.773710   5.145038
    47  H    3.984632   4.939503   6.075429   4.884772   6.053752
                    6          7          8          9         10
     6  C    0.000000
     7  C    1.447587   0.000000
     8  C    2.492526   1.391906   0.000000
     9  C    2.941799   2.483161   1.447061   0.000000
    10  C    4.834662   5.102283   4.375282   2.950525   0.000000
    11  C    5.097510   4.944122   3.887524   2.485731   1.454701
    12  C    4.371468   3.891125   2.669255   1.453079   2.496114
    13  C    2.933734   4.353966   5.090854   4.817450   4.976393
    14  C    2.456213   3.854042   4.916268   5.063165   5.948125
    15  C    1.433137   2.640827   3.871077   4.350667   5.914003
    16  C    5.007153   5.990260   5.931325   4.841821   2.936186
    17  C    5.985454   6.740106   6.389935   5.094831   2.463861
    18  C    5.919626   6.380536   5.757240   4.349504   1.414362
    19  C    5.696422   6.878201   7.044372   6.097607   4.389050
    20  C    7.062249   8.207488   8.283788   7.236151   5.148223
    21  C    7.763680   8.749718   8.600201   7.389852   4.872310
    22  C    7.338303   8.151100   7.815181   6.507055   3.767927
    23  C    5.387421   6.728278   7.173424   6.476756   5.349292
    24  C    6.467232   7.857409   8.398711   7.763080   6.635978
    25  C    7.647165   8.989874   9.405749   8.630183   7.114929
    26  C    7.922374   9.165014   9.380109   8.427150   6.503454
    27  C    6.668541   8.109765   8.861915   8.443890   7.739079
    28  C    6.157587   7.600301   8.483379   8.232832   7.889330
    29  C    5.318676   6.722730   7.544253   7.272444   6.975953
    30  C    4.403743   5.787214   6.418549   5.960401   5.460588
    31  H    3.970791   5.325810   6.091869   5.847051   5.910983
    32  H    2.194735   2.976981   4.342391   5.088783   6.919795
    33  H    2.192178   1.085386   2.129969   3.449313   6.171281
    34  H    3.456735   2.131202   1.085283   2.198328   5.111400
    35  H    5.106620   4.359548   2.996876   2.202071   3.460835
    36  H    6.167690   5.932156   4.782757   3.452905   2.195973
    37  H    6.927141   7.281315   6.529325   5.088546   2.181552
    38  H    8.150078   8.844116   8.365770   6.988842   4.091162
    39  H    8.833104   9.822161   9.655531   8.424235   5.826010
    40  H    8.953709  10.166993  10.321054   9.308678   7.204883
    41  H    8.508969   9.877769  10.358701   9.633378   8.175756
    42  H    7.509512   8.942925   9.719649   9.321454   8.604335
    43  H    6.650995   8.070227   9.070225   8.961741   8.848902
    44  H    6.129760   7.485981   8.224416   7.866643   7.317648
    45  H    4.509962   5.775359   6.273462   5.731177   5.083016
    46  H    3.419916   4.743572   5.897217   6.127520   6.975311
    47  H    4.969806   6.321997   7.269220   7.193327   7.308228
                   11         12         13         14         15
    11  C    0.000000
    12  C    1.386566   0.000000
    13  C    5.959122   5.901833   0.000000
    14  C    6.699982   6.353161   1.446294   0.000000
    15  C    6.375273   5.757698   2.505184   1.391445   0.000000
    16  C    4.369098   5.108687   3.379762   4.772144   5.426640
    17  C    3.875738   4.940027   4.777923   6.123272   6.626261
    18  C    2.631091   3.859876   5.411178   6.600645   6.824685
    19  C    5.820123   6.507834   3.375278   4.814652   5.774039
    20  C    6.596901   7.465960   4.752815   6.175697   7.159918
    21  C    6.264564   7.335742   5.797704   7.240828   8.081260
    22  C    5.091445   6.260468   5.817136   7.229721   7.875546
    23  C    6.701403   7.158062   2.616488   3.937981   5.114211
    24  C    8.004445   8.472500   3.621525   4.725822   6.003472
    25  C    8.535825   9.174497   4.900064   6.075272   7.304659
    26  C    7.945829   8.759233   5.365108   6.695062   7.815872
    27  C    9.034404   9.331384   3.844283   4.557702   5.907428
    28  C    9.095178   9.241150   3.427211   3.827518   5.206199
    29  C    8.130737   8.254396   2.603839   3.107171   4.466550
    30  C    6.648992   6.850893   1.538345   2.679166   3.921327
    31  H    6.927705   6.909692   2.052681   2.551031   3.466997
    32  H    7.273553   6.528386   3.466864   2.134192   1.085273
    33  H    5.930311   4.784785   5.083744   4.316279   2.957414
    34  H    4.356261   2.997833   6.157713   5.898658   4.758924
    35  H    2.126740   1.085346   6.905410   7.248135   6.522987
    36  H    1.085329   2.126015   6.991492   7.773415   7.456135
    37  H    2.968115   4.331473   6.492036   7.685187   7.883033
    38  H    5.237957   6.523989   6.830305   8.222763   8.791531
    39  H    7.173098   8.301895   6.802283   8.242222   9.123391
    40  H    8.634039   9.537950   6.443492   7.773206   8.883185
    41  H    9.590237  10.212153   5.738060   6.795104   8.060343
    42  H    9.904570  10.210731   4.787823   5.400241   6.711526
    43  H   10.002728  10.053828   4.158550   4.222222   5.532830
    44  H    8.512890   8.741206   3.459636   4.054544   5.358119
    45  H    6.247909   6.507467   2.070812   3.157617   4.213267
    46  H    7.767532   7.427633   2.182987   1.083529   2.121418
    47  H    8.330803   8.285533   2.692758   2.683928   3.945036
                   16         17         18         19         20
    16  C    0.000000
    17  C    1.456290   0.000000
    18  C    2.521135   1.415285   0.000000
    19  C    1.458110   2.549247   3.853823   0.000000
    20  C    2.448014   2.869800   4.274486   1.424871   0.000000
    21  C    2.803637   2.431413   3.704933   2.480204   1.440734
    22  C    2.468313   1.438335   2.471484   2.883152   2.452421
    23  C    2.556865   3.881882   5.076853   1.433352   2.465715
    24  C    3.787620   4.977131   6.260999   2.437159   2.810209
    25  C    4.236540   5.118517   6.490958   2.804815   2.412508
    26  C    3.736301   4.267801   5.662604   2.448694   1.407590
    27  C    5.020478   6.316480   7.531354   3.790752   4.276795
    28  C    5.364886   6.758053   7.861564   4.340990   5.119678
    29  C    4.643231   6.038909   7.031050   3.881383   4.918940
    30  C    3.164118   4.589715   5.529804   2.634500   3.899696
    31  H    4.107172   5.445570   6.211054   3.733727   4.783422
    32  H    6.505656   7.709439   7.880270   6.801813   8.181096
    33  H    7.024088   7.815723   7.461460   7.843095   9.192638
    34  H    6.936236   7.286974   6.522367   8.094270   9.309670
    35  H    6.177421   5.924607   4.748466   7.586208   8.518051
    36  H    5.096640   4.334280   2.945748   6.543068   7.162384
    37  H    3.481546   2.149071   1.085732   4.697423   4.868685
    38  H    3.452867   2.177890   2.684653   3.967055   3.435071
    39  H    3.888220   3.416700   4.576239   3.442474   2.167355
    40  H    4.591615   4.867494   6.228088   3.428399   2.155997
    41  H    5.314971   6.167838   7.541125   3.888809   3.398710
    42  H    5.877764   7.109421   8.351748   4.596660   4.855178
    43  H    6.411912   7.820243   8.892494   5.418776   6.178166
    44  H    4.902504   6.187588   7.234162   4.072410   4.955956
    45  H    2.985045   4.277251   5.131567   2.741804   4.016187
    46  H    5.550739   6.957105   7.548066   5.357765   6.651528
    47  H    5.296380   6.699178   7.546676   4.751510   5.897578
                   21         22         23         24         25
    21  C    0.000000
    22  C    1.356641   0.000000
    23  C    3.781205   4.312361   0.000000
    24  C    4.250537   5.110516   1.404338   0.000000
    25  C    3.730154   4.861003   2.443507   1.410940   0.000000
    26  C    2.472517   3.721336   2.828175   2.423113   1.375261
    27  C    5.717040   6.556464   2.493912   1.467097   2.479917
    28  C    6.531451   7.204116   2.912633   2.444390   3.676326
    29  C    6.208186   6.656228   2.561358   2.819957   4.164311
    30  C    5.079965   5.346849   1.551028   2.527641   3.831690
    31  H    5.960625   6.245299   2.885920   3.239375   4.339315
    32  H    9.142365   8.958455   6.045936   6.829023   8.164069
    33  H    9.791131   9.223466   7.577804   8.642262   9.829904
    34  H    9.557588   8.703664   8.255349   9.483628  10.482162
    35  H    8.322837   7.195615   8.240753   9.555270  10.255123
    36  H    6.627857   5.356862   7.544144   8.825744   9.245994
    37  H    4.005516   2.660820   6.004800   7.120777   7.200121
    38  H    2.121820   1.084843   5.394541   6.163773   5.817668
    39  H    1.085097   2.119222   4.622603   4.846505   4.040670
    40  H    2.683673   4.033006   3.911860   3.408581   2.141330
    41  H    4.607516   5.818195   3.416130   2.154992   1.084954
    42  H    6.273394   7.228052   3.427286   2.189804   2.696158
    43  H    7.598684   8.285943   3.988475   3.441160   4.566843
    44  H    6.176107   6.670456   2.907865   3.104464   4.259269
    45  H    4.995329   5.089916   2.113247   3.262908   4.408450
    46  H    7.832635   7.965051   4.257359   4.784343   6.177983
    47  H    7.139089   7.462890   3.497041   3.864092   5.233335
                   26         27         28         29         30
    26  C    0.000000
    27  C    3.749503   0.000000
    28  C    4.833823   1.335534   0.000000
    29  C    5.016058   2.441000   1.501263   0.000000
    30  C    4.355778   2.881025   2.543624   1.541603   0.000000
    31  H    5.022659   3.240810   3.286649   3.390518   2.701417
    32  H    8.768492   6.549784   5.724412   5.073347   4.785763
    33  H   10.094361   8.752166   8.139712   7.302928   6.534002
    34  H   10.430365   9.936390   9.533727   8.583426   7.487657
    35  H    9.821027  10.396638  10.276628   9.272024   7.896342
    36  H    8.533002   9.930252  10.048730   9.082268   7.592083
    37  H    6.228931   8.449030   8.843004   8.029159   6.548977
    38  H    4.591554   7.618123   8.280595   7.712116   6.401645
    39  H    2.670192   6.283090   7.207362   7.009857   6.000098
    40  H    1.084777   4.617775   5.768536   6.034672   5.433485
    41  H    2.138240   2.666053   3.949689   4.736172   4.674051
    42  H    4.064145   1.085509   2.113466   3.448150   3.945219
    43  H    5.803690   2.113698   1.084662   2.247942   3.488847
    44  H    5.016876   2.883298   2.116738   1.098752   2.150654
    45  H    4.689708   3.788558   3.403985   2.113811   1.097265
    46  H    6.981905   4.290322   3.341587   2.810625   2.951289
    47  H    6.080041   3.337682   2.159329   1.091698   2.169808
                   31         32         33         34         35
    31  H    0.000000
    32  H    4.228627   0.000000
    33  H    5.971641   2.887923   0.000000
    34  H    7.128252   5.067883   2.415001   0.000000
    35  H    7.903073   7.191550   5.093384   2.924496   0.000000
    36  H    7.929132   8.343924   6.877216   5.091889   2.411390
    37  H    7.241479   8.929842   8.352220   7.192641   5.057630
    38  H    7.277087   9.875917   9.926961   9.178679   7.362150
    39  H    6.832364  10.176829  10.863938  10.600553   9.259520
    40  H    6.017208   9.838721  11.113037  11.355445  10.578578
    41  H    4.961022   8.851662  10.674167  11.436489  11.291126
    42  H    3.825375   7.288062   9.551819  10.787127  11.273190
    43  H    3.891467   5.862457   8.489079  10.089498  11.063862
    44  H    4.397540   5.963127   8.090729   9.252193   9.757766
    45  H    3.671445   5.096112   6.560527   7.311997   7.532941
    46  H    2.880043   2.408794   5.043470   6.836451   8.311450
    47  H    3.713710   4.380387   6.772477   8.259291   9.248766
                   36         37         38         39         40
    36  H    0.000000
    37  H    2.875874   0.000000
    38  H    5.281240   2.413892   0.000000
    39  H    7.439749   4.688665   2.446839   0.000000
    40  H    9.128180   6.644779   4.715468   2.424949   0.000000
    41  H   10.298432   8.220809   6.721910   4.734927   2.473657
    42  H   10.787372   9.235327   8.262691   6.711040   4.759903
    43  H   10.984147   9.889634   9.363275   8.247962   6.686295
    44  H    9.403229   8.167852   7.684753   6.904700   5.965144
    45  H    7.143631   6.115383   6.082412   5.943775   5.728917
    46  H    8.836603   8.631937   8.993123   8.783115   8.050825
    47  H    9.321871   8.575386   8.504133   7.991198   7.111219
                   41         42         43         44         45
    41  H    0.000000
    42  H    2.451062   0.000000
    43  H    4.656208   2.463307   0.000000
    44  H    4.803172   3.848886   2.784538   0.000000
    45  H    5.319700   4.870579   4.313575   2.269057   0.000000
    46  H    6.766863   5.056093   3.489239   3.783750   3.538694
    47  H    5.781752   4.253742   2.477864   1.743941   2.556284
                   46         47
    46  H    0.000000
    47  H    2.166482   0.000000
 Stoichiometry    C30H17(2)
 Framework group  C1[X(C30H17)]
 Deg. of freedom   135
 Full point group                 C1      NOp   1
 Largest Abelian subgroup         C1      NOp   1
 Largest concise Abelian subgroup C1      NOp   1
                         Standard orientation:                         
 ---------------------------------------------------------------------
 Center     Atomic      Atomic             Coordinates (Angstroms)
 Number     Number       Type             X           Y           Z
 ---------------------------------------------------------------------
      1          6           0        0.638626   -0.882325   -0.095573
      2          6           0        0.520476    0.564389    0.088402
      3          6           0        1.828422    1.074068    0.023503
      4          6           0        2.006445   -1.161883   -0.291834
      5          6           0        2.730746    0.028861   -0.205204
      6          6           0        2.615196   -2.403847   -0.305104
      7          6           0        4.061138   -2.345021   -0.341166
      8          6           0        4.767357   -1.146578   -0.292252
      9          6           0        4.099917    0.133055   -0.187143
     10          6           0        2.237306    2.391301    0.182457
     11          6           0        3.681892    2.559808    0.151949
     12          6           0        4.560798    1.499614   -0.009541
     13          6           0       -0.248692   -1.918990    0.107032
     14          6           0        0.332387   -3.241763    0.040816
     15          6           0        1.685892   -3.486403   -0.169644
     16          6           0       -0.542178    1.445906    0.225903
     17          6           0       -0.179965    2.854746    0.294840
     18          6           0        1.163043    3.300259    0.324495
     19          6           0       -1.927602    1.009100    0.099866
     20          6           0       -2.884530    2.024981   -0.187416
     21          6           0       -2.521027    3.412488   -0.051749
     22          6           0       -1.253271    3.809570    0.223197
     23          6           0       -2.349901   -0.360131    0.136869
     24          6           0       -3.618066   -0.681398   -0.373729
     25          6           0       -4.508012    0.338714   -0.771371
     26          6           0       -4.175876    1.664173   -0.615848
     27          6           0       -4.042966   -2.080841   -0.489459
     28          6           0       -3.483970   -3.040424    0.252414
     29          6           0       -2.456954   -2.651694    1.276093
     30          6           0       -1.544393   -1.495863    0.820213
     31          1           0       -1.064727   -2.107111   -1.767054
     32          1           0        2.029801   -4.515636   -0.184591
     33          1           0        4.627435   -3.269885   -0.385843
     34          1           0        5.851690   -1.189713   -0.306391
     35          1           0        5.625564    1.709627    0.002433
     36          1           0        4.097306    3.555089    0.273544
     37          1           0        1.341891    4.368114    0.405196
     38          1           0       -1.018847    4.864448    0.318912
     39          1           0       -3.304227    4.151312   -0.186554
     40          1           0       -4.893037    2.443680   -0.849921
     41          1           0       -5.484542    0.061119   -1.154067
     42          1           0       -4.841276   -2.303747   -1.190419
     43          1           0       -3.804951   -4.073536    0.174043
     44          1           0       -2.986738   -2.326606    2.182130
     45          1           0       -1.164783   -1.046288    1.746371
     46          1           0       -0.315812   -4.099959    0.172619
     47          1           0       -1.848156   -3.504145    1.583495
 ---------------------------------------------------------------------
 Rotational constants (GHZ):           0.2687728           0.1613480           0.1038715
 Standard basis: 6-311+G(d,p) (5D, 7F)
 There are   792 symmetry adapted cartesian basis functions of A   symmetry.
 There are   762 symmetry adapted basis functions of A   symmetry.
   762 basis functions,  1216 primitive gaussians,   792 cartesian basis functions
    99 alpha electrons       98 beta electrons
       nuclear repulsion energy      2660.2239098121 Hartrees.
 NAtoms=   47 NActive=   47 NUniq=   47 SFac= 1.00D+00 NAtFMM=   60 NAOKFM=F Big=F
 Integral buffers will be    131072 words long.
 Raffenetti 2 integral format.
 Two-electron integral symmetry is turned on.
 One-electron integrals computed using PRISM.
 NBasis=   762 RedAO= T EigKep=  1.02D-06  NBF=   762
 NBsUse=   742 1.00D-06 EigRej=  8.85D-07 NBFU=   742
 ExpMin= 4.38D-02 ExpMax= 4.56D+03 ExpMxC= 6.82D+02 IAcc=2 IRadAn=         4 AccDes= 0.00D+00
 Harris functional with IExCor=  402 and IRadAn=       4 diagonalized for initial guess.
 HarFok:  IExCor=  402 AccDes= 0.00D+00 IRadAn=         4 IDoV= 1 UseB2=F ITyADJ=14
 ICtDFT=  3500011 ScaDFX=  1.000000  1.000000  1.000000  1.000000
 FoFCou: FMM=F IPFlag=           0 FMFlag=      100000 FMFlg1=           0
         NFxFlg=           0 DoJE=T BraDBF=F KetDBF=T FulRan=T
         wScrn=  0.000000 ICntrl=       500 IOpCl=  0 I1Cent=   200000004 NGrid=           0
         NMat0=    1 NMatS0=      1 NMatT0=    0 NMatD0=    1 NMtDS0=    0 NMtDT0=    0
 Petite list used in FoFCou.
 Initial guess <Sx>= 0.0000 <Sy>= 0.0000 <Sz>= 0.5000 <S**2>= 0.7500 S= 0.5000
 Requested convergence on RMS density matrix=1.00D-08 within 128 cycles.
 Requested convergence on MAX density matrix=1.00D-06.
 Requested convergence on             energy=1.00D-06.
 No special actions if energy rises.
 Restarting incremental Fock formation.
 SCF Done:  E(UB3LYP) =  -1153.60888470     A.U. after   26 cycles
            NFock= 26  Conv=0.91D-08     -V/T= 2.0045
 <Sx>= 0.0000 <Sy>= 0.0000 <Sz>= 0.5000 <S**2>= 0.7662 S= 0.5080
 <L.S>=  0.00000000000    
 Annihilation of the first spin contaminant:
 S**2 before annihilation     0.7662,   after     0.7501
 DoSCS=F DFT=T ScalE2(SS,OS)=  1.000000  1.000000
 Range of M.O.s used for correlation:     1   742
 NBasis=   762 NAE=    99 NBE=    98 NFC=     0 NFV=     0
 NROrb=    742 NOA=    99 NOB=    98 NVA=   643 NVB=   644

 **** Warning!!: The largest alpha MO coefficient is  0.13593947D+03


 **** Warning!!: The largest beta MO coefficient is  0.14554839D+03

 Symmetrizing basis deriv contribution to polar:
 IMax=3 JMax=2 DiffMx= 0.00D+00
 G2DrvN: will do    48 centers at a time, making    1 passes.
 Calling FoFCou, ICntrl=  3107 FMM=F I1Cent=   0 AccDes= 0.00D+00.
 End of G2Drv F.D. properties file   721 does not exist.
 End of G2Drv F.D. properties file   722 does not exist.
 End of G2Drv F.D. properties file   788 does not exist.
          IDoAtm=11111111111111111111111111111111111111111111111
          Differentiating once with respect to nuclear coordinates.
 CalDSu exits because no D1Ps are significant.
          There are   144 degrees of freedom in the 1st order CPHF.  IDoFFX=6 NUNeed=     0.
    138 vectors produced by pass  0 Test12= 1.27D-13 1.00D-09 XBig12= 6.42D-01 1.41D-01.
 AX will form   138 AO Fock derivatives at one time.
    138 vectors produced by pass  1 Test12= 1.27D-13 1.00D-09 XBig12= 1.70D-01 7.72D-02.
    138 vectors produced by pass  2 Test12= 1.27D-13 1.00D-09 XBig12= 2.42D-03 9.53D-03.
    138 vectors produced by pass  3 Test12= 1.27D-13 1.00D-09 XBig12= 2.98D-05 7.59D-04.
    138 vectors produced by pass  4 Test12= 1.27D-13 1.00D-09 XBig12= 2.37D-07 5.25D-05.
    138 vectors produced by pass  5 Test12= 1.27D-13 1.00D-09 XBig12= 1.66D-09 2.88D-06.
    137 vectors produced by pass  6 Test12= 1.27D-13 1.00D-09 XBig12= 1.14D-10 8.54D-07.
    112 vectors produced by pass  7 Test12= 1.27D-13 1.00D-09 XBig12= 2.90D-11 3.17D-07.
     89 vectors produced by pass  8 Test12= 1.27D-13 1.00D-09 XBig12= 4.29D-12 9.12D-08.
     53 vectors produced by pass  9 Test12= 1.27D-13 1.00D-09 XBig12= 1.65D-13 1.83D-08.
      7 vectors produced by pass 10 Test12= 1.27D-13 1.00D-09 XBig12= 2.12D-15 2.33D-09.
      6 vectors produced by pass 11 Test12= 1.27D-13 1.00D-09 XBig12= 1.55D-15 2.60D-09.
      5 vectors produced by pass 12 Test12= 1.27D-13 1.00D-09 XBig12= 9.90D-16 1.72D-09.
      5 vectors produced by pass 13 Test12= 1.27D-13 1.00D-09 XBig12= 1.05D-15 1.68D-09.
      2 vectors produced by pass 14 Test12= 1.27D-13 1.00D-09 XBig12= 6.61D-16 1.43D-09.
      2 vectors produced by pass 15 Test12= 1.27D-13 1.00D-09 XBig12= 1.30D-15 2.17D-09.
      2 vectors produced by pass 16 Test12= 1.27D-13 1.00D-09 XBig12= 9.33D-16 1.28D-09.
      1 vectors produced by pass 17 Test12= 1.27D-13 1.00D-09 XBig12= 1.11D-15 1.78D-09.
 InvSVY:  IOpt=1 It=  1 EMax= 9.99D-16
 Solved reduced A of dimension  1249 with   144 vectors.
 End of Minotr F.D. properties file   721 does not exist.
 End of Minotr F.D. properties file   722 does not exist.
 End of Minotr F.D. properties file   788 does not exist.

 **********************************************************************

            Population analysis using the SCF Density.

 **********************************************************************

 Orbital symmetries:
 Alpha Orbitals:
       Occupied  (A) (A) (A) (A) (A) (A) (A) (A) (A) (A) (A) (A)
                 (A) (A) (A) (A) (A) (A) (A) (A) (A) (A) (A) (A)
                 (A) (A) (A) (A) (A) (A) (A) (A) (A) (A) (A) (A)
                 (A) (A) (A) (A) (A) (A) (A) (A) (A) (A) (A) (A)
                 (A) (A) (A) (A) (A) (A) (A) (A) (A) (A) (A) (A)
                 (A) (A) (A) (A) (A) (A) (A) (A) (A) (A) (A) (A)
                 (A) (A) (A) (A) (A) (A) (A) (A) (A) (A) (A) (A)
                 (A) (A) (A) (A) (A) (A) (A) (A) (A) (A) (A) (A)
                 (A) (A) (A)
       Virtual   (A) (A) (A) (A) (A) (A) (A) (A) (A) (A) (A) (A)
                 (A) (A) (A) (A) (A) (A) (A) (A) (A) (A) (A) (A)
                 (A) (A) (A) (A) (A) (A) (A) (A) (A) (A) (A) (A)
                 (A) (A) (A) (A) (A) (A) (A) (A) (A) (A) (A) (A)
                 (A) (A) (A) (A) (A) (A) (A) (A) (A) (A) (A) (A)
                 (A) (A) (A) (A) (A) (A) (A) (A) (A) (A) (A) (A)
                 (A) (A) (A) (A) (A) (A) (A) (A) (A) (A) (A) (A)
                 (A) (A) (A) (A) (A) (A) (A) (A) (A) (A) (A) (A)
                 (A) (A) (A) (A) (A) (A) (A) (A) (A) (A) (A) (A)
                 (A) (A) (A) (A) (A) (A) (A) (A) (A) (A) (A) (A)
                 (A) (A) (A) (A) (A) (A) (A) (A) (A) (A) (A) (A)
                 (A) (A) (A) (A) (A) (A) (A) (A) (A) (A) (A) (A)
                 (A) (A) (A) (A) (A) (A) (A) (A) (A) (A) (A) (A)
                 (A) (A) (A) (A) (A) (A) (A) (A) (A) (A) (A) (A)
                 (A) (A) (A) (A) (A) (A) (A) (A) (A) (A) (A) (A)
                 (A) (A) (A) (A) (A) (A) (A) (A) (A) (A) (A) (A)
                 (A) (A) (A) (A) (A) (A) (A) (A) (A) (A) (A) (A)
                 (A) (A) (A) (A) (A) (A) (A) (A) (A) (A) (A) (A)
                 (A) (A) (A) (A) (A) (A) (A) (A) (A) (A) (A) (A)
                 (A) (A) (A) (A) (A) (A) (A) (A) (A) (A) (A) (A)
                 (A) (A) (A) (A) (A) (A) (A) (A) (A) (A) (A) (A)
                 (A) (A) (A) (A) (A) (A) (A) (A) (A) (A) (A) (A)
                 (A) (A) (A) (A) (A) (A) (A) (A) (A) (A) (A) (A)
                 (A) (A) (A) (A) (A) (A) (A) (A) (A) (A) (A) (A)
                 (A) (A) (A) (A) (A) (A) (A) (A) (A) (A) (A) (A)
                 (A) (A) (A) (A) (A) (A) (A) (A) (A) (A) (A) (A)
                 (A) (A) (A) (A) (A) (A) (A) (A) (A) (A) (A) (A)
                 (A) (A) (A) (A) (A) (A) (A) (A) (A) (A) (A) (A)
                 (A) (A) (A) (A) (A) (A) (A) (A) (A) (A) (A) (A)
                 (A) (A) (A) (A) (A) (A) (A) (A) (A) (A) (A) (A)
                 (A) (A) (A) (A) (A) (A) (A) (A) (A) (A) (A) (A)
                 (A) (A) (A) (A) (A) (A) (A) (A) (A) (A) (A) (A)
                 (A) (A) (A) (A) (A) (A) (A) (A) (A) (A) (A) (A)
                 (A) (A) (A) (A) (A) (A) (A) (A) (A) (A) (A) (A)
                 (A) (A) (A) (A) (A) (A) (A) (A) (A) (A) (A) (A)
                 (A) (A) (A) (A) (A) (A) (A) (A) (A) (A) (A) (A)
                 (A) (A) (A) (A) (A) (A) (A) (A) (A) (A) (A) (A)
                 (A) (A) (A) (A) (A) (A) (A) (A) (A) (A) (A) (A)
                 (A) (A) (A) (A) (A) (A) (A) (A) (A) (A) (A) (A)
                 (A) (A) (A) (A) (A) (A) (A) (A) (A) (A) (A) (A)
                 (A) (A) (A) (A) (A) (A) (A) (A) (A) (A) (A) (A)
                 (A) (A) (A) (A) (A) (A) (A) (A) (A) (A) (A) (A)
                 (A) (A) (A) (A) (A) (A) (A) (A) (A) (A) (A) (A)
                 (A) (A) (A) (A) (A) (A) (A) (A) (A) (A) (A) (A)
                 (A) (A) (A) (A) (A) (A) (A) (A) (A) (A) (A) (A)
                 (A) (A) (A) (A) (A) (A) (A) (A) (A) (A) (A) (A)
                 (A) (A) (A) (A) (A) (A) (A) (A) (A) (A) (A) (A)
                 (A) (A) (A) (A) (A) (A) (A) (A) (A) (A) (A) (A)
                 (A) (A) (A) (A) (A) (A) (A) (A) (A) (A) (A) (A)
                 (A) (A) (A) (A) (A) (A) (A) (A) (A) (A) (A) (A)
                 (A) (A) (A) (A) (A) (A) (A) (A) (A) (A) (A) (A)
                 (A) (A) (A) (A) (A) (A) (A) (A) (A) (A) (A) (A)
                 (A) (A) (A) (A) (A) (A) (A) (A) (A) (A) (A) (A)
                 (A) (A) (A) (A) (A) (A) (A)
 Beta  Orbitals:
       Occupied  (A) (A) (A) (A) (A) (A) (A) (A) (A) (A) (A) (A)
                 (A) (A) (A) (A) (A) (A) (A) (A) (A) (A) (A) (A)
                 (A) (A) (A) (A) (A) (A) (A) (A) (A) (A) (A) (A)
                 (A) (A) (A) (A) (A) (A) (A) (A) (A) (A) (A) (A)
                 (A) (A) (A) (A) (A) (A) (A) (A) (A) (A) (A) (A)
                 (A) (A) (A) (A) (A) (A) (A) (A) (A) (A) (A) (A)
                 (A) (A) (A) (A) (A) (A) (A) (A) (A) (A) (A) (A)
                 (A) (A) (A) (A) (A) (A) (A) (A) (A) (A) (A) (A)
                 (A) (A)
       Virtual   (A) (A) (A) (A) (A) (A) (A) (A) (A) (A) (A) (A)
                 (A) (A) (A) (A) (A) (A) (A) (A) (A) (A) (A) (A)
                 (A) (A) (A) (A) (A) (A) (A) (A) (A) (A) (A) (A)
                 (A) (A) (A) (A) (A) (A) (A) (A) (A) (A) (A) (A)
                 (A) (A) (A) (A) (A) (A) (A) (A) (A) (A) (A) (A)
                 (A) (A) (A) (A) (A) (A) (A) (A) (A) (A) (A) (A)
                 (A) (A) (A) (A) (A) (A) (A) (A) (A) (A) (A) (A)
                 (A) (A) (A) (A) (A) (A) (A) (A) (A) (A) (A) (A)
                 (A) (A) (A) (A) (A) (A) (A) (A) (A) (A) (A) (A)
                 (A) (A) (A) (A) (A) (A) (A) (A) (A) (A) (A) (A)
                 (A) (A) (A) (A) (A) (A) (A) (A) (A) (A) (A) (A)
                 (A) (A) (A) (A) (A) (A) (A) (A) (A) (A) (A) (A)
                 (A) (A) (A) (A) (A) (A) (A) (A) (A) (A) (A) (A)
                 (A) (A) (A) (A) (A) (A) (A) (A) (A) (A) (A) (A)
                 (A) (A) (A) (A) (A) (A) (A) (A) (A) (A) (A) (A)
                 (A) (A) (A) (A) (A) (A) (A) (A) (A) (A) (A) (A)
                 (A) (A) (A) (A) (A) (A) (A) (A) (A) (A) (A) (A)
                 (A) (A) (A) (A) (A) (A) (A) (A) (A) (A) (A) (A)
                 (A) (A) (A) (A) (A) (A) (A) (A) (A) (A) (A) (A)
                 (A) (A) (A) (A) (A) (A) (A) (A) (A) (A) (A) (A)
                 (A) (A) (A) (A) (A) (A) (A) (A) (A) (A) (A) (A)
                 (A) (A) (A) (A) (A) (A) (A) (A) (A) (A) (A) (A)
                 (A) (A) (A) (A) (A) (A) (A) (A) (A) (A) (A) (A)
                 (A) (A) (A) (A) (A) (A) (A) (A) (A) (A) (A) (A)
                 (A) (A) (A) (A) (A) (A) (A) (A) (A) (A) (A) (A)
                 (A) (A) (A) (A) (A) (A) (A) (A) (A) (A) (A) (A)
                 (A) (A) (A) (A) (A) (A) (A) (A) (A) (A) (A) (A)
                 (A) (A) (A) (A) (A) (A) (A) (A) (A) (A) (A) (A)
                 (A) (A) (A) (A) (A) (A) (A) (A) (A) (A) (A) (A)
                 (A) (A) (A) (A) (A) (A) (A) (A) (A) (A) (A) (A)
                 (A) (A) (A) (A) (A) (A) (A) (A) (A) (A) (A) (A)
                 (A) (A) (A) (A) (A) (A) (A) (A) (A) (A) (A) (A)
                 (A) (A) (A) (A) (A) (A) (A) (A) (A) (A) (A) (A)
                 (A) (A) (A) (A) (A) (A) (A) (A) (A) (A) (A) (A)
                 (A) (A) (A) (A) (A) (A) (A) (A) (A) (A) (A) (A)
                 (A) (A) (A) (A) (A) (A) (A) (A) (A) (A) (A) (A)
                 (A) (A) (A) (A) (A) (A) (A) (A) (A) (A) (A) (A)
                 (A) (A) (A) (A) (A) (A) (A) (A) (A) (A) (A) (A)
                 (A) (A) (A) (A) (A) (A) (A) (A) (A) (A) (A) (A)
                 (A) (A) (A) (A) (A) (A) (A) (A) (A) (A) (A) (A)
                 (A) (A) (A) (A) (A) (A) (A) (A) (A) (A) (A) (A)
                 (A) (A) (A) (A) (A) (A) (A) (A) (A) (A) (A) (A)
                 (A) (A) (A) (A) (A) (A) (A) (A) (A) (A) (A) (A)
                 (A) (A) (A) (A) (A) (A) (A) (A) (A) (A) (A) (A)
                 (A) (A) (A) (A) (A) (A) (A) (A) (A) (A) (A) (A)
                 (A) (A) (A) (A) (A) (A) (A) (A) (A) (A) (A) (A)
                 (A) (A) (A) (A) (A) (A) (A) (A) (A) (A) (A) (A)
                 (A) (A) (A) (A) (A) (A) (A) (A) (A) (A) (A) (A)
                 (A) (A) (A) (A) (A) (A) (A) (A) (A) (A) (A) (A)
                 (A) (A) (A) (A) (A) (A) (A) (A) (A) (A) (A) (A)
                 (A) (A) (A) (A) (A) (A) (A) (A) (A) (A) (A) (A)
                 (A) (A) (A) (A) (A) (A) (A) (A) (A) (A) (A) (A)
                 (A) (A) (A) (A) (A) (A) (A) (A) (A) (A) (A) (A)
                 (A) (A) (A) (A) (A) (A) (A) (A)
 The electronic state is 2-A.
 Alpha  occ. eigenvalues --  -10.20879 -10.20403 -10.20089 -10.19962 -10.19824
 Alpha  occ. eigenvalues --  -10.19820 -10.19546 -10.19313 -10.19299 -10.19277
 Alpha  occ. eigenvalues --  -10.19236 -10.19222 -10.19207 -10.19198 -10.19175
 Alpha  occ. eigenvalues --  -10.19145 -10.19137 -10.19013 -10.18398 -10.18283
 Alpha  occ. eigenvalues --  -10.18271 -10.18242 -10.18151 -10.18126 -10.18055
 Alpha  occ. eigenvalues --  -10.17857 -10.17618 -10.16784 -10.16716 -10.16635
 Alpha  occ. eigenvalues --   -0.92453  -0.89119  -0.87468  -0.85300  -0.84583
 Alpha  occ. eigenvalues --   -0.82299  -0.80762  -0.80118  -0.78794  -0.75933
 Alpha  occ. eigenvalues --   -0.75567  -0.74475  -0.72939  -0.71878  -0.70990
 Alpha  occ. eigenvalues --   -0.66362  -0.65991  -0.64131  -0.63075  -0.62069
 Alpha  occ. eigenvalues --   -0.60764  -0.60151  -0.58547  -0.56404  -0.55285
 Alpha  occ. eigenvalues --   -0.53221  -0.52165  -0.51142  -0.50533  -0.50293
 Alpha  occ. eigenvalues --   -0.50038  -0.47774  -0.46965  -0.46677  -0.45394
 Alpha  occ. eigenvalues --   -0.44470  -0.44239  -0.44149  -0.43659  -0.43163
 Alpha  occ. eigenvalues --   -0.42710  -0.42446  -0.41772  -0.41012  -0.40391
 Alpha  occ. eigenvalues --   -0.40254  -0.39921  -0.39337  -0.38532  -0.37767
 Alpha  occ. eigenvalues --   -0.36805  -0.36719  -0.35546  -0.34945  -0.34456
 Alpha  occ. eigenvalues --   -0.34094  -0.33737  -0.32876  -0.32602  -0.32134
 Alpha  occ. eigenvalues --   -0.30497  -0.29522  -0.28399  -0.26180  -0.24241
 Alpha  occ. eigenvalues --   -0.23576  -0.23314  -0.21015  -0.20245
 Alpha virt. eigenvalues --   -0.08877  -0.06129  -0.04887  -0.03236  -0.01180
 Alpha virt. eigenvalues --   -0.00540  -0.00094   0.00531   0.00684   0.01368
 Alpha virt. eigenvalues --    0.01537   0.01611   0.01667   0.02535   0.02890
 Alpha virt. eigenvalues --    0.02947   0.03528   0.04135   0.04375   0.04704
 Alpha virt. eigenvalues --    0.04739   0.04923   0.05189   0.06260   0.06598
 Alpha virt. eigenvalues --    0.06710   0.07074   0.07292   0.07593   0.07674
 Alpha virt. eigenvalues --    0.08442   0.08762   0.09215   0.09386   0.09692
 Alpha virt. eigenvalues --    0.10012   0.10253   0.10480   0.11135   0.11149
 Alpha virt. eigenvalues --    0.11456   0.11822   0.12102   0.12370   0.12787
 Alpha virt. eigenvalues --    0.13001   0.13314   0.13880   0.14184   0.14311
 Alpha virt. eigenvalues --    0.14825   0.15084   0.15195   0.15352   0.16017
 Alpha virt. eigenvalues --    0.16130   0.16301   0.16531   0.16742   0.16984
 Alpha virt. eigenvalues --    0.17116   0.17319   0.17441   0.17672   0.17897
 Alpha virt. eigenvalues --    0.18224   0.18284   0.18461   0.18589   0.18886
 Alpha virt. eigenvalues --    0.19013   0.19161   0.19490   0.19621   0.19786
 Alpha virt. eigenvalues --    0.19975   0.20340   0.20548   0.20731   0.21049
 Alpha virt. eigenvalues --    0.21296   0.21644   0.21754   0.21941   0.22429
 Alpha virt. eigenvalues --    0.22526   0.22770   0.22938   0.23128   0.23219
 Alpha virt. eigenvalues --    0.23475   0.23619   0.23751   0.23914   0.24131
 Alpha virt. eigenvalues --    0.24325   0.24571   0.24680   0.24940   0.25172
 Alpha virt. eigenvalues --    0.25659   0.25704   0.25914   0.26380   0.26775
 Alpha virt. eigenvalues --    0.26788   0.27444   0.27700   0.27702   0.27964
 Alpha virt. eigenvalues --    0.28171   0.28604   0.28776   0.28984   0.29235
 Alpha virt. eigenvalues --    0.29501   0.29826   0.30223   0.30500   0.30621
 Alpha virt. eigenvalues --    0.31556   0.31573   0.31835   0.32091   0.32207
 Alpha virt. eigenvalues --    0.32428   0.32718   0.32864   0.33607   0.33882
 Alpha virt. eigenvalues --    0.34089   0.34577   0.34925   0.34953   0.35184
 Alpha virt. eigenvalues --    0.36190   0.36368   0.36792   0.36982   0.37858
 Alpha virt. eigenvalues --    0.38208   0.38405   0.38817   0.39504   0.39679
 Alpha virt. eigenvalues --    0.40620   0.41078   0.41415   0.41953   0.42115
 Alpha virt. eigenvalues --    0.42600   0.43228   0.43498   0.44198   0.44886
 Alpha virt. eigenvalues --    0.45946   0.46289   0.46645   0.47542   0.48312
 Alpha virt. eigenvalues --    0.48958   0.49333   0.50015   0.50290   0.51389
 Alpha virt. eigenvalues --    0.51513   0.51930   0.52939   0.53247   0.53681
 Alpha virt. eigenvalues --    0.53842   0.54180   0.54835   0.55093   0.55373
 Alpha virt. eigenvalues --    0.55970   0.56260   0.56891   0.57147   0.57528
 Alpha virt. eigenvalues --    0.57754   0.58063   0.58550   0.58917   0.59069
 Alpha virt. eigenvalues --    0.59612   0.59630   0.60178   0.60448   0.61071
 Alpha virt. eigenvalues --    0.61828   0.62069   0.62334   0.63088   0.63406
 Alpha virt. eigenvalues --    0.63725   0.63967   0.64037   0.65101   0.65330
 Alpha virt. eigenvalues --    0.65532   0.65622   0.66435   0.67055   0.67441
 Alpha virt. eigenvalues --    0.68261   0.68283   0.68496   0.68682   0.69140
 Alpha virt. eigenvalues --    0.69427   0.69741   0.70180   0.70686   0.71090
 Alpha virt. eigenvalues --    0.71247   0.71643   0.72125   0.72389   0.72691
 Alpha virt. eigenvalues --    0.73107   0.73259   0.73621   0.74102   0.74432
 Alpha virt. eigenvalues --    0.74633   0.75053   0.75670   0.75831   0.76202
 Alpha virt. eigenvalues --    0.76295   0.76521   0.76866   0.77482   0.77772
 Alpha virt. eigenvalues --    0.77907   0.79449   0.80093   0.80498   0.81192
 Alpha virt. eigenvalues --    0.81981   0.82788   0.83040   0.84367   0.84597
 Alpha virt. eigenvalues --    0.85266   0.85459   0.86426   0.87275   0.87711
 Alpha virt. eigenvalues --    0.87882   0.88273   0.88878   0.89161   0.89866
 Alpha virt. eigenvalues --    0.90574   0.90972   0.91249   0.92221   0.92707
 Alpha virt. eigenvalues --    0.92992   0.93432   0.94494   0.94673   0.94711
 Alpha virt. eigenvalues --    0.95171   0.95591   0.95778   0.96105   0.96433
 Alpha virt. eigenvalues --    0.96577   0.97092   0.97250   0.97552   0.98279
 Alpha virt. eigenvalues --    0.98673   0.98748   0.99997   1.00657   1.01291
 Alpha virt. eigenvalues --    1.02191   1.02430   1.02895   1.03258   1.03407
 Alpha virt. eigenvalues --    1.03572   1.04962   1.05151   1.06675   1.07622
 Alpha virt. eigenvalues --    1.07986   1.08502   1.09271   1.09744   1.10394
 Alpha virt. eigenvalues --    1.10878   1.11633   1.12561   1.13165   1.13766
 Alpha virt. eigenvalues --    1.15071   1.16032   1.16157   1.16937   1.17340
 Alpha virt. eigenvalues --    1.19068   1.19872   1.20662   1.21284   1.22219
 Alpha virt. eigenvalues --    1.22775   1.24477   1.26060   1.27154   1.28156
 Alpha virt. eigenvalues --    1.28800   1.29216   1.32194   1.32495   1.34803
 Alpha virt. eigenvalues --    1.35687   1.36308   1.37385   1.38919   1.40031
 Alpha virt. eigenvalues --    1.41048   1.41826   1.42966   1.44260   1.44768
 Alpha virt. eigenvalues --    1.45282   1.46278   1.46646   1.47068   1.47830
 Alpha virt. eigenvalues --    1.48057   1.48483   1.48953   1.49199   1.50271
 Alpha virt. eigenvalues --    1.50551   1.50930   1.51780   1.52401   1.52775
 Alpha virt. eigenvalues --    1.53688   1.54772   1.55567   1.55752   1.56619
 Alpha virt. eigenvalues --    1.56804   1.57701   1.58835   1.59356   1.59775
 Alpha virt. eigenvalues --    1.60443   1.60859   1.61554   1.62012   1.62257
 Alpha virt. eigenvalues --    1.64276   1.64434   1.65335   1.65812   1.66727
 Alpha virt. eigenvalues --    1.67485   1.67708   1.68309   1.68538   1.69721
 Alpha virt. eigenvalues --    1.70271   1.71556   1.71905   1.73241   1.73493
 Alpha virt. eigenvalues --    1.73960   1.74336   1.75255   1.76057   1.77136
 Alpha virt. eigenvalues --    1.77331   1.77488   1.78882   1.79607   1.79954
 Alpha virt. eigenvalues --    1.80494   1.81482   1.82294   1.82762   1.83927
 Alpha virt. eigenvalues --    1.84590   1.85017   1.85405   1.85800   1.86013
 Alpha virt. eigenvalues --    1.86785   1.87320   1.87597   1.88189   1.88604
 Alpha virt. eigenvalues --    1.88892   1.89234   1.89797   1.90099   1.90629
 Alpha virt. eigenvalues --    1.91597   1.92306   1.92933   1.93983   1.94549
 Alpha virt. eigenvalues --    1.95431   1.95825   1.96509   1.97736   1.98095
 Alpha virt. eigenvalues --    1.98877   1.99777   2.00525   2.00617   2.01114
 Alpha virt. eigenvalues --    2.01777   2.02568   2.03007   2.04282   2.04977
[...]
 695,0.00000192,0.00000134,-0.00000876,0.00000164,0.00000669,-0.0000086
 2,0.00000579,0.00000137,0.00000120,0.00000190,-0.00000305,0.00001441,-
 0.00000411,0.00004015,-0.00004902,0.00002292,-0.00122729,0.00037348,0.
 00142375,-0.00088407,-0.00043630,0.00048087,0.11585073,-0.00123512,0.0
 0080479,0.00032369,0.00014023,0.00014567,0.00006792,-0.00004273,-0.000
 04448,-0.00001658,-0.00002368,-0.00038503,-0.00023143,-0.00014238,0.00
 002274,0.00003933,0.00004937,0.00000348,0.00003328,0.00002843,0.000027
 59,0.00002237,-0.00002143,-0.00002199,0.00000485,0.00001459,0.00000719
 ,0.00000672,0.00002943,-0.00000816,0.00000223,-0.00005107,-0.00002102,
 -0.00000470,0.00002033,-0.00002939,-0.00000682,-0.00123474,-0.00397411
 ,0.00165622,0.00006368,-0.00058687,-0.00018183,-0.00002707,0.00025907,
 -0.00008309,-0.00011523,-0.00002547,0.00000084,0.00004146,0.00003520,-
 0.00003815,-0.00002874,-0.00003471,0.00000632,-0.00030298,-0.00025098,
 0.00045111,-0.00020104,0.00009329,-0.00005294,0.00012180,-0.00004626,-
 0.00007292,-0.00006621,0.00010709,0.00002090,0.00003376,0.00101624,-0.
 00107045,0.00107688,0.00087381,-0.00074216,0.00028881,-0.00040408,0.00
 011700,0.00019655,0.00024435,0.00010836,0.00026669,-0.00121931,0.00128
 713,0.00113810,-0.00163855,-0.00768108,0.04055805,-0.06861009,-0.06279
 787,-0.01587312,0.00547708,0.02060013,-0.00002443,0.00001481,-0.000047
 37,-0.00002974,0.00000113,-0.00002665,-0.00000771,-0.00000192,-0.00000
 228,0.00000478,0.00000155,-0.00000463,0.00000102,-0.00000769,-0.000001
 18,0.00000159,0.00000275,0.00000087,0.00000083,0.00000146,-0.00000176,
 0.00001034,-0.00000045,0.00000631,-0.00000554,0.00001073,0.00000576,-0
 .00000135,0.00001932,-0.00000524,-0.00001441,-0.00001286,0.00000329,-0
 .00026879,0.00002940,0.00027431,-0.00087211,-0.00015429,-0.00001564,-0
 .03644340,0.07475801,0.00058332,-0.00037745,-0.00018065,-0.00001280,-0
 .00002607,0.00000216,0.00002983,0.00000494,-0.00001336,-0.00002601,0.0
 0017870,-0.00006217,0.00005148,0.00000908,0.00000599,0.00000162,-0.000
 00668,-0.00001264,-0.00003148,-0.00002955,-0.00000564,-0.00000196,0.00
 003383,0.00000145,0.00002144,-0.00000219,0.00001180,-0.00002123,0.0000
 1762,-0.00000029,0.00000088,-0.00000683,0.00000667,0.00000210,-0.00000
 153,0.00000041,-0.00024708,0.00206879,0.00080677,-0.00016699,0.0001585
 1,0.00012161,0.00000989,-0.00011038,0.00004698,0.00001417,0.00001955,-
 0.00001534,-0.00002433,0.00003811,0.00000792,0.00002824,0.00000011,0.0
 0000851,0.00001766,0.00004606,-0.00005547,-0.00001995,0.00013247,-0.00
 000512,0.00001210,-0.00003662,0.00004848,0.00000500,0.00004505,0.00000
 945,0.00016207,-0.00009617,-0.00027117,0.00069069,0.00033186,-0.000318
 14,0.00001855,0.00005668,0.00010618,0.00013249,0.00004120,-0.00001764,
 -0.00141827,-0.00327526,0.00099695,0.00276483,-0.00701445,-0.02397654,
 0.10203597,-0.05989504,-0.20903040,0.00625384,-0.00253741,-0.00844530,
 -0.00001231,-0.00000536,0.00011035,0.00001664,-0.00000622,0.00000268,0
 .00000519,-0.00000420,-0.00000309,0.00000486,-0.00000090,0.00000132,0.
 00000580,0.00000322,-0.00000162,0.00000195,0.00000457,-0.00000118,-0.0
 0000004,0.00000323,-0.00000347,0.00000641,0.00000333,-0.00001204,-0.00
 000470,0.00001164,-0.00000940,-0.00000355,0.00002407,-0.00000748,0.000
 01772,-0.00003278,0.00004451,-0.00102538,0.00036716,0.00098932,-0.0005
 5050,-0.00023104,-0.00116498,-0.10521493,0.06865613,0.23097768,-0.0017
 5524,0.00002791,0.00389114,0.00016446,0.00128612,0.00000473,-0.0009103
 5,-0.00000040,-0.00003205,0.00154734,0.00000231,-0.00095863,0.00001072
 ,-0.00052491,0.00002954,-0.00004660,0.00082268,0.00010198,-0.00000781,
 -0.00021906,0.00007670,-0.00031716,0.00015870,0.00000575,0.00009036,0.
 00002231,0.00003179,-0.00006499,0.00015552,0.00004532,0.00002138,-0.00
 012871,-0.00001134,0.00009610,0.00010331,0.00000031,0.00045430,0.01327
 140,0.02437026,0.00022318,-0.00107189,0.00122069,-0.00137048,-0.000257
 35,-0.00091139,0.00060320,0.00002623,-0.00046870,0.00003472,-0.0001891
 7,-0.00012866,0.00014669,-0.00002716,0.00002685,0.00031792,-0.00101002
 ,0.00075691,-0.00027734,0.00007622,0.00029521,0.00004751,-0.00013431,-
 0.00002724,0.00001799,0.00010192,0.00003428,-0.00904550,-0.00261601,-0
 .01654890,-0.00005204,0.00176800,-0.00036817,-0.00079725,0.00017185,0.
 00034102,-0.00006089,-0.00011394,-0.00015672,0.00050361,0.00033724,0.0
 0003112,-0.00083780,-0.00382702,0.00172827,-0.01145963,-0.01044750,-0.
 01420302,-0.06888494,-0.03636621,-0.07293453,-0.00045037,0.00011040,0.
 00027338,-0.00010623,0.00003985,-0.00006915,-0.00002798,0.00001247,-0.
 00000063,0.00000216,-0.00001208,0.00000611,-0.00000771,-0.00001047,0.0
 0000205,0.00000768,-0.00000853,0.00000463,0.00001410,-0.00000645,0.000
 01552,0.00001197,0.00000332,-0.00000539,-0.00000549,0.00000658,-0.0000
 1045,0.00002305,0.00003644,-0.00005871,-0.00019966,0.00014683,0.000034
 99,0.00001590,0.00001854,-0.00007177,-0.00049550,-0.00028789,-0.000981
 49,0.00003037,0.00003264,-0.00055178,0.09254466,-0.00187308,-0.0002743
 2,0.00188766,-0.00042660,0.00091161,-0.00005989,-0.00052533,-0.0002299
 4,-0.00012478,0.00063724,-0.00020333,0.00035471,-0.00019970,-0.0000943
 1,-0.00000038,0.00012933,0.00011152,-0.00010055,-0.00014286,-0.0001132
 6,-0.00006596,-0.00006376,0.00024684,0.00002249,0.00018818,-0.00024546
 ,-0.00006254,-0.00029333,0.00046390,0.00008145,0.00007971,-0.00010341,
 0.00000587,0.00001480,0.00014475,0.00001852,0.00131592,-0.00460302,-0.
 01128152,0.00044080,0.00032340,-0.00034335,0.00020158,-0.00013719,0.00
 044284,0.00057278,0.00056522,-0.00018159,-0.00025562,-0.00061530,-0.00
 024353,0.00050010,0.00004114,0.00001811,0.00037066,0.00034396,0.001064
 41,0.00028338,0.00053793,-0.00027147,-0.00009073,0.00008445,0.00006473
 ,-0.00000927,-0.00003392,-0.00000588,0.01164280,0.00615825,0.02186872,
 0.00064038,-0.00340191,0.00110092,0.00081939,0.00034630,-0.00090967,0.
 00028804,-0.00033712,0.00014529,-0.00035192,0.00032207,0.00027881,-0.0
 0106584,-0.00381508,0.00307973,-0.01365487,-0.01239275,-0.01965890,-0.
 03780711,-0.08536430,-0.08603493,0.00008998,-0.00001021,-0.00001816,0.
 00006795,-0.00003159,-0.00001420,0.00000378,-0.00001031,-0.00000014,0.
 00000744,0.00000068,0.00001485,0.00000560,-0.00000333,-0.00000684,0.00
 000734,0.00000490,-0.00000064,0.00001472,0.00000110,0.00003123,-0.0000
 1276,0.00001039,-0.00000387,-0.00000360,0.00002463,-0.00000260,-0.0000
 5691,-0.00000511,0.00008087,0.00022117,-0.00017077,0.00002517,0.000052
 20,0.00008642,-0.00010006,-0.00083727,-0.00022784,-0.00090118,0.000142
 76,0.00164770,-0.00024034,0.03864595,0.10030946,-0.00013855,-0.0020175
 4,0.00132318,0.00008851,0.00107720,-0.00034239,0.00006434,-0.00024778,
 0.00007909,0.00011812,0.00003000,0.00061498,-0.00030044,0.00005116,-0.
 00010226,-0.00039553,-0.00058281,-0.00014414,0.00006732,0.00014301,-0.
 00006295,0.00002364,-0.00000551,0.00001998,0.00017359,-0.00008960,-0.0
 0003670,-0.00010656,0.00033564,0.00006847,-0.00003070,0.00000517,-0.00
 001348,-0.00002921,-0.00001386,0.00001000,0.00380245,-0.01052376,-0.01
 644679,-0.00049048,0.00163788,-0.00097100,0.00129074,0.00005549,0.0002
 0263,0.00072608,0.00066783,-0.00049105,-0.00008427,-0.00017654,0.00001
 475,0.00029057,-0.00006082,0.00000294,-0.00063968,-0.00126073,0.001461
 26,-0.00060348,0.00021748,0.00016787,-0.00001421,-0.00007582,-0.000041
 78,0.00001825,-0.00002798,-0.00001270,-0.00961524,-0.00281026,-0.01463
 010,-0.00023148,0.00214040,-0.00085597,-0.00055454,-0.00031531,0.00026
 963,0.00015067,0.00013295,-0.00007249,0.00041667,0.00022802,-0.0001361
 8,0.00088228,0.00206425,0.00001508,0.00659105,0.00474629,0.00728543,-0
 .07627525,-0.08602736,-0.22272371,0.00023141,-0.00024559,-0.00070264,0
 .00011296,-0.00001221,0.00011750,0.00000728,-0.00000594,-0.00000248,-0
 .00000094,0.00001005,-0.00000012,0.00000153,-0.00000057,-0.00000283,-0
 .00000673,0.00000433,-0.00000632,-0.00000237,-0.00000198,0.00000627,0.
 00000797,-0.00000244,0.00000165,-0.00000154,-0.00001388,-0.00000793,0.
 00004099,0.00001797,-0.00004718,-0.00015424,0.00014312,0.00003830,-0.0
 0000866,-0.00007062,0.00001973,0.00029044,0.00026998,0.00057340,0.0001
 7101,0.00064051,0.00192666,0.07464154,0.09028395,0.24378684,-0.0006008
 0,0.00278841,0.00100499,0.00059193,0.00035865,-0.00009295,-0.00007572,
 0.00019541,0.00004870,-0.00026342,0.00068969,-0.00010430,0.00012295,0.
 00001013,-0.00004573,-0.00464854,0.00234759,0.00197731,0.00015966,-0.0
 0124351,0.00008364,-0.00047473,0.00001204,-0.00010612,-0.00007535,0.00
 017012,0.00002980,0.00009162,-0.00002521,-0.00004927,-0.00004341,0.000
 02739,-0.00000106,0.00004459,-0.00004096,-0.00000375,0.01035484,0.0099
 7141,-0.00224116,-0.15421237,-0.13167574,0.02374415,-0.01613117,-0.025
 24274,0.00411541,0.00007188,-0.00004231,0.00002072,0.00000914,0.000005
 90,-0.00000317,-0.00001701,0.00002435,0.00000066,0.00004127,-0.0000562
 2,-0.00000733,-0.00004955,-0.00002585,-0.00000409,0.00000845,0.0000175
 1,0.00000456,-0.00000744,0.00000383,-0.00000415,-0.00002397,-0.0000043
 0,-0.00012589,0.00000861,0.00009186,-0.00000346,-0.00000930,-0.0000638
 2,0.00000472,0.00002241,0.00002657,0.00001513,0.00002204,0.00000871,-0
 .00003030,0.00000774,0.00002507,-0.00005918,-0.00087560,0.00061620,0.0
 0053242,-0.00017314,-0.00056620,-0.00003229,0.00012498,0.00007988,0.00
 012009,0.00071413,0.00016924,-0.00098904,-0.00003824,0.00003650,0.0000
 2523,-0.00006609,-0.00012574,-0.00002282,-0.00000529,-0.00000033,0.000
 00053,0.00000971,-0.00000741,0.00001639,-0.00000002,-0.00000347,-0.000
 00124,-0.00000503,-0.00000095,0.00000444,0.00000268,-0.00000376,0.0000
 0023,0.00000221,-0.00000656,-0.00000151,0.00000376,0.00000328,-0.00000
 517,-0.00001152,-0.00000354,0.00002165,-0.00010157,-0.00006873,-0.0000
 0579,0.00012873,0.00006483,-0.00006396,0.00009815,-0.00010503,-0.00010
 176,0.16652064,0.00314109,-0.00485288,-0.00044309,-0.00099872,0.000187
 31,0.00052753,-0.00002836,-0.00056230,-0.00009360,0.00103142,0.0000902
 5,-0.00028525,-0.00014396,-0.00013374,-0.00000289,0.00186372,0.0009102
 0,0.00000877,0.00005154,0.00028040,0.00007184,0.00002997,0.00011204,-0
 .00000962,0.00009538,-0.00010206,0.00000410,-0.00012332,0.00009839,-0.
 00002087,0.00002975,-0.00006558,-0.00001154,-0.00002262,0.00003748,0.0
 0000083,-0.01729876,-0.01846828,0.00408230,-0.13271985,-0.23217083,0.0
 2803971,0.00550958,0.00649511,-0.00125030,-0.00019131,-0.00008080,-0.0
 0006038,0.00003547,0.00000239,-0.00001970,0.00001653,-0.00008745,-0.00
 001139,-0.00014313,-0.00002445,0.00004001,0.00002494,0.00008019,-0.000
 00784,0.00003075,-0.00005329,-0.00000514,-0.00002995,0.00004732,0.0000
 0558,0.00015763,0.00016260,-0.00013715,0.00000138,-0.00011151,-0.00001
 821,0.00007182,0.00003083,0.00003695,0.00003063,0.00002742,-0.00000856
 ,-0.00012038,-0.00020948,-0.00012757,0.00024689,0.00047870,0.00039730,
 0.00025589,-0.00039488,0.00046924,-0.00121706,0.00042770,0.00069067,-0
 .00025042,0.00010264,-0.00049290,-0.00014262,0.00103941,-0.00022338,-0
 .00001780,-0.00000196,0.00000262,0.00001381,0.00002921,-0.00000530,-0.
 00000946,-0.00000630,-0.00000082,-0.00002209,-0.00000962,0.00000537,0.
 00000278,-0.00001182,0.00000457,0.00001063,-0.00001372,0.00000079,0.00
 000541,0.00000406,0.00000296,0.00000230,0.00000883,0.00000632,0.000005
 27,-0.00000723,0.00001813,-0.00001412,0.00004930,-0.00003703,0.0000453
 7,-0.00000126,-0.00002784,-0.00023691,0.00044118,-0.00011656,-0.000023
 34,0.00003163,0.00000659,0.14088427,0.24546027,-0.00048565,-0.00098613
 ,0.00433727,0.00020273,0.00010915,0.00063251,-0.00022767,-0.00010805,-
 0.00003857,0.00081118,-0.00060964,-0.00087509,-0.00014828,-0.00023448,
 -0.00034441,0.00252436,0.00012503,0.00771979,-0.00019392,0.00034869,0.
 00051924,0.00017132,0.00022571,-0.00049477,0.00033000,-0.00012316,0.00
 010998,0.00005397,0.00022679,-0.00021683,-0.00009861,-0.00001467,-0.00
 000122,-0.00000982,-0.00012604,-0.00002519,-0.00171801,0.00321955,0.00
 089535,0.02620309,0.02400453,-0.03941756,0.00171173,0.00471229,0.00328
 160,-0.00006988,-0.00003503,0.00004140,-0.00000626,-0.00000768,0.00000
 362,0.00001022,-0.00004747,-0.00001578,-0.00002392,-0.00001258,-0.0000
 5380,-0.00004711,0.00005332,-0.00003290,-0.00001332,-0.00002714,-0.000
 01167,0.00001198,-0.00000016,-0.00000253,-0.00003392,0.00011553,0.0003
 7839,-0.00007550,0.00004718,-0.00002036,0.00002093,-0.00006439,-0.0000
 2177,0.00004095,0.00005272,0.00001832,-0.00010117,0.00002725,-0.000204
 54,0.00013276,0.00012443,0.00012170,0.00039387,-0.00071240,0.00008833,
 -0.00128977,0.00036546,-0.00167080,0.00035974,0.00007508,0.00079695,-0
 .00102631,-0.00032978,-0.00517343,0.00000496,-0.00001489,0.00012020,0.
 00001842,0.00004953,-0.00006677,-0.00000356,-0.00000541,-0.00000201,-0
 .00000415,-0.00001156,0.00008178,0.00000350,-0.00000437,-0.00000236,0.
 00000169,-0.00000129,0.00000352,-0.00000021,0.00000277,0.00000310,-0.0
 0000116,0.00000223,0.00000410,-0.00001009,0.00000371,0.00000877,-0.000
 01864,0.00002612,-0.00003929,-0.00008442,-0.00004825,0.00003621,-0.000
 21253,0.00015029,-0.00007542,0.00031791,-0.00021924,-0.00011319,-0.028
 76830,-0.03007742,0.03051525,0.00031810,-0.00011970,-0.00004307,0.0000
 1347,-0.00000596,0.00000426,0.00004495,0.00002642,-0.00000104,-0.00000
 100,0.00006452,-0.00002137,0.00004022,0.00001777,-0.00002294,0.0000739
 4,0.00007226,-0.00006446,-0.00010451,-0.00002710,-0.00000052,0.0000062
 4,0.00008826,0.00000938,0.00002226,-0.00006901,-0.00001470,-0.00007031
 ,0.00002195,0.00000548,0.00006588,-0.00001387,-0.00000663,-0.00002545,
 0.00005819,0.00001830,0.00054907,0.00043815,0.00039482,-0.00092035,-0.
 00000970,0.00085101,-0.00028901,-0.00009742,-0.00001995,0.00007161,0.0
 0013591,0.00001598,-0.00008123,0.00002558,0.00002184,0.00006260,-0.000
 01948,0.00000279,0.00095562,-0.00051775,0.00039699,-0.00006288,-0.0001
 6669,-0.00014785,0.00010481,-0.00013222,-0.00001241,0.00005365,0.00003
 145,0.00001770,-0.00314804,-0.00275991,0.00092520,-0.00034845,-0.00085
 208,0.00051397,0.00003544,0.00031013,-0.00001698,-0.00005170,-0.000170
 22,0.00000871,-0.00285395,-0.00223049,-0.00288204,-0.01215881,0.018333
 21,-0.00424999,-0.12938955,0.11345080,-0.04150392,0.01187163,-0.015713
 86,0.00613055,0.00000181,-0.00004500,0.00008477,0.00001671,0.,0.000085
 91,0.00000330,-0.00000641,-0.00000030,0.00000602,0.00000231,0.00000068
 ,0.00000573,0.00000388,-0.00000020,0.00000081,0.00000357,-0.00000028,-
 0.00000304,0.00000120,-0.00000245,0.00000164,-0.00000057,-0.00000316,-
 0.00001134,-0.00003711,-0.00000509,-0.00000198,0.00001602,0.00002161,0
 .00004926,-0.00004377,0.00000897,0.00031110,0.00058059,-0.00121082,0.0
 0087170,-0.00023333,0.00013309,-0.00949258,0.01284883,-0.00349748,0.00
 015350,0.00039165,-0.00042351,-0.00125285,0.00015999,0.00134686,0.1445
 5601,-0.00009158,-0.00017352,-0.00013622,-0.00002502,-0.00001680,0.000
 00222,0.00003513,0.00006959,0.00000968,0.00019024,0.00002528,-0.000026
 11,-0.00005733,-0.00010627,0.00001827,0.00016686,0.00017441,0.00011322
 ,-0.00014013,0.00003803,0.00000536,0.00003384,0.00012286,0.00000046,0.
 00005311,-0.00010048,-0.00000206,-0.00006654,-0.00000608,0.00001128,0.
 00009763,0.00003761,0.00000040,-0.00007435,0.00005791,0.00000311,0.001
 41191,0.00034219,-0.00035589,0.00062593,-0.00010820,-0.00090054,-0.000
 37533,0.00025810,-0.00012215,0.00010589,0.00009884,0.00001798,-0.00009
 079,0.00001497,0.00002693,0.00003559,-0.00000481,-0.00000753,0.0011999
 3,-0.00020086,0.00059416,-0.00010221,-0.00025803,-0.00009937,0.0000869
 6,-0.00002688,0.00000724,0.00004744,-0.00004854,0.00000285,-0.00406194
 ,-0.00241021,0.00005688,-0.00042880,-0.00008031,-0.00008379,-0.0000207
 9,0.00017168,-0.00003789,-0.00003321,-0.00017068,0.00002584,-0.0011214
 1,-0.00013354,-0.00181240,-0.00712618,0.00981331,-0.00276780,0.1136853
 8,-0.20797932,0.05654894,0.01248928,-0.01852520,0.00707906,0.00003647,
 -0.00001045,0.00009689,-0.00002259,0.00000175,-0.00003676,-0.00000376,
 -0.00000172,0.00000884,0.00000238,0.00001016,0.00000075,-0.00000044,0.
 00000664,0.00000057,-0.00000560,-0.00000240,-0.00000044,-0.00000785,-0
 .00000464,0.00000022,-0.00001104,-0.00000812,-0.00000156,-0.00000592,-
 0.00005314,-0.00001557,0.00000813,-0.00000880,0.00001253,0.00005719,-0
 .00003113,0.00000932,0.00003101,0.00018161,-0.00055902,0.00033861,0.00
 086987,0.00054574,0.00636368,-0.00856791,0.00179707,-0.00010233,-0.000
 29444,-0.00032036,0.00068353,0.00073455,-0.00024612,-0.12381097,0.2263
 0309,0.00000868,-0.00001813,0.00004168,0.00000412,0.00005511,0.0000225
 3,-0.00006321,-0.00009560,-0.00000190,-0.00009641,-0.00005912,0.000027
 24,0.00003042,0.00006177,-0.00003095,-0.00021956,-0.00006096,-0.000032
 53,0.00014405,-0.00005495,-0.00000856,-0.00004966,-0.00012330,-0.00001
 664,-0.00006996,0.00008716,0.00003088,0.00004721,0.00000512,-0.0000040
 0,-0.00007719,-0.00003008,-0.00000176,0.00005738,-0.00004379,-0.000011
 33,-0.00058065,-0.00003226,0.00048689,0.00056569,0.00112639,-0.0001362
 5,0.00013617,-0.00038074,0.00006044,-0.00010183,-0.00007325,-0.0000576
 3,0.00003175,0.00001264,-0.00001864,-0.00002328,-0.00000457,0.00000240
 ,-0.00066138,0.00018155,-0.00009079,0.00013878,0.00022332,0.00005694,-
 0.00003128,-0.00001168,-0.00003391,-0.00001096,0.00005296,0.00001009,0
 .00166589,0.00149953,-0.00001996,0.00007619,-0.00000573,0.00052989,0.0
 0001480,0.00007737,0.00000257,0.00000830,0.00003284,-0.00000233,-0.003
 03088,-0.00308729,-0.00152888,-0.01375661,0.02007141,-0.00830219,-0.03
 929365,0.05368783,-0.06397638,-0.00530087,0.00829678,-0.00415447,-0.00
 004138,0.00001107,-0.00008670,0.00001536,0.00001599,0.00002597,-0.0000
 0218,0.00000991,-0.00000080,-0.00001053,-0.00001270,0.00000280,-0.0000
 0600,-0.00000744,0.00000029,0.00000136,-0.00000388,0.00000112,0.000004
 18,-0.00000303,0.00000105,0.00000607,-0.00000106,0.00000337,0.00000640
 ,0.00002765,0.00000415,-0.00000715,0.00001226,0.00000262,0.00000780,-0
 .00002136,-0.00001186,-0.00013258,0.00073417,-0.00109184,0.00099923,-0
 .00034070,0.00087103,0.01513131,-0.02140110,0.00745471,0.00021070,-0.0
 0001811,-0.00003924,0.00110306,-0.00092780,-0.00079709,0.04315229,-0.0
 5946422,0.07081800\\-0.00000416,-0.00000442,-0.00000147,0.00000026,0.0
 0000161,0.00000052,-0.00000047,-0.00000028,-0.00000227,-0.00000025,-0.
 00000065,-0.00000170,-0.00000010,-0.00000062,-0.00000200,-0.00000169,-
 0.00000237,-0.00000157,0.00000026,0.00000067,-0.00000289,-0.00000117,-
 0.00000187,-0.00000381,0.00000063,-0.00000077,-0.00000302,0.00000083,0
 .00000048,-0.00000163,0.00000062,-0.00000106,-0.00000273,-0.00000035,-
 0.00000030,-0.00000357,0.00000866,0.00000168,0.00000989,-0.00000325,0.
 00000315,-0.00000087,0.00000140,0.00000117,-0.00000179,0.00000040,-0.0
 0000019,-0.00000009,0.00000113,0.00000017,0.00000008,0.00000035,-0.000
 00048,-0.00000178,-0.00000076,-0.00000005,0.00000169,-0.00000028,0.000
 00009,0.00000195,0.00000097,0.00000051,0.00000132,0.00000054,0.0000001
 2,0.00000077,0.00000079,0.00000060,0.00000153,-0.00000019,0.00000084,0
 .00000251,-0.00000033,0.00000073,0.00000352,0.00000008,0.00000051,0.00
 000272,-0.00000062,0.00000047,0.00000323,-0.00000033,0.00000065,0.0000
 0256,0.00000022,0.00000041,0.00000155,-0.00000062,-0.00000033,-0.00000
 109,-0.00000459,-0.00000073,-0.00000536,-0.00000078,-0.00000035,-0.000
 00121,-0.00000067,-0.00000066,-0.00000350,-0.00000040,-0.00000098,-0.0
 0000443,0.00000024,-0.00000081,-0.00000444,0.00000078,-0.00000067,-0.0
 0000332,0.00000095,-0.00000022,-0.00000124,0.00000085,0.00000007,0.000
 00044,0.00000054,0.00000050,0.00000214,-0.00000022,0.00000066,0.000003
 48,-0.00000089,0.00000073,0.00000413,-0.00000127,0.00000059,0.00000366
 ,-0.00000042,0.00000056,0.00000298,0.00000139,0.00000041,0.00000240,0.
 00000143,0.00000012,0.00000076,-0.00000030,0.00000002,0.00000052,0.000
 00081,0.00000025,0.00000146\\\@


 You never know when you're making a memory.
                        -- Rickie Lee Jones
 Job cpu time:       2 days 15 hours 22 minutes 30.4 seconds.
 Elapsed time:       0 days  3 hours 10 minutes 39.2 seconds.
 File lengths (MBytes):  RWF=   4602 Int=      0 D2E=      0 Chk=     65 Scr=      1
 Normal termination of Gaussian 16 at Thu Aug  1 03:54:19 2019.
