 Entering Gaussian System, Link 0=/share/apps/gaussian16/g16/g16
 Initial command:
 /share/apps/gaussian16/g16/l1.exe "/home/amen01//scratch/897/Gau-47511.inp" -scrdir="/home/amen01//scratch/897/"
 Entering Link 1 = /share/apps/gaussian16/g16/l1.exe PID=     47512.
  
 Copyright (c) 1988-2017, Gaussian, Inc.  All Rights Reserved.
  
 This is part of the Gaussian(R) 16 program.  It is based on
 the Gaussian(R) 09 system (copyright 2009, Gaussian, Inc.),
 the Gaussian(R) 03 system (copyright 2003, Gaussian, Inc.),
 the Gaussian(R) 98 system (copyright 1998, Gaussian, Inc.),
 the Gaussian(R) 94 system (copyright 1995, Gaussian, Inc.),
 the Gaussian 92(TM) system (copyright 1992, Gaussian, Inc.),
 the Gaussian 90(TM) system (copyright 1990, Gaussian, Inc.),
 the Gaussian 88(TM) system (copyright 1988, Gaussian, Inc.),
 the Gaussian 86(TM) system (copyright 1986, Carnegie Mellon
 University), and the Gaussian 82(TM) system (copyright 1983,
 Carnegie Mellon University). Gaussian is a federally registered
 trademark of Gaussian, Inc.
  
 This software contains proprietary and confidential information,
 including trade secrets, belonging to Gaussian, Inc.
  
 This software is provided under written license and may be
 used, copied, transmitted, or stored only in accord with that
 written license.
  
 The following legend is applicable only to US Government
 contracts under FAR:
  
                    RESTRICTED RIGHTS LEGEND
  
 Use, reproduction and disclosure by the US Government is
 subject to restrictions as set forth in subparagraphs (a)
 and (c) of the Commercial Computer Software - Restricted
 Rights clause in FAR 52.227-19.
  
 Gaussian, Inc.
 340 Quinnipiac St., Bldg. 40, Wallingford CT 06492
  
  
 ---------------------------------------------------------------
 Warning -- This program may not be used in any manner that
 competes with the business of Gaussian, Inc. or will provide
 assistance to any competitor of Gaussian, Inc.  The licensee
 of this program is prohibited from giving any competitor of
 Gaussian, Inc. access to this program.  By using this program,
 the user acknowledges that Gaussian, Inc. is engaged in the
 business of creating and licensing software in the field of
 computational chemistry and represents and warrants to the
 licensee that it is not a competitor of Gaussian, Inc. and that
 it will not use this program in any manner prohibited above.
 ---------------------------------------------------------------
  

 Cite this work as:
 Gaussian 16, Revision B.01,
 M. J. Frisch, G. W. Trucks, H. B. Schlegel, G. E. Scuseria, 
 M. A. Robb, J. R. Cheeseman, G. Scalmani, V. Barone, 
 G. A. Petersson, H. Nakatsuji, X. Li, M. Caricato, A. V. Marenich, 
 J. Bloino, B. G. Janesko, R. Gomperts, B. Mennucci, H. P. Hratchian, 
 J. V. Ortiz, A. F. Izmaylov, J. L. Sonnenberg, D. Williams-Young, 
 F. Ding, F. Lipparini, F. Egidi, J. Goings, B. Peng, A. Petrone, 
 T. Henderson, D. Ranasinghe, V. G. Zakrzewski, J. Gao, N. Rega, 
 G. Zheng, W. Liang, M. Hada, M. Ehara, K. Toyota, R. Fukuda, 
 J. Hasegawa, M. Ishida, T. Nakajima, Y. Honda, O. Kitao, H. Nakai, 
 T. Vreven, K. Throssell, J. A. Montgomery, Jr., J. E. Peralta, 
 F. Ogliaro, M. J. Bearpark, J. J. Heyd, E. N. Brothers, K. N. Kudin, 
 V. N. Staroverov, T. A. Keith, R. Kobayashi, J. Normand, 
 K. Raghavachari, A. P. Rendell, J. C. Burant, S. S. Iyengar, 
 J. Tomasi, M. Cossi, J. M. Millam, M. Klene, C. Adamo, R. Cammi, 
 J. W. Ochterski, R. L. Martin, K. Morokuma, O. Farkas, 
 J. B. Foresman, and D. J. Fox, Gaussian, Inc., Wallingford CT, 2016.
 
 ******************************************
 Gaussian 16:  ES64L-G16RevB.01 20-Dec-2017
                 8-Aug-2019 
 ******************************************
 %nprocshared=20
 Will use up to   20 processors via shared memory.
 %mem=160GB
 %chk=7-memb2-carbTSguess-3a.chk
 ---------------------------------------------------------------
 # opt=(ts,calcfc,noeigen) freq b3lyp/6-311+g(d,p) int=grid=fine
 ---------------------------------------------------------------
 1/5=1,10=4,11=1,18=20,26=3,38=1/1,3;
 2/9=110,12=2,17=6,18=5,40=1/2;
 3/5=4,6=6,7=111,11=2,25=1,30=1,71=2,74=-5,75=-4,140=1/1,2,3;
 4//1;
 5/5=2,38=5/2;
 8/6=4,10=90,11=11/1;
 11/6=1,8=1,9=11,15=111,16=1/1,2,10;
 10/6=1,13=1/2;
 6/7=2,8=2,9=2,10=2,28=1/1;
 7/10=1,18=20,25=1/1,2,3,16;
 1/5=1,10=4,11=1,18=20,26=3/3(2);
 2/9=110/2;
 99//99;
 2/9=110/2;
 3/5=4,6=6,7=111,11=2,25=1,30=1,71=1,74=-5,75=-4/1,2,3;
 4/5=5,16=3,69=1/1;
 5/5=2,38=5/2;
 7//1,2,3,16;
 1/5=1,11=1,18=20,26=3/3(-5);
 2/9=110/2;
 6/7=2,8=2,9=2,10=2,19=2,28=1/1;
 99/9=1/99;
 ----------------------
 7-memb2-carbTSguess-3a
 ----------------------
 Symbolic Z-matrix:
 Charge =  0 Multiplicity = 1
 C                     0.70209  -0.894    -0.02018 
 C                     0.53225   0.56146   0.04012 
 C                     1.82773   1.09745  -0.01442 
 C                     2.10135  -1.13969  -0.14884 
 C                     2.77408   0.06756  -0.13832 
 C                     2.77327  -2.37521  -0.12663 
 C                     4.22963  -2.24501  -0.16163 
 C                     4.87161  -1.02045  -0.16329 
 C                     4.14809   0.2329   -0.12832 
 C                     2.20494   2.43586   0.07297 
 C                     3.64119   2.65231   0.0504 
 C                     4.55664   1.61094  -0.03742 
 C                    -0.15729  -1.91954   0.12101 
 C                     0.43859  -3.32113   0.06112 
 C                     1.93923  -3.47028  -0.01514 
 C                    -0.56994   1.39967   0.10033 
 C                    -0.22481   2.82444   0.15335 
 C                     1.10995   3.30634   0.16831 
 C                    -1.96688   0.93095   0.0337 
 C                    -2.93629   1.98533  -0.07122 
 C                    -2.57145   3.3602    0.01866 
 C                    -1.28545   3.77363   0.14946 
 C                    -2.43009  -0.44717   0.02978 
 C                    -3.83918  -0.66989  -0.16978 
 C                    -4.73641   0.4213   -0.35409 
 C                    -4.30678   1.70229  -0.27439 
 C                    -4.44158  -1.95228  -0.17227 
 C                    -3.70643  -3.10157   0.06835 
 C                    -2.36283  -3.01244   0.30647 
 C                    -1.63111  -1.72807   0.38342 
 H                     0.09109  -3.91181   0.92207 
 H                     2.32684  -4.48099   0.06056 
 H                     4.83168  -3.14732  -0.17368 
 H                     5.95716  -1.01037  -0.17617 
 H                     5.61399   1.85709  -0.02988 
 H                     4.01925   3.66711   0.1159 
 H                     1.25173   4.38079   0.22857 
 H                    -1.04627   4.82932   0.21223 
 H                    -3.37305   4.08959  -0.02888 
 H                    -5.00112   2.52997  -0.36981 
 H                    -5.78423   0.19597  -0.51657 
 H                    -5.50632  -2.01184  -0.36181 
 H                    -4.1876   -4.07354   0.0576 
 H                    -1.81393  -3.91582   0.51183 
 H                    -0.05431  -3.83653  -0.79355 
 H                    -1.42964  -1.55702   1.77261 
 
 Add virtual bond connecting atoms H46        and C30        Dist= 2.67D+00.

 GradGradGradGradGradGradGradGradGradGradGradGradGradGradGradGradGradGrad
 Berny optimization.
 Initialization pass.
                           ----------------------------
                           !    Initial Parameters    !
                           ! (Angstroms and Degrees)  !
 --------------------------                            --------------------------
 ! Name  Definition              Value          Derivative Info.                !
 --------------------------------------------------------------------------------
 ! R1    R(1,2)                  1.4666         calculate D2E/DX2 analytically  !
 ! R2    R(1,4)                  1.4265         calculate D2E/DX2 analytically  !
 ! R3    R(1,13)                 1.3454         calculate D2E/DX2 analytically  !
 ! R4    R(2,3)                  1.403          calculate D2E/DX2 analytically  !
 ! R5    R(2,16)                 1.386          calculate D2E/DX2 analytically  !
 ! R6    R(3,5)                  1.4041         calculate D2E/DX2 analytically  !
 ! R7    R(3,10)                 1.3933         calculate D2E/DX2 analytically  !
 ! R8    R(4,5)                  1.3821         calculate D2E/DX2 analytically  !
 ! R9    R(4,6)                  1.4066         calculate D2E/DX2 analytically  !
 ! R10   R(5,9)                  1.384          calculate D2E/DX2 analytically  !
 ! R11   R(6,7)                  1.4626         calculate D2E/DX2 analytically  !
 ! R12   R(6,15)                 1.381          calculate D2E/DX2 analytically  !
 ! R13   R(7,8)                  1.3826         calculate D2E/DX2 analytically  !
 ! R14   R(7,33)                 1.0848         calculate D2E/DX2 analytically  !
 ! R15   R(8,9)                  1.4476         calculate D2E/DX2 analytically  !
 ! R16   R(8,34)                 1.0857         calculate D2E/DX2 analytically  !
 ! R17   R(9,12)                 1.4402         calculate D2E/DX2 analytically  !
 ! R18   R(10,11)                1.4526         calculate D2E/DX2 analytically  !
 ! R19   R(10,18)                1.4021         calculate D2E/DX2 analytically  !
 ! R20   R(11,12)                1.3893         calculate D2E/DX2 analytically  !
 ! R21   R(11,36)                1.0849         calculate D2E/DX2 analytically  !
 ! R22   R(12,35)                1.0856         calculate D2E/DX2 analytically  !
 ! R23   R(13,14)                1.5242         calculate D2E/DX2 analytically  !
 ! R24   R(13,30)                1.5092         calculate D2E/DX2 analytically  !
 ! R25   R(14,15)                1.51           calculate D2E/DX2 analytically  !
 ! R26   R(14,31)                1.1004         calculate D2E/DX2 analytically  !
 ! R27   R(14,45)                1.1131         calculate D2E/DX2 analytically  !
 ! R28   R(15,32)                1.0851         calculate D2E/DX2 analytically  !
 ! R29   R(16,17)                1.4669         calculate D2E/DX2 analytically  !
 ! R30   R(16,19)                1.475          calculate D2E/DX2 analytically  !
 ! R31   R(17,18)                1.4192         calculate D2E/DX2 analytically  !
 ! R32   R(17,22)                1.4234         calculate D2E/DX2 analytically  !
 ! R33   R(18,37)                1.0854         calculate D2E/DX2 analytically  !
 ! R34   R(19,20)                1.4361         calculate D2E/DX2 analytically  !
 ! R35   R(19,23)                1.4539         calculate D2E/DX2 analytically  !
 ! R36   R(20,21)                1.4253         calculate D2E/DX2 analytically  !
 ! R37   R(20,26)                1.4141         calculate D2E/DX2 analytically  !
 ! R38   R(21,22)                1.3571         calculate D2E/DX2 analytically  !
 ! R39   R(21,39)                1.0848         calculate D2E/DX2 analytically  !
 ! R40   R(22,38)                1.0843         calculate D2E/DX2 analytically  !
 ! R41   R(23,24)                1.4405         calculate D2E/DX2 analytically  !
 ! R42   R(23,30)                1.5505         calculate D2E/DX2 analytically  !
 ! R43   R(24,25)                1.4247         calculate D2E/DX2 analytically  !
 ! R44   R(24,27)                1.4168         calculate D2E/DX2 analytically  !
 ! R45   R(25,26)                1.3535         calculate D2E/DX2 analytically  !
 ! R46   R(25,41)                1.084          calculate D2E/DX2 analytically  !
 ! R47   R(26,40)                1.0846         calculate D2E/DX2 analytically  !
 ! R48   R(27,28)                1.3854         calculate D2E/DX2 analytically  !
 ! R49   R(27,42)                1.0831         calculate D2E/DX2 analytically  !
 ! R50   R(28,29)                1.3674         calculate D2E/DX2 analytically  !
 ! R51   R(28,43)                1.0846         calculate D2E/DX2 analytically  !
 ! R52   R(29,30)                1.4802         calculate D2E/DX2 analytically  !
 ! R53   R(29,44)                1.0768         calculate D2E/DX2 analytically  !
 ! R54   R(30,46)                1.4141         calculate D2E/DX2 analytically  !
 ! A1    A(2,1,4)              106.7529         calculate D2E/DX2 analytically  !
 ! A2    A(2,1,13)             132.7007         calculate D2E/DX2 analytically  !
 ! A3    A(4,1,13)             120.3131         calculate D2E/DX2 analytically  !
 ! A4    A(1,2,3)              105.6997         calculate D2E/DX2 analytically  !
 ! A5    A(1,2,16)             133.9529         calculate D2E/DX2 analytically  !
 ! A6    A(3,2,16)             120.3249         calculate D2E/DX2 analytically  !
 ! A7    A(2,3,5)              110.2143         calculate D2E/DX2 analytically  !
 ! A8    A(2,3,10)             127.9169         calculate D2E/DX2 analytically  !
 ! A9    A(5,3,10)             121.8461         calculate D2E/DX2 analytically  !
 ! A10   A(1,4,5)              109.0461         calculate D2E/DX2 analytically  !
 ! A11   A(1,4,6)              128.2029         calculate D2E/DX2 analytically  !
 ! A12   A(5,4,6)              122.3189         calculate D2E/DX2 analytically  !
 ! A13   A(3,5,4)              108.2581         calculate D2E/DX2 analytically  !
 ! A14   A(3,5,9)              125.5116         calculate D2E/DX2 analytically  !
 ! A15   A(4,5,9)              125.9915         calculate D2E/DX2 analytically  !
 ! A16   A(4,6,7)              113.3962         calculate D2E/DX2 analytically  !
 ! A17   A(4,6,15)             114.16           calculate D2E/DX2 analytically  !
 ! A18   A(7,6,15)             132.3671         calculate D2E/DX2 analytically  !
 ! A19   A(6,7,8)              122.7663         calculate D2E/DX2 analytically  !
 ! A20   A(6,7,33)             118.6099         calculate D2E/DX2 analytically  !
 ! A21   A(8,7,33)             118.6188         calculate D2E/DX2 analytically  !
 ! A22   A(7,8,9)              122.3249         calculate D2E/DX2 analytically  !
 ! A23   A(7,8,34)             118.1968         calculate D2E/DX2 analytically  !
 ! A24   A(9,8,34)             119.4715         calculate D2E/DX2 analytically  !
 ! A25   A(5,9,8)              113.1164         calculate D2E/DX2 analytically  !
 ! A26   A(5,9,12)             113.3536         calculate D2E/DX2 analytically  !
 ! A27   A(8,9,12)             133.4861         calculate D2E/DX2 analytically  !
 ! A28   A(3,10,11)            114.1951         calculate D2E/DX2 analytically  !
 ! A29   A(3,10,18)            112.9061         calculate D2E/DX2 analytically  !
 ! A30   A(11,10,18)           132.8986         calculate D2E/DX2 analytically  !
 ! A31   A(10,11,12)           122.7362         calculate D2E/DX2 analytically  !
 ! A32   A(10,11,36)           118.8802         calculate D2E/DX2 analytically  !
 ! A33   A(12,11,36)           118.38           calculate D2E/DX2 analytically  !
 ! A34   A(9,12,11)            122.2947         calculate D2E/DX2 analytically  !
 ! A35   A(9,12,35)            119.5822         calculate D2E/DX2 analytically  !
 ! A36   A(11,12,35)           118.1218         calculate D2E/DX2 analytically  !
 ! A37   A(1,13,14)            116.5575         calculate D2E/DX2 analytically  !
 ! A38   A(1,13,30)            123.0457         calculate D2E/DX2 analytically  !
 ! A39   A(14,13,30)           120.3501         calculate D2E/DX2 analytically  !
 ! A40   A(13,14,15)           118.7738         calculate D2E/DX2 analytically  !
 ! A41   A(13,14,31)           109.8411         calculate D2E/DX2 analytically  !
 ! A42   A(13,14,45)           106.4296         calculate D2E/DX2 analytically  !
 ! A43   A(15,14,31)           107.4773         calculate D2E/DX2 analytically  !
 ! A44   A(15,14,45)           110.8279         calculate D2E/DX2 analytically  !
 ! A45   A(31,14,45)           102.2607         calculate D2E/DX2 analytically  !
 ! A46   A(6,15,14)            121.7324         calculate D2E/DX2 analytically  !
 ! A47   A(6,15,32)            121.9021         calculate D2E/DX2 analytically  !
 ! A48   A(14,15,32)           116.3257         calculate D2E/DX2 analytically  !
 ! A49   A(2,16,17)            113.6948         calculate D2E/DX2 analytically  !
 ! A50   A(2,16,19)            123.9862         calculate D2E/DX2 analytically  !
 ! A51   A(17,16,19)           122.2152         calculate D2E/DX2 analytically  !
 ! A52   A(16,17,18)           123.4677         calculate D2E/DX2 analytically  !
 ! A53   A(16,17,22)           118.1829         calculate D2E/DX2 analytically  !
 ! A54   A(18,17,22)           118.3222         calculate D2E/DX2 analytically  !
 ! A55   A(10,18,17)           121.5327         calculate D2E/DX2 analytically  !
 ! A56   A(10,18,37)           121.0865         calculate D2E/DX2 analytically  !
 ! A57   A(17,18,37)           117.3592         calculate D2E/DX2 analytically  !
 ! A58   A(16,19,20)           114.1605         calculate D2E/DX2 analytically  !
 ! A59   A(16,19,23)           127.0911         calculate D2E/DX2 analytically  !
 ! A60   A(20,19,23)           118.7283         calculate D2E/DX2 analytically  !
 ! A61   A(19,20,21)           122.06           calculate D2E/DX2 analytically  !
 ! A62   A(19,20,26)           121.1815         calculate D2E/DX2 analytically  !
 ! A63   A(21,20,26)           116.7583         calculate D2E/DX2 analytically  !
 ! A64   A(20,21,22)           122.8537         calculate D2E/DX2 analytically  !
 ! A65   A(20,21,39)           117.1716         calculate D2E/DX2 analytically  !
 ! A66   A(22,21,39)           119.9733         calculate D2E/DX2 analytically  !
 ! A67   A(17,22,21)           120.2133         calculate D2E/DX2 analytically  !
 ! A68   A(17,22,38)           118.9967         calculate D2E/DX2 analytically  !
 ! A69   A(21,22,38)           120.7447         calculate D2E/DX2 analytically  !
 ! A70   A(19,23,24)           117.2962         calculate D2E/DX2 analytically  !
 ! A71   A(19,23,30)           128.1896         calculate D2E/DX2 analytically  !
 ! A72   A(24,23,30)           114.0753         calculate D2E/DX2 analytically  !
 ! A73   A(23,24,25)           121.035          calculate D2E/DX2 analytically  !
 ! A74   A(23,24,27)           123.7866         calculate D2E/DX2 analytically  !
 ! A75   A(25,24,27)           115.1663         calculate D2E/DX2 analytically  !
 ! A76   A(24,25,26)           121.1566         calculate D2E/DX2 analytically  !
 ! A77   A(24,25,41)           117.9647         calculate D2E/DX2 analytically  !
 ! A78   A(26,25,41)           120.8236         calculate D2E/DX2 analytically  !
 ! A79   A(20,26,25)           120.3676         calculate D2E/DX2 analytically  !
 ! A80   A(20,26,40)           118.7089         calculate D2E/DX2 analytically  !
 ! A81   A(25,26,40)           120.9227         calculate D2E/DX2 analytically  !
 ! A82   A(24,27,28)           121.6647         calculate D2E/DX2 analytically  !
 ! A83   A(24,27,42)           117.9074         calculate D2E/DX2 analytically  !
 ! A84   A(28,27,42)           120.4262         calculate D2E/DX2 analytically  !
 ! A85   A(27,28,29)           119.8396         calculate D2E/DX2 analytically  !
 ! A86   A(27,28,43)           120.4179         calculate D2E/DX2 analytically  !
 ! A87   A(29,28,43)           119.7386         calculate D2E/DX2 analytically  !
 ! A88   A(28,29,30)           123.4588         calculate D2E/DX2 analytically  !
 ! A89   A(28,29,44)           118.6443         calculate D2E/DX2 analytically  !
 ! A90   A(30,29,44)           117.7781         calculate D2E/DX2 analytically  !
 ! A91   A(13,30,23)           124.6366         calculate D2E/DX2 analytically  !
 ! A92   A(13,30,29)           111.3235         calculate D2E/DX2 analytically  !
 ! A93   A(13,30,46)            92.6953         calculate D2E/DX2 analytically  !
 ! A94   A(23,30,29)           116.7586         calculate D2E/DX2 analytically  !
 ! A95   A(23,30,46)           101.3936         calculate D2E/DX2 analytically  !
 ! A96   A(29,30,46)           103.0883         calculate D2E/DX2 analytically  !
 ! D1    D(4,1,2,3)             -1.7175         calculate D2E/DX2 analytically  !
 ! D2    D(4,1,2,16)           176.491          calculate D2E/DX2 analytically  !
 ! D3    D(13,1,2,3)           172.5576         calculate D2E/DX2 analytically  !
 ! D4    D(13,1,2,16)           -9.2339         calculate D2E/DX2 analytically  !
 ! D5    D(2,1,4,5)              1.3465         calculate D2E/DX2 analytically  !
 ! D6    D(2,1,4,6)            173.8449         calculate D2E/DX2 analytically  !
 ! D7    D(13,1,4,5)          -173.7822         calculate D2E/DX2 analytically  !
 ! D8    D(13,1,4,6)            -1.2837         calculate D2E/DX2 analytically  !
 ! D9    D(2,1,13,14)         -176.7241         calculate D2E/DX2 analytically  !
 ! D10   D(2,1,13,30)            0.7936         calculate D2E/DX2 analytically  !
 ! D11   D(4,1,13,14)           -3.0766         calculate D2E/DX2 analytically  !
 ! D12   D(4,1,13,30)          174.4411         calculate D2E/DX2 analytically  !
 ! D13   D(1,2,3,5)              1.4995         calculate D2E/DX2 analytically  !
 ! D14   D(1,2,3,10)          -176.7698         calculate D2E/DX2 analytically  !
 ! D15   D(16,2,3,5)          -177.0064         calculate D2E/DX2 analytically  !
 ! D16   D(16,2,3,10)            4.7243         calculate D2E/DX2 analytically  !
 ! D17   D(1,2,16,17)          179.7032         calculate D2E/DX2 analytically  !
 ! D18   D(1,2,16,19)           -3.9367         calculate D2E/DX2 analytically  !
 ! D19   D(3,2,16,17)           -2.2949         calculate D2E/DX2 analytically  !
 ! D20   D(3,2,16,19)          174.0652         calculate D2E/DX2 analytically  !
 ! D21   D(2,3,5,4)             -0.7005         calculate D2E/DX2 analytically  !
 ! D22   D(2,3,5,9)           -175.3501         calculate D2E/DX2 analytically  !
 ! D23   D(10,3,5,4)           177.6922         calculate D2E/DX2 analytically  !
 ! D24   D(10,3,5,9)             3.0426         calculate D2E/DX2 analytically  !
 ! D25   D(2,3,10,11)          176.9542         calculate D2E/DX2 analytically  !
 ! D26   D(2,3,10,18)           -2.9243         calculate D2E/DX2 analytically  !
 ! D27   D(5,3,10,11)           -1.1338         calculate D2E/DX2 analytically  !
 ! D28   D(5,3,10,18)          178.9877         calculate D2E/DX2 analytically  !
 ! D29   D(1,4,5,3)             -0.439          calculate D2E/DX2 analytically  !
 ! D30   D(1,4,5,9)            174.1781         calculate D2E/DX2 analytically  !
 ! D31   D(6,4,5,3)           -173.4661         calculate D2E/DX2 analytically  !
 ! D32   D(6,4,5,9)              1.151          calculate D2E/DX2 analytically  !
 ! D33   D(1,4,6,7)           -174.5774         calculate D2E/DX2 analytically  !
 ! D34   D(1,4,6,15)             2.639          calculate D2E/DX2 analytically  !
 ! D35   D(5,4,6,7)             -2.9742         calculate D2E/DX2 analytically  !
 ! D36   D(5,4,6,15)           174.2422         calculate D2E/DX2 analytically  !
 ! D37   D(3,5,9,8)            175.1611         calculate D2E/DX2 analytically  !
 ! D38   D(3,5,9,12)            -2.7583         calculate D2E/DX2 analytically  !
 ! D39   D(4,5,9,8)              1.4445         calculate D2E/DX2 analytically  !
 ! D40   D(4,5,9,12)          -176.475          calculate D2E/DX2 analytically  !
 ! D41   D(4,6,7,8)              2.3804         calculate D2E/DX2 analytically  !
 ! D42   D(4,6,7,33)          -178.4434         calculate D2E/DX2 analytically  !
 ! D43   D(15,6,7,8)          -174.1814         calculate D2E/DX2 analytically  !
 ! D44   D(15,6,7,33)            4.9948         calculate D2E/DX2 analytically  !
 ! D45   D(4,6,15,14)            0.5435         calculate D2E/DX2 analytically  !
 ! D46   D(4,6,15,32)         -177.0775         calculate D2E/DX2 analytically  !
 ! D47   D(7,6,15,14)          177.0851         calculate D2E/DX2 analytically  !
 ! D48   D(7,6,15,32)           -0.5359         calculate D2E/DX2 analytically  !
 ! D49   D(6,7,8,9)              0.0955         calculate D2E/DX2 analytically  !
 ! D50   D(6,7,8,34)           179.1475         calculate D2E/DX2 analytically  !
 ! D51   D(33,7,8,9)          -179.0806         calculate D2E/DX2 analytically  !
 ! D52   D(33,7,8,34)           -0.0286         calculate D2E/DX2 analytically  !
 ! D53   D(7,8,9,5)             -1.9995         calculate D2E/DX2 analytically  !
 ! D54   D(7,8,9,12)           175.3675         calculate D2E/DX2 analytically  !
 ! D55   D(34,8,9,5)           178.9602         calculate D2E/DX2 analytically  !
 ! D56   D(34,8,9,12)           -3.6728         calculate D2E/DX2 analytically  !
 ! D57   D(5,9,12,11)            0.8908         calculate D2E/DX2 analytically  !
 ! D58   D(5,9,12,35)         -179.5137         calculate D2E/DX2 analytically  !
 ! D59   D(8,9,12,11)         -176.4715         calculate D2E/DX2 analytically  !
 ! D60   D(8,9,12,35)            3.1241         calculate D2E/DX2 analytically  !
 ! D61   D(3,10,11,12)          -0.6074         calculate D2E/DX2 analytically  !
 ! D62   D(3,10,11,36)        -179.8977         calculate D2E/DX2 analytically  !
 ! D63   D(18,10,11,12)        179.2399         calculate D2E/DX2 analytically  !
 ! D64   D(18,10,11,36)         -0.0504         calculate D2E/DX2 analytically  !
 ! D65   D(3,10,18,17)          -0.8475         calculate D2E/DX2 analytically  !
 ! D66   D(3,10,18,37)        -179.1081         calculate D2E/DX2 analytically  !
 ! D67   D(11,10,18,17)        179.3038         calculate D2E/DX2 analytically  !
 ! D68   D(11,10,18,37)          1.0432         calculate D2E/DX2 analytically  !
 ! D69   D(10,11,12,9)           0.7202         calculate D2E/DX2 analytically  !
 ! D70   D(10,11,12,35)       -178.8809         calculate D2E/DX2 analytically  !
 ! D71   D(36,11,12,9)        -179.9861         calculate D2E/DX2 analytically  !
 ! D72   D(36,11,12,35)          0.4127         calculate D2E/DX2 analytically  !
 ! D73   D(1,13,14,15)           5.8112         calculate D2E/DX2 analytically  !
 ! D74   D(1,13,14,31)         130.0339         calculate D2E/DX2 analytically  !
 ! D75   D(1,13,14,45)        -119.9812         calculate D2E/DX2 analytically  !
 ! D76   D(30,13,14,15)       -171.7776         calculate D2E/DX2 analytically  !
 ! D77   D(30,13,14,31)        -47.555          calculate D2E/DX2 analytically  !
 ! D78   D(30,13,14,45)         62.43           calculate D2E/DX2 analytically  !
 ! D79   D(1,13,30,23)          23.0918         calculate D2E/DX2 analytically  !
 ! D80   D(1,13,30,29)         172.0824         calculate D2E/DX2 analytically  !
 ! D81   D(1,13,30,46)         -82.7443         calculate D2E/DX2 analytically  !
 ! D82   D(14,13,30,23)       -159.4813         calculate D2E/DX2 analytically  !
 ! D83   D(14,13,30,29)        -10.4907         calculate D2E/DX2 analytically  !
 ! D84   D(14,13,30,46)         94.6826         calculate D2E/DX2 analytically  !
 ! D85   D(13,14,15,6)          -4.637          calculate D2E/DX2 analytically  !
 ! D86   D(13,14,15,32)        173.1097         calculate D2E/DX2 analytically  !
 ! D87   D(31,14,15,6)        -130.0084         calculate D2E/DX2 analytically  !
 ! D88   D(31,14,15,32)         47.7383         calculate D2E/DX2 analytically  !
 ! D89   D(45,14,15,6)         119.0152         calculate D2E/DX2 analytically  !
 ! D90   D(45,14,15,32)        -63.2381         calculate D2E/DX2 analytically  !
 ! D91   D(2,16,17,18)          -1.166          calculate D2E/DX2 analytically  !
 ! D92   D(2,16,17,22)         176.9009         calculate D2E/DX2 analytically  !
 ! D93   D(19,16,17,18)       -177.5988         calculate D2E/DX2 analytically  !
 ! D94   D(19,16,17,22)          0.468          calculate D2E/DX2 analytically  !
 ! D95   D(2,16,19,20)        -171.8106         calculate D2E/DX2 analytically  !
 ! D96   D(2,16,19,23)           6.5228         calculate D2E/DX2 analytically  !
 ! D97   D(17,16,19,20)          4.2495         calculate D2E/DX2 analytically  !
 ! D98   D(17,16,19,23)       -177.4172         calculate D2E/DX2 analytically  !
 ! D99   D(16,17,18,10)          2.8647         calculate D2E/DX2 analytically  !
 ! D100  D(16,17,18,37)       -178.8125         calculate D2E/DX2 analytically  !
 ! D101  D(22,17,18,10)       -175.1997         calculate D2E/DX2 analytically  !
 ! D102  D(22,17,18,37)          3.1231         calculate D2E/DX2 analytically  !
 ! D103  D(16,17,22,21)         -3.8782         calculate D2E/DX2 analytically  !
 ! D104  D(16,17,22,38)        178.552          calculate D2E/DX2 analytically  !
 ! D105  D(18,17,22,21)        174.2899         calculate D2E/DX2 analytically  !
 ! D106  D(18,17,22,38)         -3.2799         calculate D2E/DX2 analytically  !
 ! D107  D(16,19,20,21)         -5.9582         calculate D2E/DX2 analytically  !
 ! D108  D(16,19,20,26)        173.8351         calculate D2E/DX2 analytically  !
 ! D109  D(23,19,20,21)        175.5579         calculate D2E/DX2 analytically  !
 ! D110  D(23,19,20,26)         -4.6489         calculate D2E/DX2 analytically  !
 ! D111  D(16,19,23,24)       -174.2416         calculate D2E/DX2 analytically  !
 ! D112  D(16,19,23,30)         13.8663         calculate D2E/DX2 analytically  !
 ! D113  D(20,19,23,24)          4.0243         calculate D2E/DX2 analytically  !
 ! D114  D(20,19,23,30)       -167.8679         calculate D2E/DX2 analytically  !
 ! D115  D(19,20,21,22)          2.9825         calculate D2E/DX2 analytically  !
 ! D116  D(19,20,21,39)       -177.456          calculate D2E/DX2 analytically  !
 ! D117  D(26,20,21,22)       -176.8194         calculate D2E/DX2 analytically  !
 ! D118  D(26,20,21,39)          2.7421         calculate D2E/DX2 analytically  !
 ! D119  D(19,20,26,25)          1.0133         calculate D2E/DX2 analytically  !
 ! D120  D(19,20,26,40)       -178.6583         calculate D2E/DX2 analytically  !
 ! D121  D(21,20,26,25)       -179.1829         calculate D2E/DX2 analytically  !
 ! D122  D(21,20,26,40)          1.1454         calculate D2E/DX2 analytically  !
 ! D123  D(20,21,22,17)          2.3123         calculate D2E/DX2 analytically  !
 ! D124  D(20,21,22,38)        179.8391         calculate D2E/DX2 analytically  !
 ! D125  D(39,21,22,17)       -177.2374         calculate D2E/DX2 analytically  !
 ! D126  D(39,21,22,38)          0.2895         calculate D2E/DX2 analytically  !
 ! D127  D(19,23,24,25)         -0.048          calculate D2E/DX2 analytically  !
 ! D128  D(19,23,24,27)       -178.7164         calculate D2E/DX2 analytically  !
 ! D129  D(30,23,24,25)        172.9785         calculate D2E/DX2 analytically  !
 ! D130  D(30,23,24,27)         -5.69           calculate D2E/DX2 analytically  !
 ! D131  D(19,23,30,13)        -33.0872         calculate D2E/DX2 analytically  !
 ! D132  D(19,23,30,29)        179.4243         calculate D2E/DX2 analytically  !
 ! D133  D(19,23,30,46)         68.3043         calculate D2E/DX2 analytically  !
 ! D134  D(24,23,30,13)        154.8029         calculate D2E/DX2 analytically  !
 ! D135  D(24,23,30,29)          7.3143         calculate D2E/DX2 analytically  !
 ! D136  D(24,23,30,46)       -103.8056         calculate D2E/DX2 analytically  !
 ! D137  D(23,24,25,26)         -3.677          calculate D2E/DX2 analytically  !
 ! D138  D(23,24,25,41)        179.0034         calculate D2E/DX2 analytically  !
 ! D139  D(27,24,25,26)        175.1003         calculate D2E/DX2 analytically  !
 ! D140  D(27,24,25,41)         -2.2193         calculate D2E/DX2 analytically  !
 ! D141  D(23,24,27,28)          2.312          calculate D2E/DX2 analytically  !
 ! D142  D(23,24,27,42)       -178.1601         calculate D2E/DX2 analytically  !
 ! D143  D(25,24,27,28)       -176.4275         calculate D2E/DX2 analytically  !
 ! D144  D(25,24,27,42)          3.1005         calculate D2E/DX2 analytically  !
 ! D145  D(24,25,26,20)          3.184          calculate D2E/DX2 analytically  !
 ! D146  D(24,25,26,40)       -177.1517         calculate D2E/DX2 analytically  !
 ! D147  D(41,25,26,20)       -179.5728         calculate D2E/DX2 analytically  !
 ! D148  D(41,25,26,40)          0.0915         calculate D2E/DX2 analytically  !
 ! D149  D(24,27,28,29)         -0.4728         calculate D2E/DX2 analytically  !
 ! D150  D(24,27,28,43)       -179.7496         calculate D2E/DX2 analytically  !
 ! D151  D(42,27,28,29)       -179.989          calculate D2E/DX2 analytically  !
 ! D152  D(42,27,28,43)          0.7342         calculate D2E/DX2 analytically  !
 ! D153  D(27,28,29,30)          2.7773         calculate D2E/DX2 analytically  !
 ! D154  D(27,28,29,44)        178.7217         calculate D2E/DX2 analytically  !
 ! D155  D(43,28,29,30)       -177.941          calculate D2E/DX2 analytically  !
 ! D156  D(43,28,29,44)         -1.9966         calculate D2E/DX2 analytically  !
 ! D157  D(28,29,30,13)       -157.9845         calculate D2E/DX2 analytically  !
 ! D158  D(28,29,30,23)         -6.3251         calculate D2E/DX2 analytically  !
 ! D159  D(28,29,30,46)        103.8182         calculate D2E/DX2 analytically  !
 ! D160  D(44,29,30,13)         26.0383         calculate D2E/DX2 analytically  !
 ! D161  D(44,29,30,23)        177.6977         calculate D2E/DX2 analytically  !
 ! D162  D(44,29,30,46)        -72.159          calculate D2E/DX2 analytically  !
 --------------------------------------------------------------------------------
 Trust Radius=3.00D-01 FncErr=1.00D-07 GrdErr=1.00D-06 EigMax=2.50D+02 EigMin=1.00D-04
 Number of steps in this run=    276 maximum allowed number of steps=    276.
 Search for a saddle point of order  1.
 GradGradGradGradGradGradGradGradGradGradGradGradGradGradGradGradGradGrad

                          Input orientation:                          
 ---------------------------------------------------------------------
 Center     Atomic      Atomic             Coordinates (Angstroms)
 Number     Number       Type             X           Y           Z
 ---------------------------------------------------------------------
      1          6           0        0.702094   -0.893999   -0.020184
      2          6           0        0.532246    0.561455    0.040115
      3          6           0        1.827727    1.097452   -0.014415
      4          6           0        2.101346   -1.139693   -0.148838
      5          6           0        2.774081    0.067563   -0.138323
      6          6           0        2.773266   -2.375212   -0.126631
      7          6           0        4.229631   -2.245006   -0.161633
      8          6           0        4.871609   -1.020454   -0.163294
      9          6           0        4.148089    0.232898   -0.128317
     10          6           0        2.204940    2.435856    0.072967
     11          6           0        3.641192    2.652312    0.050404
     12          6           0        4.556641    1.610935   -0.037418
     13          6           0       -0.157287   -1.919541    0.121007
     14          6           0        0.438586   -3.321130    0.061116
     15          6           0        1.939229   -3.470280   -0.015141
     16          6           0       -0.569935    1.399673    0.100332
     17          6           0       -0.224809    2.824438    0.153347
     18          6           0        1.109950    3.306342    0.168309
     19          6           0       -1.966877    0.930953    0.033700
     20          6           0       -2.936293    1.985332   -0.071217
     21          6           0       -2.571446    3.360200    0.018657
     22          6           0       -1.285446    3.773629    0.149460
     23          6           0       -2.430090   -0.447168    0.029782
     24          6           0       -3.839179   -0.669886   -0.169775
     25          6           0       -4.736411    0.421303   -0.354092
     26          6           0       -4.306780    1.702290   -0.274394
     27          6           0       -4.441585   -1.952276   -0.172272
     28          6           0       -3.706429   -3.101575    0.068354
     29          6           0       -2.362830   -3.012439    0.306473
     30          6           0       -1.631110   -1.728070    0.383418
     31          1           0        0.091094   -3.911809    0.922069
     32          1           0        2.326837   -4.480992    0.060564
     33          1           0        4.831682   -3.147322   -0.173683
     34          1           0        5.957163   -1.010373   -0.176168
     35          1           0        5.613985    1.857091   -0.029881
     36          1           0        4.019254    3.667112    0.115904
     37          1           0        1.251729    4.380785    0.228570
     38          1           0       -1.046266    4.829317    0.212226
     39          1           0       -3.373052    4.089589   -0.028883
     40          1           0       -5.001121    2.529967   -0.369805
     41          1           0       -5.784225    0.195967   -0.516566
     42          1           0       -5.506323   -2.011837   -0.361807
     43          1           0       -4.187598   -4.073537    0.057602
     44          1           0       -1.813930   -3.915823    0.511826
     45          1           0       -0.054313   -3.836528   -0.793553
     46          1           0       -1.429640   -1.557024    1.772613
 ---------------------------------------------------------------------
                    Distance matrix (angstroms):
                    1          2          3          4          5
     1  C    0.000000
     2  C    1.466571   0.000000
     3  C    2.287566   1.403046   0.000000
     4  C    1.426472   2.322000   2.257821   0.000000
     5  C    2.287288   2.302519   1.404140   1.382082   0.000000
     6  C    2.548544   3.697836   3.600838   1.406583   2.442803
     7  C    3.780046   4.646244   4.118597   2.398224   2.732608
     8  C    4.173886   4.623190   3.711187   2.772866   2.363055
     9  C    3.627185   3.634644   2.478812   2.464464   1.383956
    10  C    3.654471   2.512442   1.393288   3.583920   2.444867
    11  C    4.606474   3.746643   2.389654   4.097576   2.732842
    12  C    4.597013   4.159708   2.776899   3.688745   2.360021
    13  C    1.345439   2.576304   3.613982   2.404663   3.550881
    14  C    2.442747   3.883771   4.632417   2.750912   4.120383
    15  C    2.857928   4.270543   4.569093   2.340041   3.637098
    16  C    2.625550   1.386015   2.419357   3.694077   3.607481
    17  C    3.836149   2.388942   2.687662   4.606153   4.083965
    18  C    4.224304   2.807949   2.329761   4.566254   3.654182
    19  C    3.233691   2.526299   3.798560   4.568515   4.822003
    20  C    4.640152   3.751078   4.846385   5.928711   6.024177
    21  C    5.368033   4.179275   4.947105   6.489382   6.280188
    22  C    5.076007   3.692428   4.108604   5.974954   5.504317
    23  C    3.164290   3.129355   4.529549   4.587527   5.232266
    24  C    4.549260   4.546384   5.938135   5.959110   6.654324
    25  C    5.605252   5.285243   6.607607   7.016677   7.521913
    26  C    5.647491   4.981626   6.169732   7.011185   7.268386
    27  C    5.253619   5.577002   6.973524   6.593238   7.493113
    28  C    4.931157   5.602227   6.947342   6.134037   7.216866
    29  C    3.740087   4.607074   5.878345   4.862443   6.006006
    30  C    2.510460   3.168579   4.483904   3.815850   4.785626
    31  H    3.219991   4.580671   5.383827   3.587838   4.915104
    32  H    3.938633   5.352312   5.601229   3.355440   4.574815
    33  H    4.706859   5.682067   5.202616   3.389089   3.817127
    34  H    5.258671   5.652181   4.639109   3.858082   3.360861
    35  H    5.629855   5.244773   3.861741   4.618820   3.358456
    36  H    5.641436   4.670126   3.379782   5.182068   3.817308
    37  H    5.309174   3.891073   3.342318   5.598211   4.588687
    38  H    5.988917   4.553676   4.715720   6.757730   6.114919
    39  H    6.437627   5.263444   6.000100   7.571579   7.346830
    40  H    6.661264   5.887378   6.986527   7.997516   8.159092
    41  H    6.595965   6.351479   7.681578   8.006338   8.567623
    42  H    6.317492   6.576297   7.973497   7.660458   8.540430
    43  H    5.833061   6.615163   7.932745   6.942685   8.102597
    44  H    3.967976   5.076719   6.218643   4.844870   6.110638
    45  H    3.135080   4.514566   5.337911   3.512185   4.865292
    46  H    2.863217   3.367269   4.566197   4.041535   4.895123
                    6          7          8          9         10
     6  C    0.000000
     7  C    1.462593   0.000000
     8  C    2.497951   1.382630   0.000000
     9  C    2.948284   2.479469   1.447617   0.000000
    10  C    4.848630   5.105378   4.371844   2.944379   0.000000
    11  C    5.104962   4.937099   3.879279   2.478397   1.452647
    12  C    4.367809   3.871776   2.653160   1.440196   2.494630
    13  C    2.976088   4.408045   5.116540   4.819898   4.954988
    14  C    2.526013   3.947111   4.999516   5.140760   6.021880
    15  C    1.381022   2.601672   3.823931   4.313398   5.912767
    16  C    5.047600   6.032259   5.961285   4.865531   2.962154
    17  C    6.008594   6.755776   6.391943   5.090938   2.461938
    18  C    5.927366   6.376420   5.742926   4.331782   1.402084
    19  C    5.781469   6.965743   7.114189   6.156812   4.435125
    20  C    7.184461   8.321923   8.366992   7.298134   5.162949
    21  C    7.841046   8.815072   8.638420   7.413081   4.865308
    22  C    7.372762   8.169261   7.809633   6.491320   3.738754
    23  C    5.551282   6.900779   7.326714   6.615128   5.458681
    24  C    6.828940   8.221117   8.717842   8.038233   6.799701
    25  C    8.016700   9.356076   9.717464   8.889365   7.240384
    26  C    8.171592   9.405540   9.574367   8.582847   6.562109
    27  C    7.227381   8.676162   9.359698   8.863375   7.968195
    28  C    6.523195   7.985465   8.829919   8.535271   8.099842
    29  C    5.193565   6.653467   7.518364   7.287889   7.113576
    30  C    4.480789   5.908688   6.563914   6.124248   5.670092
    31  H    3.264192   4.591310   5.691333   5.894159   6.744047
    32  H    2.160706   2.944424   4.301314   5.057014   6.917933
    33  H    2.198964   1.084797   2.127268   3.448948   6.175151
    34  H    3.464454   2.123416   1.085677   2.195623   5.100759
    35  H    5.098179   4.331396   2.974758   2.190101   3.459355
    36  H    6.174220   5.922366   4.772603   3.445297   2.193073
    37  H    6.934316   7.274700   6.513868   5.071611   2.171537
    38  H    8.161427   8.832944   8.329591   6.944376   4.039603
    39  H    8.920786   9.896742   9.700775   8.452900   5.818866
    40  H    9.195706  10.394734  10.493757   9.436254   7.220264
    41  H    8.943918  10.313178  10.730856   9.939968   8.318137
    42  H    8.290895   9.740803  10.427067   9.914687   8.912608
    43  H    7.167418   8.616341   9.562392   9.384222   9.123430
    44  H    4.880930   6.306331   7.316788   7.291594   7.529126
    45  H    3.251989   4.613506   5.708958   5.887525   6.722937
    46  H    4.684120   6.020131   6.613727   6.158605   5.660571
                   11         12         13         14         15
    11  C    0.000000
    12  C    1.389326   0.000000
    13  C    5.944348   5.891560   0.000000
    14  C    6.777817   6.425990   1.524173   0.000000
    15  C    6.355085   5.715775   2.611265   1.509964   0.000000
    16  C    4.393767   5.132776   3.344830   4.827487   5.479569
    17  C    3.871200   4.936724   4.744570   6.181958   6.658448
    18  C    2.617029   3.846610   5.377544   6.662252   6.829639
    19  C    5.866327   6.559247   3.377507   4.885408   5.884803
    20  C    6.612334   7.502358   4.796651   6.290140   7.316937
    21  C    6.252918   7.339802   5.806402   7.328183   8.185523
    22  C    5.053605   6.232347   5.803942   7.301760   7.930942
    23  C    6.816720   7.283867   2.709583   4.060781   5.313396
    24  C    8.187883   8.701118   3.899041   5.038023   6.423092
    25  C    8.679012   9.374237   5.164654   6.399906   7.734564
    26  C    8.011136   8.867059   5.521983   6.918512   8.113897
    27  C    9.305004   9.678984   4.294449   5.073884   6.560778
    28  C    9.332474   9.513005   3.741174   4.150832   5.658301
    29  C    8.258526   8.329041   2.468450   2.829032   4.338291
    30  C    6.862639   7.043743   1.509197   2.631608   3.992676
    31  H    7.513367   7.166758   2.161602   1.100406   2.118706
    32  H    7.253389   6.487927   3.568691   2.216026   1.085131
    33  H    5.924798   4.768147   5.146271   4.402798   2.914742
    34  H    4.339391   2.975226   6.188812   5.987537   4.713901
    35  H    2.128552   1.085645   6.898790   7.321681   6.471857
    36  H    1.084915   2.130764   6.975257   7.852370   7.435458
    37  H    2.954470   4.320331   6.456857   7.746531   7.884876
    38  H    5.170861   6.466287   6.807767   8.285976   8.823162
    39  H    7.160424   8.308058   6.817130   8.333993   9.239704
    40  H    8.653388   9.607597   6.595585   8.000715   9.181351
    41  H    9.756719  10.448216   6.045189   7.171267   8.564142
    42  H   10.276246  10.700138   5.371575   6.102053   7.594964
    43  H   10.321194  10.429955   4.570244   4.686972   6.156884
    44  H    8.550536   8.451680   2.623423   2.372894   3.816072
    45  H    7.514923   7.176872   2.126467   1.113123   2.171238
    46  H    6.811597   7.010545   2.116153   3.087323   4.266836
                   16         17         18         19         20
    16  C    0.000000
    17  C    1.466928   0.000000
    18  C    2.542051   1.419168   0.000000
    19  C    1.474987   2.575733   3.889403   0.000000
    20  C    2.443783   2.847222   4.263159   1.436137   0.000000
    21  C    2.802924   2.410786   3.684830   2.503392   1.425290
    22  C    2.479927   1.423352   2.440622   2.925501   2.443768
    23  C    2.622208   3.947396   5.161386   1.453891   2.486664
    24  C    3.878658   5.037696   6.357560   2.471761   2.806261
    25  C    4.303862   5.136838   6.540359   2.842612   2.401381
    26  C    3.767759   4.254958   5.666563   2.482948   1.414082
    27  C    5.128309   6.379986   7.654319   3.805209   4.216737
    28  C    5.486333   6.873611   8.016789   4.391870   5.146767
    29  C    4.766938   6.218015   7.211538   3.972597   5.044722
    30  C    3.314967   4.770319   5.736287   2.702859   3.962266
    31  H    5.415169   6.787323   7.328569   5.336365   6.702832
    32  H    6.555539   7.738786   7.882575   6.908390   8.338540
    33  H    7.065955   7.831792   7.457749   7.930683   9.311073
    34  H    6.963317   7.282248   6.499859   8.161078   9.385032
    35  H    6.202181   5.921220   4.735603   7.637489   8.551340
    36  H    5.118806   4.327074   2.932056   6.582331   7.158424
    37  H    3.495988   2.146634   1.085431   4.722154   4.834004
    38  H    3.464371   2.167440   2.640199   4.009568   3.426484
    39  H    3.887134   3.397830   4.555180   3.458067   2.149523
    40  H    4.597173   4.813892   6.183649   3.453447   2.156223
    41  H    5.386863   6.185851   7.594283   3.926212   3.392769
    42  H    6.018297   7.179786   8.505241   4.619969   4.760972
    43  H    6.560895   7.955811   9.085091   5.475134   6.188073
    44  H    5.474609   6.934330   7.799150   4.872703   6.035169
    45  H    5.336918   6.730093   7.300772   5.202992   6.536179
    46  H    3.503951   4.823987   5.716261   3.082608   4.268255
                   21         22         23         24         25
    21  C    0.000000
    22  C    1.357140   0.000000
    23  C    3.810007   4.374890   0.000000
    24  C    4.228977   5.135006   1.440471   0.000000
    25  C    3.669214   4.837439   2.494137   1.424672   0.000000
    26  C    2.417836   3.687622   2.869609   2.420086   1.353463
    27  C    5.635271   6.546046   2.520375   1.416836   2.398720
    28  C    6.560884   7.289456   2.945574   2.446924   3.694590
    29  C    6.382545   6.872854   2.581026   2.809622   4.226206
    30  C    5.187270   5.517510   1.550528   2.510248   3.847937
    31  H    7.796627   7.845874   4.376789   5.210493   6.611297
    32  H    9.245498   9.010841   6.237070   7.252402   8.607782
    33  H    9.858557   9.242469   7.750198   9.017845  10.213522
    34  H    9.585251   8.686086   8.408664   9.802259  10.790453
    35  H    8.322438   7.162920   8.367814   9.786087  10.454535
    36  H    6.598559   5.305875   7.650409   8.980319   9.349751
    37  H    3.962616   2.610010   6.074902   7.182291   7.202417
    38  H    2.126487   1.084262   5.457980   6.179605   5.776545
    39  H    1.084823   2.118900   4.634089   4.784321   3.926937
    40  H    2.596827   3.952540   3.953885   3.410158   2.125272
    41  H    4.541011   5.786386   3.458662   2.157121   1.084015
    42  H    6.133273   7.179750   3.473434   2.148739   2.552057
    43  H    7.607490   8.367134   4.029908   3.428985   4.546897
    44  H    7.331955   7.716105   3.555782   3.886170   5.301073
    45  H    7.667368   7.766560   4.220185   4.974126   6.343839
    46  H    5.344078   5.574162   2.295679   3.219591   4.401294
                   26         27         28         29         30
    26  C    0.000000
    27  C    3.658477   0.000000
    28  C    4.853351   1.385368   0.000000
    29  C    5.132740   2.382093   1.367444   0.000000
    30  C    4.399920   2.873644   2.508531   1.480182   0.000000
    31  H    7.231247   5.057918   3.975738   2.685064   2.832816
    32  H    9.074693   7.229118   6.188954   4.920376   4.831993
    33  H   10.346031   9.349953   8.541663   7.211778   6.640205
    34  H   10.616813  10.441320   9.890295   8.571085   7.642651
    35  H    9.924985  10.753885  10.557847   9.351740   8.094171
    36  H    8.563627  10.161022  10.271493   9.240331   7.817043
    37  H    6.190665   8.525383   8.977456   8.229876   6.756689
    38  H    4.543792   7.593815   8.366374   7.952066   6.585641
    39  H    2.575135   6.137300   7.199544   7.181352   6.086831
    40  H    1.084556   4.521350   5.795039   6.175451   5.482262
    41  H    2.123794   2.556593   3.941212   4.762059   4.664789
    42  H    3.904009   1.083115   2.147600   3.365910   3.956407
    43  H    5.786588   2.148744   1.084596   2.125475   3.484681
    44  H    6.196421   3.350832   2.107420   1.076830   2.199130
    45  H    7.002250   4.815034   3.823740   2.686714   2.883946
    46  H    4.805341   3.607023   3.236341   2.266857   1.414111
                   31         32         33         34         35
    31  H    0.000000
    32  H    2.462663   0.000000
    33  H    4.925270   2.847419   0.000000
    34  H    6.635904   5.027972   2.415215   0.000000
    35  H    8.042931   7.140365   5.067231   2.891629   0.000000
    36  H    8.574403   8.322195   6.868800   5.071456   2.416733
    37  H    8.402091   8.928336   8.345673   7.167252   5.046296
    38  H    8.843345   9.903670   9.915945   9.126930   7.297375
    39  H    8.770803  10.293279  10.941275  10.634106   9.260177
    40  H    8.312405  10.150750  11.355795  11.517617  10.641841
    41  H    7.311831   9.380637  11.135198  11.808104  11.528894
    42  H    6.048910   8.223960  10.401878  11.508645  11.778796
    43  H    4.368142   6.527166   9.069663  10.599707  11.456484
    44  H    1.948700   4.203452   6.724929   8.324954   9.423052
    45  H    1.723418   2.610503   4.973147   6.671294   8.070322
    46  H    2.929346   5.058836   6.746945   7.659075   8.032298
                   36         37         38         39         40
    36  H    0.000000
    37  H    2.860283   0.000000
    38  H    5.198028   2.341416   0.000000
    39  H    7.405784   4.641086   2.453419   0.000000
    40  H    9.104734   6.548413   4.611578   2.280188   0.000000
    41  H   10.419072   8.220254   6.666883   4.605636   2.466241
    42  H   11.100238   9.321235   8.186758   6.472178   4.569822
    43  H   11.281554  10.054405   9.442070   8.204120   6.667140
    44  H    9.575160   8.849418   8.783880   8.173729   7.244561
    45  H    8.586366   8.383001   8.780230   8.626823   8.073582
    46  H    7.728307   6.695624   6.585373   6.237506   5.835146
                   41         42         43         44         45
    41  H    0.000000
    42  H    2.230600   0.000000
    43  H    4.594295   2.483052   0.000000
    44  H    5.807551   4.245252   2.421878   0.000000
    45  H    7.012106   5.765441   4.226663   2.192385   0.000000
    46  H    5.222617   4.624062   4.108580   2.702072   3.697685
                   46
    46  H    0.000000
 Stoichiometry    C30H16
 Framework group  C1[X(C30H16)]
 Deg. of freedom   132
 Full point group                 C1      NOp   1
 Largest Abelian subgroup         C1      NOp   1
 Largest concise Abelian subgroup C1      NOp   1
                         Standard orientation:                         
 ---------------------------------------------------------------------
 Center     Atomic      Atomic             Coordinates (Angstroms)
 Number     Number       Type             X           Y           Z
 ---------------------------------------------------------------------
      1          6           0        0.702094   -0.893999   -0.020184
      2          6           0        0.532246    0.561455    0.040115
      3          6           0        1.827727    1.097452   -0.014415
      4          6           0        2.101346   -1.139693   -0.148838
      5          6           0        2.774081    0.067563   -0.138323
      6          6           0        2.773266   -2.375212   -0.126631
      7          6           0        4.229631   -2.245006   -0.161633
      8          6           0        4.871609   -1.020454   -0.163294
      9          6           0        4.148089    0.232898   -0.128317
     10          6           0        2.204940    2.435856    0.072967
     11          6           0        3.641192    2.652312    0.050404
     12          6           0        4.556641    1.610935   -0.037418
     13          6           0       -0.157287   -1.919541    0.121007
     14          6           0        0.438586   -3.321130    0.061116
     15          6           0        1.939229   -3.470280   -0.015141
     16          6           0       -0.569935    1.399673    0.100332
     17          6           0       -0.224809    2.824438    0.153347
     18          6           0        1.109950    3.306342    0.168309
     19          6           0       -1.966877    0.930953    0.033700
     20          6           0       -2.936293    1.985332   -0.071217
     21          6           0       -2.571446    3.360200    0.018657
     22          6           0       -1.285446    3.773629    0.149460
     23          6           0       -2.430090   -0.447168    0.029782
     24          6           0       -3.839179   -0.669886   -0.169775
     25          6           0       -4.736411    0.421303   -0.354092
     26          6           0       -4.306780    1.702290   -0.274394
     27          6           0       -4.441585   -1.952276   -0.172272
     28          6           0       -3.706429   -3.101575    0.068354
     29          6           0       -2.362830   -3.012439    0.306473
     30          6           0       -1.631110   -1.728070    0.383418
     31          1           0        0.091094   -3.911809    0.922069
     32          1           0        2.326837   -4.480992    0.060564
     33          1           0        4.831682   -3.147322   -0.173683
     34          1           0        5.957163   -1.010373   -0.176168
     35          1           0        5.613985    1.857091   -0.029881
     36          1           0        4.019254    3.667112    0.115904
     37          1           0        1.251729    4.380785    0.228570
     38          1           0       -1.046266    4.829317    0.212226
     39          1           0       -3.373052    4.089589   -0.028883
     40          1           0       -5.001121    2.529967   -0.369805
     41          1           0       -5.784225    0.195967   -0.516566
     42          1           0       -5.506323   -2.011837   -0.361807
     43          1           0       -4.187598   -4.073537    0.057602
     44          1           0       -1.813930   -3.915823    0.511826
     45          1           0       -0.054313   -3.836528   -0.793553
     46          1           0       -1.429640   -1.557024    1.772613
 ---------------------------------------------------------------------
 Rotational constants (GHZ):           0.2723369           0.1545596           0.0991683
 Standard basis: 6-311+G(d,p) (5D, 7F)
 There are   786 symmetry adapted cartesian basis functions of A   symmetry.
 There are   756 symmetry adapted basis functions of A   symmetry.
   756 basis functions,  1208 primitive gaussians,   786 cartesian basis functions
    98 alpha electrons       98 beta electrons
       nuclear repulsion energy      2613.6131433611 Hartrees.
 NAtoms=   46 NActive=   46 NUniq=   46 SFac= 1.00D+00 NAtFMM=   60 NAOKFM=F Big=F
 Integral buffers will be    131072 words long.
 Raffenetti 2 integral format.
 Two-electron integral symmetry is turned on.
 One-electron integrals computed using PRISM.
 NBasis=   756 RedAO= T EigKep=  1.09D-06  NBF=   756
 NBsUse=   733 1.00D-06 EigRej=  9.12D-07 NBFU=   733
 ExpMin= 4.38D-02 ExpMax= 4.56D+03 ExpMxC= 6.82D+02 IAcc=2 IRadAn=         4 AccDes= 0.00D+00
 Harris functional with IExCor=  402 and IRadAn=       4 diagonalized for initial guess.
 HarFok:  IExCor=  402 AccDes= 0.00D+00 IRadAn=         4 IDoV= 1 UseB2=F ITyADJ=14
 ICtDFT=  3500011 ScaDFX=  1.000000  1.000000  1.000000  1.000000
 FoFCou: FMM=F IPFlag=           0 FMFlag=      100000 FMFlg1=           0
         NFxFlg=           0 DoJE=T BraDBF=F KetDBF=T FulRan=T
         wScrn=  0.000000 ICntrl=       500 IOpCl=  0 I1Cent=   200000004 NGrid=           0
         NMat0=    1 NMatS0=      1 NMatT0=    0 NMatD0=    1 NMtDS0=    0 NMtDT0=    0
 Petite list used in FoFCou.
 Requested convergence on RMS density matrix=1.00D-08 within 128 cycles.
 Requested convergence on MAX density matrix=1.00D-06.
 Requested convergence on             energy=1.00D-06.
 No special actions if energy rises.
 SCF Done:  E(RB3LYP) =  -1152.98868849     A.U. after   20 cycles
            NFock= 20  Conv=0.71D-08     -V/T= 2.0046
 DoSCS=F DFT=T ScalE2(SS,OS)=  1.000000  1.000000
 Range of M.O.s used for correlation:     1   733
 NBasis=   756 NAE=    98 NBE=    98 NFC=     0 NFV=     0
 NROrb=    733 NOA=    98 NOB=    98 NVA=   635 NVB=   635

 **** Warning!!: The largest alpha MO coefficient is  0.12844395D+03


 **** Warning!!: The smallest alpha delta epsilon is  0.31082858D-01

 Symmetrizing basis deriv contribution to polar:
 IMax=3 JMax=2 DiffMx= 0.00D+00
 G2DrvN: will do    47 centers at a time, making    1 passes.
 Calling FoFCou, ICntrl=  3107 FMM=F I1Cent=   0 AccDes= 0.00D+00.
 End of G2Drv F.D. properties file   721 does not exist.
 End of G2Drv F.D. properties file   722 does not exist.
 End of G2Drv F.D. properties file   788 does not exist.
          IDoAtm=1111111111111111111111111111111111111111111111
          Differentiating once with respect to nuclear coordinates.
 CalDSu exits because no D1Ps are significant.
          There are   141 degrees of freedom in the 1st order CPHF.  IDoFFX=6 NUNeed=     0.
    136 vectors produced by pass  0 Test12= 6.22D-14 1.00D-09 XBig12= 3.22D-01 1.97D-01.
 AX will form   136 AO Fock derivatives at one time.
    136 vectors produced by pass  1 Test12= 6.22D-14 1.00D-09 XBig12= 2.21D-01 8.32D-02.
    135 vectors produced by pass  2 Test12= 6.22D-14 1.00D-09 XBig12= 2.50D-03 7.23D-03.
    135 vectors produced by pass  3 Test12= 6.22D-14 1.00D-09 XBig12= 1.54D-05 3.47D-04.
    135 vectors produced by pass  4 Test12= 6.22D-14 1.00D-09 XBig12= 4.71D-08 1.86D-05.
    135 vectors produced by pass  5 Test12= 6.22D-14 1.00D-09 XBig12= 1.59D-10 7.84D-07.
    106 vectors produced by pass  6 Test12= 6.22D-14 1.00D-09 XBig12= 2.30D-11 3.43D-07.
     78 vectors produced by pass  7 Test12= 6.22D-14 1.00D-09 XBig12= 2.50D-12 9.55D-08.
     32 vectors produced by pass  8 Test12= 6.22D-14 1.00D-09 XBig12= 1.08D-13 1.86D-08.
      3 vectors produced by pass  9 Test12= 6.22D-14 1.00D-09 XBig12= 7.95D-16 1.88D-09.
      3 vectors produced by pass 10 Test12= 6.22D-14 1.00D-09 XBig12= 1.10D-15 1.80D-09.
      3 vectors produced by pass 11 Test12= 6.22D-14 1.00D-09 XBig12= 3.56D-16 1.47D-09.
      2 vectors produced by pass 12 Test12= 6.22D-14 1.00D-09 XBig12= 7.52D-16 1.57D-09.
 InvSVY:  IOpt=1 It=  1 EMax= 7.77D-16
 Solved reduced A of dimension  1039 with   141 vectors.
 End of Minotr F.D. properties file   721 does not exist.
 End of Minotr F.D. properties file   722 does not exist.
 End of Minotr F.D. properties file   788 does not exist.

 **********************************************************************

            Population analysis using the SCF Density.

 **********************************************************************

 Orbital symmetries:
       Occupied  (A) (A) (A) (A) (A) (A) (A) (A) (A) (A) (A) (A)
                 (A) (A) (A) (A) (A) (A) (A) (A) (A) (A) (A) (A)
                 (A) (A) (A) (A) (A) (A) (A) (A) (A) (A) (A) (A)
                 (A) (A) (A) (A) (A) (A) (A) (A) (A) (A) (A) (A)
                 (A) (A) (A) (A) (A) (A) (A) (A) (A) (A) (A) (A)
                 (A) (A) (A) (A) (A) (A) (A) (A) (A) (A) (A) (A)
                 (A) (A) (A) (A) (A) (A) (A) (A) (A) (A) (A) (A)
                 (A) (A) (A) (A) (A) (A) (A) (A) (A) (A) (A) (A)
                 (A) (A)
       Virtual   (A) (A) (A) (A) (A) (A) (A) (A) (A) (A) (A) (A)
                 (A) (A) (A) (A) (A) (A) (A) (A) (A) (A) (A) (A)
                 (A) (A) (A) (A) (A) (A) (A) (A) (A) (A) (A) (A)
                 (A) (A) (A) (A) (A) (A) (A) (A) (A) (A) (A) (A)
                 (A) (A) (A) (A) (A) (A) (A) (A) (A) (A) (A) (A)
                 (A) (A) (A) (A) (A) (A) (A) (A) (A) (A) (A) (A)
                 (A) (A) (A) (A) (A) (A) (A) (A) (A) (A) (A) (A)
                 (A) (A) (A) (A) (A) (A) (A) (A) (A) (A) (A) (A)
                 (A) (A) (A) (A) (A) (A) (A) (A) (A) (A) (A) (A)
                 (A) (A) (A) (A) (A) (A) (A) (A) (A) (A) (A) (A)
                 (A) (A) (A) (A) (A) (A) (A) (A) (A) (A) (A) (A)
                 (A) (A) (A) (A) (A) (A) (A) (A) (A) (A) (A) (A)
                 (A) (A) (A) (A) (A) (A) (A) (A) (A) (A) (A) (A)
                 (A) (A) (A) (A) (A) (A) (A) (A) (A) (A) (A) (A)
                 (A) (A) (A) (A) (A) (A) (A) (A) (A) (A) (A) (A)
                 (A) (A) (A) (A) (A) (A) (A) (A) (A) (A) (A) (A)
                 (A) (A) (A) (A) (A) (A) (A) (A) (A) (A) (A) (A)
                 (A) (A) (A) (A) (A) (A) (A) (A) (A) (A) (A) (A)
                 (A) (A) (A) (A) (A) (A) (A) (A) (A) (A) (A) (A)
                 (A) (A) (A) (A) (A) (A) (A) (A) (A) (A) (A) (A)
                 (A) (A) (A) (A) (A) (A) (A) (A) (A) (A) (A) (A)
                 (A) (A) (A) (A) (A) (A) (A) (A) (A) (A) (A) (A)
                 (A) (A) (A) (A) (A) (A) (A) (A) (A) (A) (A) (A)
                 (A) (A) (A) (A) (A) (A) (A) (A) (A) (A) (A) (A)
                 (A) (A) (A) (A) (A) (A) (A) (A) (A) (A) (A) (A)
                 (A) (A) (A) (A) (A) (A) (A) (A) (A) (A) (A) (A)
                 (A) (A) (A) (A) (A) (A) (A) (A) (A) (A) (A) (A)
                 (A) (A) (A) (A) (A) (A) (A) (A) (A) (A) (A) (A)
                 (A) (A) (A) (A) (A) (A) (A) (A) (A) (A) (A) (A)
                 (A) (A) (A) (A) (A) (A) (A) (A) (A) (A) (A) (A)
                 (A) (A) (A) (A) (A) (A) (A) (A) (A) (A) (A) (A)
                 (A) (A) (A) (A) (A) (A) (A) (A) (A) (A) (A) (A)
                 (A) (A) (A) (A) (A) (A) (A) (A) (A) (A) (A) (A)
                 (A) (A) (A) (A) (A) (A) (A) (A) (A) (A) (A) (A)
                 (A) (A) (A) (A) (A) (A) (A) (A) (A) (A) (A) (A)
                 (A) (A) (A) (A) (A) (A) (A) (A) (A) (A) (A) (A)
                 (A) (A) (A) (A) (A) (A) (A) (A) (A) (A) (A) (A)
                 (A) (A) (A) (A) (A) (A) (A) (A) (A) (A) (A) (A)
                 (A) (A) (A) (A) (A) (A) (A) (A) (A) (A) (A) (A)
                 (A) (A) (A) (A) (A) (A) (A) (A) (A) (A) (A) (A)
                 (A) (A) (A) (A) (A) (A) (A) (A) (A) (A) (A) (A)
                 (A) (A) (A) (A) (A) (A) (A) (A) (A) (A) (A) (A)
                 (A) (A) (A) (A) (A) (A) (A) (A) (A) (A) (A) (A)
                 (A) (A) (A) (A) (A) (A) (A) (A) (A) (A) (A) (A)
                 (A) (A) (A) (A) (A) (A) (A) (A) (A) (A) (A) (A)
                 (A) (A) (A) (A) (A) (A) (A) (A) (A) (A) (A) (A)
                 (A) (A) (A) (A) (A) (A) (A) (A) (A) (A) (A) (A)
                 (A) (A) (A) (A) (A) (A) (A) (A) (A) (A) (A) (A)
                 (A) (A) (A) (A) (A) (A) (A) (A) (A) (A) (A) (A)
                 (A) (A) (A) (A) (A) (A) (A) (A) (A) (A) (A) (A)
                 (A) (A) (A) (A) (A) (A) (A) (A) (A) (A) (A) (A)
                 (A) (A) (A) (A) (A) (A) (A) (A) (A) (A) (A) (A)
                 (A) (A) (A) (A) (A) (A) (A) (A) (A) (A) (A)
 The electronic state is 1-A.
 Alpha  occ. eigenvalues --  -10.24391 -10.21971 -10.21875 -10.20873 -10.20792
 Alpha  occ. eigenvalues --  -10.20776 -10.19708 -10.19648 -10.19595 -10.19456
 Alpha  occ. eigenvalues --  -10.19086 -10.19027 -10.18999 -10.18995 -10.18865
 Alpha  occ. eigenvalues --  -10.18848 -10.18685 -10.18684 -10.18660 -10.18339
 Alpha  occ. eigenvalues --  -10.18088 -10.18019 -10.17847 -10.17697 -10.17612
 Alpha  occ. eigenvalues --  -10.17494 -10.17457 -10.17440 -10.17314 -10.16955
 Alpha  occ. eigenvalues --   -0.92645  -0.88941  -0.87712  -0.85381  -0.84745
 Alpha  occ. eigenvalues --   -0.82620  -0.80906  -0.80287  -0.78792  -0.76196
 Alpha  occ. eigenvalues --   -0.75601  -0.74956  -0.73426  -0.71796  -0.70928
 Alpha  occ. eigenvalues --   -0.66829  -0.66527  -0.64187  -0.63447  -0.61800
 Alpha  occ. eigenvalues --   -0.60902  -0.60236  -0.58696  -0.56639  -0.55142
 Alpha  occ. eigenvalues --   -0.53175  -0.51710  -0.51352  -0.50783  -0.50347
 Alpha  occ. eigenvalues --   -0.49666  -0.47247  -0.46961  -0.46690  -0.45321
 Alpha  occ. eigenvalues --   -0.45060  -0.44764  -0.44302  -0.44224  -0.42978
 Alpha  occ. eigenvalues --   -0.42614  -0.42356  -0.41976  -0.41166  -0.40956
 Alpha  occ. eigenvalues --   -0.40155  -0.39883  -0.39123  -0.38458  -0.37723
 Alpha  occ. eigenvalues --   -0.36989  -0.36410  -0.35559  -0.35312  -0.35251
 Alpha  occ. eigenvalues --   -0.34224  -0.33592  -0.33375  -0.32649  -0.31994
 Alpha  occ. eigenvalues --   -0.29696  -0.29365  -0.26554  -0.25895  -0.25178
 Alpha  occ. eigenvalues --   -0.22388  -0.21124  -0.15222
 Alpha virt. eigenvalues --   -0.12114  -0.07860  -0.05422  -0.04651  -0.02373
 Alpha virt. eigenvalues --   -0.01214  -0.00101   0.00527   0.00742   0.01257
 Alpha virt. eigenvalues --    0.01558   0.01572   0.01749   0.02863   0.02905
 Alpha virt. eigenvalues --    0.03179   0.03397   0.04075   0.04432   0.04594
 Alpha virt. eigenvalues --    0.04701   0.04927   0.05199   0.05450   0.06270
 Alpha virt. eigenvalues --    0.06892   0.06988   0.07229   0.07710   0.08152
 Alpha virt. eigenvalues --    0.08511   0.08723   0.08779   0.09019   0.09344
 Alpha virt. eigenvalues --    0.09638   0.09874   0.10574   0.11093   0.11462
 Alpha virt. eigenvalues --    0.11529   0.12020   0.12104   0.12375   0.12588
 Alpha virt. eigenvalues --    0.12878   0.13619   0.13992   0.14151   0.14412
 Alpha virt. eigenvalues --    0.14965   0.15148   0.15214   0.15469   0.15731
 Alpha virt. eigenvalues --    0.15925   0.16148   0.16429   0.16604   0.16689
 Alpha virt. eigenvalues --    0.16778   0.17048   0.17398   0.17492   0.17872
 Alpha virt. eigenvalues --    0.18159   0.18362   0.18489   0.18622   0.18836
 Alpha virt. eigenvalues --    0.19240   0.19314   0.19563   0.19734   0.19928
 Alpha virt. eigenvalues --    0.20122   0.20312   0.20339   0.20847   0.21212
 Alpha virt. eigenvalues --    0.21421   0.21564   0.21693   0.21992   0.22213
 Alpha virt. eigenvalues --    0.22502   0.22581   0.22690   0.23015   0.23125
 Alpha virt. eigenvalues --    0.23479   0.23593   0.24035   0.24097   0.24363
 Alpha virt. eigenvalues --    0.24671   0.24914   0.25344   0.25458   0.25590
 Alpha virt. eigenvalues --    0.26044   0.26228   0.26378   0.26653   0.27217
 Alpha virt. eigenvalues --    0.27244   0.27464   0.27771   0.27907   0.28285
 Alpha virt. eigenvalues --    0.28573   0.28985   0.29104   0.29357   0.29775
 Alpha virt. eigenvalues --    0.30207   0.30509   0.30649   0.31059   0.31209
 Alpha virt. eigenvalues --    0.31512   0.32263   0.32740   0.32830   0.33268
 Alpha virt. eigenvalues --    0.33686   0.33754   0.33838   0.34475   0.34633
 Alpha virt. eigenvalues --    0.34859   0.35370   0.35602   0.36241   0.36773
 Alpha virt. eigenvalues --    0.37433   0.37740   0.37978   0.38530   0.39063
 Alpha virt. eigenvalues --    0.39841   0.40301   0.40423   0.41020   0.41755
 Alpha virt. eigenvalues --    0.42738   0.43061   0.43736   0.44421   0.44692
 Alpha virt. eigenvalues --    0.45226   0.45669   0.46514   0.47187   0.47378
 Alpha virt. eigenvalues --    0.47658   0.48726   0.48892   0.49668   0.50271
 Alpha virt. eigenvalues --    0.50544   0.51188   0.51867   0.52020   0.52585
 Alpha virt. eigenvalues --    0.53003   0.53397   0.53894   0.54295   0.54438
 Alpha virt. eigenvalues --    0.54761   0.54835   0.55300   0.55939   0.56241
 Alpha virt. eigenvalues --    0.56321   0.57152   0.57481   0.58047   0.58458
 Alpha virt. eigenvalues --    0.58737   0.58988   0.59205   0.59753   0.60282
 Alpha virt. eigenvalues --    0.60350   0.60711   0.61008   0.61304   0.61470
 Alpha virt. eigenvalues --    0.61940   0.62106   0.62415   0.63345   0.63756
 Alpha virt. eigenvalues --    0.64027   0.64573   0.64831   0.65401   0.65936
 Alpha virt. eigenvalues --    0.66010   0.66527   0.66962   0.67229   0.67493
 Alpha virt. eigenvalues --    0.67959   0.68319   0.68580   0.68997   0.69510
 Alpha virt. eigenvalues --    0.70003   0.70598   0.70920   0.71175   0.71409
 Alpha virt. eigenvalues --    0.71996   0.72269   0.72526   0.73134   0.73238
 Alpha virt. eigenvalues --    0.73691   0.73744   0.74323   0.74580   0.75130
 Alpha virt. eigenvalues --    0.75344   0.75747   0.76019   0.76421   0.76717
 Alpha virt. eigenvalues --    0.77044   0.77769   0.77843   0.78811   0.79720
 Alpha virt. eigenvalues --    0.80456   0.81692   0.82727   0.83811   0.84128
 Alpha virt. eigenvalues --    0.85023   0.86804   0.87026   0.87495   0.87811
 Alpha virt. eigenvalues --    0.88210   0.89169   0.89540   0.89989   0.90486
 Alpha virt. eigenvalues --    0.91002   0.91127   0.91677   0.92154   0.92842
 Alpha virt. eigenvalues --    0.93323   0.93577   0.94213   0.94457   0.94698
 Alpha virt. eigenvalues --    0.94877   0.95289   0.95852   0.96307   0.97016
 Alpha virt. eigenvalues --    0.97182   0.97430   0.97713   0.97802   0.98333
 Alpha virt. eigenvalues --    0.98977   0.99162   0.99499   1.00114   1.00999
 Alpha virt. eigenvalues --    1.01613   1.01990   1.02306   1.02960   1.03656
 Alpha virt. eigenvalues --    1.03946   1.04721   1.05295   1.05578   1.06418
 Alpha virt. eigenvalues --    1.06848   1.06942   1.08255   1.09139   1.09765
 Alpha virt. eigenvalues --    1.10307   1.10726   1.11231   1.12182   1.12564
 Alpha virt. eigenvalues --    1.13106   1.14831   1.15098   1.15641   1.16616
 Alpha virt. eigenvalues --    1.17038   1.18215   1.19091   1.20121   1.21076
 Alpha virt. eigenvalues --    1.22353   1.24357   1.24734   1.27471   1.28618
 Alpha virt. eigenvalues --    1.29790   1.30305   1.31816   1.31998   1.34330
 Alpha virt. eigenvalues --    1.35452   1.36088   1.37207   1.37718   1.38959
 Alpha virt. eigenvalues --    1.39345   1.40081   1.41515   1.41915   1.43347
 Alpha virt. eigenvalues --    1.44048   1.44943   1.46013   1.46650   1.47523
 Alpha virt. eigenvalues --    1.47846   1.48151   1.48413   1.48637   1.49113
 Alpha virt. eigenvalues --    1.49271   1.50523   1.50715   1.51396   1.52209
 Alpha virt. eigenvalues --    1.52909   1.53122   1.54229   1.54896   1.55979
 Alpha virt. eigenvalues --    1.56287   1.56591   1.57326   1.58257   1.58640
 Alpha virt. eigenvalues --    1.59272   1.59769   1.60113   1.60947   1.61433
 Alpha virt. eigenvalues --    1.61704   1.62725   1.63426   1.65142   1.66327
 Alpha virt. eigenvalues --    1.66537   1.67226   1.67873   1.68589   1.69713
 Alpha virt. eigenvalues --    1.70551   1.70943   1.72635   1.73000   1.73373
 Alpha virt. eigenvalues --    1.73794   1.74629   1.75342   1.75785   1.76018
 Alpha virt. eigenvalues --    1.77120   1.77326   1.78415   1.78994   1.79556
 Alpha virt. eigenvalues --    1.80839   1.81573   1.82244   1.83089   1.83480
 Alpha virt. eigenvalues --    1.83603   1.83754   1.85017   1.86454   1.86803
 Alpha virt. eigenvalues --    1.87299   1.87941   1.88437   1.88954   1.89057
 Alpha virt. eigenvalues --    1.89190   1.90000   1.90816   1.91822   1.92086
 Alpha virt. eigenvalues --    1.92660   1.93197   1.94596   1.94781   1.95550
 Alpha virt. eigenvalues --    1.96034   1.96481   1.96806   1.97899   1.98482
 Alpha virt. eigenvalues --    1.98752   2.00251   2.00299   2.01441   2.02636
 Alpha virt. eigenvalues --    2.03272   2.03989   2.04761   2.04997   2.05264
 Alpha virt. eigenvalues --    2.05974   2.07670   2.08674   2.09532   2.10223
 Alpha virt. eigenvalues --    2.11167   2.11343   2.12228   2.12709   2.13379
 Alpha virt. eigenvalues --    2.14388   2.15886   2.16178   2.16557   2.17433
 Alpha virt. eigenvalues --    2.17946   2.20184   2.20940   2.22123   2.22271
 Alpha virt. eigenvalues --    2.22618   2.23717   2.25359   2.26586   2.26828
 Alpha virt. eigenvalues --    2.27680   2.28380   2.30123   2.30701   2.31781
 Alpha virt. eigenvalues --    2.33043   2.34160   2.35522   2.37728   2.39228
 Alpha virt. eigenvalues --    2.39920   2.41161   2.41750   2.42576   2.43102
 Alpha virt. eigenvalues --    2.45593   2.45966   2.47202   2.47484   2.48128
 Alpha virt. eigenvalues --    2.49496   2.50705   2.53013   2.55274   2.56271
 Alpha virt. eigenvalues --    2.56772   2.57545   2.58150   2.58789   2.59723
 Alpha virt. eigenvalues --    2.61334   2.62505   2.63484   2.64601   2.66076
 Alpha virt. eigenvalues --    2.67613   2.68352   2.68768   2.69519   2.70051
 Alpha virt. eigenvalues --    2.70780   2.71526   2.71945   2.72320   2.73056
 Alpha virt. eigenvalues --    2.73374   2.73879   2.74380   2.74498   2.75478
 Alpha virt. eigenvalues --    2.75739   2.76431   2.76771   2.77275   2.77729
 Alpha virt. eigenvalues --    2.78079   2.79246   2.79494   2.80005   2.80272
 Alpha virt. eigenvalues --    2.81167   2.82257   2.83930   2.84126   2.84673
 Alpha virt. eigenvalues --    2.85439   2.86183   2.86612   2.87465   2.87697
 Alpha virt. eigenvalues --    2.88230   2.88798   2.89720   2.90760   2.91049
 Alpha virt. eigenvalues --    2.93210   2.94356   2.95414   2.97294   2.98934
 Alpha virt. eigenvalues --    2.99520   3.00443   3.02772   3.03344   3.05450
 Alpha virt. eigenvalues --    3.06955   3.08673   3.09740   3.11375   3.12400
 Alpha virt. eigenvalues --    3.13621   3.14197   3.14777   3.16288   3.17717
 Alpha virt. eigenvalues --    3.20470   3.21128   3.21394   3.22468   3.24869
 Alpha virt. eigenvalues --    3.26760   3.28176   3.31543   3.32862   3.34542
 Alpha virt. eigenvalues --    3.35300   3.36671   3.38033   3.38441   3.40401
 Alpha virt. eigenvalues --    3.41039   3.42179   3.43195   3.43747   3.45291
 Alpha virt. eigenvalues --    3.45756   3.47402   3.49351   3.50190   3.51376
 Alpha virt. eigenvalues --    3.52380   3.55204   3.57096   3.58045   3.60626
 Alpha virt. eigenvalues --    3.61800   3.63550   3.64159   3.68033   3.69611
 Alpha virt. eigenvalues --    3.72318   3.74961   3.80960   3.82917   3.85098
 Alpha virt. eigenvalues --    3.89731   3.94761   4.03138   4.04867   4.05884
 Alpha virt. eigenvalues --    4.06609   4.07960   4.10271   4.10912   4.13497
 Alpha virt. eigenvalues --    4.21041   4.24629   4.30231   4.33743   4.42480
 Alpha virt. eigenvalues --    4.51353   4.66146   4.71154   4.75298   4.76809
 Alpha virt. eigenvalues --    4.79703   4.82267   4.82676   4.86892   4.88575
 Alpha virt. eigenvalues --   23.39095  23.59937  23.70586  23.76071  23.77373
 Alpha virt. eigenvalues --   23.80938  23.83750  23.84547  23.85225  23.88001
 Alpha virt. eigenvalues --   23.89336  23.90087  23.92099  23.94846  23.98050
 Alpha virt. eigenvalues --   23.99540  24.00627  24.03971  24.06148  24.06535
 Alpha virt. eigenvalues --   24.09629  24.10836  24.12179  24.12901  24.15462
 Alpha virt. eigenvalues --   24.20513  24.21156  24.22347  24.22696  24.23592
          Condensed to atoms (all electrons):
               1          2          3          4          5          6
     1  C    8.554630  -0.262758  -0.079844   0.008781  -0.328540   0.228025
     2  C   -0.262758   8.677002  -0.438374  -0.181635  -0.280337   0.298688
     3  C   -0.079844  -0.438374   7.437595   0.242621  -0.043145   0.431123
     4  C    0.008781  -0.181635   0.242621   8.695740  -0.179450  -0.070341
     5  C   -0.328540  -0.280337  -0.043145  -0.179450   7.493366  -0.677111
     6  C    0.228025   0.298688   0.431123  -0.070341  -0.677111  11.252723
     7  C   -1.644959   0.175381  -0.961554  -1.797462   1.555911  -3.113461
     8  C   -0.394391   0.170545  -0.475812  -0.069673  -0.683709  -1.071677
     9  C    0.296826   0.189458   0.061153   0.998575   0.569830   0.302901
    10  C   -0.688453   0.766701   0.104642   0.501538  -0.437091  -0.267024
    11  C    0.151191  -1.073432   0.405000  -0.857021   1.253598  -0.022854
    12  C    0.189174  -0.573002   0.804257  -0.550851  -0.934094   0.593329
    13  C    0.031226   1.619121  -0.230464  -1.130755   0.322564   0.504846
    14  C   -0.892183  -1.702880   0.137415   2.310957  -0.554732  -2.224036
    15  C    0.553596  -0.295399  -0.168597   0.232561  -0.483038  -0.516043
    16  C    0.755306  -0.550951   0.241164   0.101280  -0.129400  -0.115127
    17  C   -0.251485   0.855758   0.031387  -0.219145  -0.336983   0.116093
    18  C   -0.155456   0.155252   0.503380   0.065865  -0.273672   0.019090
    19  C    0.360955  -0.336743  -0.021518  -0.234970  -0.312538   0.157814
    20  C   -0.593104   0.294913  -0.411623   0.062078   0.244950  -0.099862
    21  C    0.151021  -0.765844  -0.190794  -0.054394  -0.012834   0.037174
    22  C    0.625501  -0.907964  -1.299801  -0.192551   0.056031   0.036937
    23  C   -0.183651  -0.476267  -0.106540  -0.065250   0.165420  -0.001719
    24  C   -0.810209  -0.435084   0.176087   0.107396   0.021918  -0.045341
    25  C   -0.001100   0.069434  -0.023550  -0.032151  -0.002005  -0.007087
    26  C   -0.074492   0.393670  -0.265010   0.040591   0.059099  -0.031896
    27  C    0.053534   0.298759  -0.027652   0.081833   0.011159  -0.085835
    28  C    0.371549  -0.035524  -0.023415  -0.287911  -0.010724   0.010804
    29  C    0.670196   0.187717  -0.044157  -1.136679  -0.058738   0.129874
    30  C   -0.764011   0.642800   0.149385  -0.633588  -0.165439   0.197490
    31  H    0.042833  -0.000856   0.003405   0.013110   0.001249  -0.051096
    32  H   -0.007315  -0.001611   0.002600   0.039843  -0.008860  -0.029536
    33  H   -0.015599   0.003946  -0.002101   0.008192   0.003411  -0.136590
    34  H   -0.004300   0.003217  -0.021058   0.001204   0.042899  -0.052899
    35  H    0.005373  -0.003035   0.012275  -0.018065   0.034848   0.012877
    36  H    0.002010  -0.015672   0.023424  -0.001978  -0.004560   0.001456
    37  H   -0.000189   0.001393   0.033963   0.002997  -0.008304  -0.000236
    38  H   -0.000458  -0.015203   0.006738  -0.000060   0.000988   0.000033
    39  H    0.000182  -0.000931  -0.000452  -0.000048   0.000094  -0.000018
    40  H   -0.000902   0.002909   0.000035   0.000014  -0.000000  -0.000005
    41  H   -0.000404  -0.000004   0.000075   0.000065   0.000003   0.000003
    42  H   -0.000473  -0.000311   0.000054   0.000032   0.000008   0.000053
[...]
 0.00000085,0.01217376,0.01578545,0.00088168,-0.11380210,-0.10876485,-0
 .00712920,-0.00975991,-0.02914027,-0.00303252,-0.00488457,0.00101532,0
 .00035358,-0.00000845,0.00000201,-0.00004333,-0.00002286,0.00000457,-0
 .00000300,-0.00000308,0.00000459,-0.00000156,-0.00000550,-0.00000126,-
 0.00000104,-0.00000528,-0.00000295,-0.00000128,0.00000144,-0.00000235,
 -0.00000068,-0.00000015,-0.00000032,-0.00000162,-0.00000314,-0.0000003
 1,0.00000081,0.00000547,-0.00000744,-0.00000011,0.00002355,0.00008202,
 0.00001375,-0.00004518,-0.00000329,0.00000234,0.00071043,-0.00054977,0
 .00003318,0.11657138,0.00012462,0.00016654,-0.00006535,0.00002773,-0.0
 0006095,-0.00001303,-0.00000744,-0.00006584,-0.00000002,-0.00016419,-0
 .00003621,0.00004346,0.00003419,0.00010361,-0.00001200,0.00001107,-0.0
 0005149,-0.00000209,0.00005892,0.00000271,0.00000990,0.00001683,-0.000
 07808,0.00000584,-0.00008054,0.00001723,-0.00000257,0.00001316,0.00001
 527,0.00000462,-0.00005014,-0.00002082,-0.00000424,0.00003097,-0.00001
 491,0.00000132,-0.00026079,-0.00017559,-0.00007983,-0.00004015,-0.0000
 2866,0.00008425,0.00002025,0.00003444,-0.00004362,-0.00004311,-0.00002
 160,0.00000503,-0.00003532,0.00001582,0.00000184,-0.00000072,0.0000137
 6,-0.00000070,-0.00010559,0.00006880,0.00008985,0.00016378,0.00009063,
 -0.00002127,-0.00002383,-0.00003066,0.00000066,0.00002102,0.00002163,0
 .00000143,0.00046849,0.00021524,-0.00006458,0.00411896,-0.00205629,-0.
 00102533,-0.00106862,-0.00073082,0.00012114,0.00034395,-0.00039509,0.0
 0007005,-0.01501111,-0.01838775,-0.00144910,-0.10914459,-0.27798254,-0
 .01783152,0.00131926,0.00170894,-0.00017309,0.00089356,0.00179826,-0.0
 0012272,0.00006521,0.00001407,-0.00000903,-0.00000527,0.00000628,-0.00
 000129,-0.00000544,0.00000762,-0.00000286,-0.00001005,-0.00000303,-0.0
 0000172,-0.00000857,-0.00000408,-0.00000055,-0.00000033,-0.00000578,0.
 00000024,-0.00000172,-0.00000803,-0.00000107,-0.00000501,-0.00000842,-
 0.00000089,0.00000601,0.00000337,-0.00000132,-0.00004665,-0.00013323,-
 0.00002403,0.00005977,0.00000033,-0.00001992,0.00029564,0.00092835,0.0
 0046967,0.11824176,0.29416607,-0.00012992,0.00005201,-0.00019738,0.000
 05008,0.00002382,-0.00001083,-0.00003214,-0.00011678,-0.00000753,-0.00
 003099,-0.00001730,-0.00003217,-0.00005809,0.00002892,0.00001605,0.000
 02184,-0.00004307,-0.00001222,0.00002468,-0.00002565,0.00000739,-0.000
 01747,0.00001075,-0.00000894,0.00005720,0.00000178,0.00001463,-0.00002
 952,0.00009504,0.00000052,-0.00002912,-0.00002233,-0.00000252,0.000016
 25,-0.00003452,0.00000050,-0.00017029,-0.00054277,0.00028130,-0.000015
 55,-0.00000359,0.00002088,0.00002292,0.00000254,-0.00000944,-0.0000838
 7,-0.00000802,-0.00000780,-0.00009462,0.00011044,0.00002726,0.00008236
 ,-0.00002371,-0.00000043,0.00000754,0.00006633,-0.00076457,0.00029990,
 0.00016413,0.00008841,-0.00008576,-0.00020069,0.00005091,0.00015231,0.
 00002565,-0.00001815,0.00020936,-0.00017879,-0.00046320,0.00037912,-0.
 00132201,0.00732463,-0.00027541,0.00038908,-0.00000033,-0.00021662,-0.
 00035517,-0.00049460,-0.00193516,0.00037680,0.00404942,-0.00576367,-0.
 01920945,-0.03996610,-0.00112285,-0.00041708,0.00344783,-0.00010284,0.
 00019801,0.00723242,0.00000620,0.00001183,0.00000919,-0.00000770,0.000
 00416,0.00000669,-0.00000506,0.00000188,-0.00000071,-0.00000251,-0.000
 00231,0.00000094,-0.00000145,-0.00000317,0.00000081,-0.00000071,-0.000
 00104,0.00000235,0.00000022,-0.00000511,0.00000757,0.00000525,-0.00000
 424,0.00000153,-0.00000087,0.00000237,-0.00000060,-0.00001239,-0.00002
 390,0.00003057,0.00001150,-0.00000807,0.00010388,-0.00008854,0.0002458
 6,-0.00380521,0.00866679,0.01967110,0.02742500,-0.00007193,0.00030565,
 0.00005866,0.00010611,-0.00003638,-0.00003556,-0.00003815,-0.00007399,
 0.00000810,-0.00020253,-0.00001118,0.00004835,-0.00000665,0.00007216,-
 0.00003080,0.00001758,-0.00020898,0.00012825,0.00007347,0.00003963,0.0
 0002306,0.00005476,-0.00011905,-0.00000074,0.00000050,0.00004519,0.000
 01411,-0.00000943,0.00008454,-0.00000320,-0.00007251,-0.00001753,-0.00
 000600,0.00003834,-0.00007508,0.00000133,0.00012636,-0.00051371,-0.000
 69327,-0.00626529,-0.00117695,-0.00136080,-0.00046791,-0.00020562,-0.0
 0007211,-0.00000371,0.00007829,-0.00000560,-0.00008695,0.00007251,-0.0
 0000286,0.00005281,-0.00000450,0.00000007,0.00074128,-0.00048596,0.000
 11370,0.00004753,-0.00004152,0.00003224,0.00003042,-0.00019367,-0.0000
 1148,0.00012174,0.00006115,-0.00000047,-0.00199526,-0.00228614,-0.0005
 6478,-0.00033042,-0.00113866,-0.00004088,-0.00000051,0.00044618,-0.000
 00084,-0.00017281,-0.00018758,0.00001243,-0.00564255,-0.00173858,0.000
 13804,-0.01349547,0.02886939,0.00286026,-0.13361263,0.13051833,0.01523
 586,0.01068975,-0.01373885,-0.00029502,-0.00388509,-0.00029463,-0.0010
 4215,0.00010363,-0.00001690,-0.00002391,0.00000354,-0.00000081,-0.0000
 0117,-0.00000222,-0.00000016,-0.00000399,0.00000039,-0.00000417,0.0000
 0098,0.00000256,0.00000237,0.00000284,-0.00000161,-0.00000218,0.000001
 65,0.00000415,-0.00000139,0.00000044,-0.00000898,-0.00002531,-0.000002
 31,0.00000304,0.00001638,-0.00000136,0.00008027,-0.00005725,-0.0000034
 5,-0.00071894,0.00129223,-0.00000030,0.00095930,-0.00023881,-0.0000576
 5,0.15531118,-0.00025132,0.00018718,0.00006086,0.00000558,-0.00008332,
 -0.00001906,0.00004012,0.00006196,-0.00000592,-0.00016092,-0.00013735,
 0.00008016,0.00007812,0.00011280,-0.00004917,0.00048832,-0.00014086,-0
 .00000442,0.00003632,0.00014591,-0.00003583,0.00011957,-0.00010517,0.0
 0002301,-0.00013864,-0.00008346,0.00000367,-0.00011387,-0.00001710,0.0
 0000101,0.00009907,-0.00003369,0.00000802,-0.00001507,0.00010749,0.000
 00425,0.00152767,-0.00179838,0.00015489,0.00223259,-0.00014289,0.00105
 068,-0.00006776,0.00112376,-0.00020093,0.00008940,0.00013009,-0.000021
 72,-0.00010518,-0.00001941,0.00001082,0.00005667,0.00000095,-0.0000021
 8,0.00117693,-0.00022720,-0.00003992,0.00000906,-0.00030275,0.00010511
 ,0.00008570,-0.00007974,-0.00001691,0.00007974,0.00000781,0.00000192,-
 0.00368492,-0.00188419,-0.00147217,-0.00070666,-0.00051290,0.00014836,
 0.00001447,0.00039352,0.00007784,-0.00027690,-0.00021794,0.00000135,-0
 .00094124,0.00214703,-0.00062680,-0.00254230,0.00468575,0.00016411,0.1
 2766067,-0.26819882,-0.02708699,0.01293146,-0.01801561,-0.00088423,0.0
 0138548,0.00122968,-0.00090550,0.00007120,-0.00004317,0.00000124,0.000
 00656,-0.00000263,-0.00000215,0.00000102,0.00001575,0.00000360,-0.0000
 0337,-0.00000051,-0.00000244,0.00000201,-0.00000048,-0.00000242,-0.000
 00445,-0.00000218,-0.00000063,-0.00000635,-0.00000427,-0.00000017,-0.0
 0000789,-0.00004426,-0.00000023,0.00000968,-0.00001164,-0.00000978,0.0
 0003916,-0.00002348,-0.00000877,-0.00021487,0.00007678,-0.00004866,0.0
 0024783,0.00088787,0.00054188,-0.13949185,0.28086424,0.00060387,0.0004
 8442,-0.00097210,0.00010841,-0.00019743,-0.00001493,0.00009328,-0.0001
 0932,-0.00000986,-0.00047662,-0.00014506,0.00007593,0.00013692,0.00038
 830,0.00023618,0.00013084,0.00011810,0.00036979,0.00003335,0.00001118,
 0.00015537,0.00006911,-0.00010706,-0.00003288,-0.00018738,0.00000446,0
 .00000710,0.00007144,-0.00000363,0.00000512,-0.00014796,-0.00008996,-0
 .00000095,0.00011777,-0.00000333,-0.00002612,-0.00151867,-0.00107052,-
 0.00024200,0.00039269,0.00059762,-0.00079961,-0.00023047,0.00010120,-0
 .00079235,-0.00014163,-0.00000352,-0.00002008,0.00005437,0.00003154,-0
 .00001658,-0.00005611,0.00005564,0.00001231,0.00013294,0.00023192,-0.0
 0009958,-0.00003338,-0.00011698,-0.00023158,0.00009788,-0.00000560,0.0
 0012766,-0.00003086,0.00006674,0.00000013,-0.00053194,0.00015327,0.003
 56443,-0.00016397,0.00002712,-0.00063345,0.00012549,-0.00008221,-0.000
 54066,-0.00008392,0.00012953,0.00000257,0.00007592,-0.00036926,0.00601
 667,-0.00005903,-0.00009455,0.00272808,0.01653599,-0.02668724,-0.02760
 822,0.00111291,-0.00197203,0.00134059,-0.00363495,-0.00001910,-0.00004
 052,0.00000614,-0.00002018,-0.00008211,-0.00000473,0.00000518,0.000002
 88,-0.00000622,-0.00000472,-0.00002565,-0.00000688,-0.00000530,-0.0000
 0458,0.00000901,0.00000029,0.00000139,0.00000080,-0.00000270,0.0000059
 4,0.00000296,0.00000048,-0.00000898,-0.00000054,-0.00000054,-0.0000442
 2,0.00000559,0.00000383,0.00004564,0.00000075,0.00000002,0.00005615,-0
 .00004192,-0.00001966,0.00087124,-0.00024269,0.00029494,-0.00412448,-0
 .01498265,0.02838303,0.02084628,-0.00141921,-0.00027346,0.00046144,-0.
 00015441,0.00063447,-0.00005144,-0.00000627,0.00005891,-0.00003509,0.0
 0176440,-0.00076326,-0.00074016,-0.00036338,-0.00031030,0.00009177,-0.
 00107571,0.00450932,-0.00150913,-0.00153921,-0.00093176,0.00185064,-0.
 00045616,0.00146410,-0.00000982,0.00064943,-0.00066312,0.00013775,-0.0
 0007314,0.00001817,0.00003299,0.00018323,-0.00010855,0.00001468,-0.000
 08596,0.00031323,-0.00002651,0.00592039,0.00192429,0.00757690,-0.05230
 571,-0.01861229,-0.04972115,-0.01689920,-0.01516947,-0.02577838,0.0005
 4844,-0.00017769,-0.00005757,0.00009488,-0.00002764,-0.00004036,0.0000
 5295,0.00000468,-0.00000865,-0.00021952,-0.00057023,-0.00009345,-0.000
 87669,0.00001396,0.00004720,-0.00000352,0.00019333,0.00003738,-0.00017
 364,-0.00022154,0.00000253,-0.00097501,0.00132621,-0.00057052,0.001131
 57,0.00207274,-0.00021936,0.00002297,-0.00071473,0.00003864,0.00066152
 ,0.00046167,-0.00002896,0.00102248,-0.00248940,-0.00019364,-0.00268520
 ,0.00074785,-0.00119878,0.00348875,-0.00106827,0.00044034,0.00218934,0
 .00034091,0.00445403,0.00193191,0.00434783,0.01193206,-0.00005519,0.00
 075386,0.00072883,-0.00008034,0.00000403,-0.00008376,0.00001402,-0.000
 04568,-0.00023426,-0.00000275,0.00001115,-0.00000573,-0.00000449,-0.00
 000687,0.00000064,-0.00000462,-0.00000950,0.00000010,-0.00001013,-0.00
 000786,0.00000574,0.00000698,-0.00001598,-0.00000257,0.00001446,-0.000
 01797,-0.00000824,-0.00000517,0.00001638,-0.00000762,0.00001240,-0.000
 06827,0.00030264,-0.00000876,0.00005265,0.00007376,-0.00123159,0.00012
 672,0.00211898,0.06436494,0.00302126,-0.00024144,-0.00076961,-0.000552
 83,-0.00105951,0.00019114,0.00051606,0.00029094,0.00001551,-0.00145918
 ,-0.00055370,0.00080932,0.00065093,0.00071240,0.00000357,0.00087779,0.
 00122770,-0.00010169,-0.00063303,-0.00019731,-0.00021314,0.00032811,0.
 00010231,0.00003478,-0.00071690,-0.00055948,-0.00001190,-0.00011914,-0
 .00029543,-0.00012861,0.00021750,-0.00014979,0.00006469,-0.00001869,0.
 00055746,0.00000137,-0.00211884,-0.02082890,-0.02497954,-0.01818357,-0
 .07479266,-0.08036245,-0.00512829,0.00191638,0.00037101,0.00010864,0.0
 0023947,0.00004936,0.00017316,-0.00034170,0.00007948,-0.00014838,0.000
 16883,0.00002514,0.00008353,0.00029019,-0.00009120,0.00013923,-0.00055
 662,-0.00003525,0.00011710,0.00038595,-0.00001606,-0.00017725,-0.00002
 054,0.00002058,0.00030918,-0.00054570,0.00056624,0.00021043,0.00034107
 ,0.00033151,-0.00005197,-0.00018942,-0.00000479,-0.00006824,0.00011894
 ,-0.00001201,0.00046768,-0.00018966,-0.00022283,-0.00066642,0.00003476
 ,-0.00010509,0.00079147,0.00060096,0.00134606,-0.00171644,0.00095720,-
 0.00067737,0.00277356,0.00644298,0.01607320,-0.00009235,-0.00027098,-0
 .00053368,0.00007669,-0.00000940,0.00000360,-0.00001749,0.00001034,0.0
 0001848,-0.00000357,0.00000696,-0.00002394,0.00001066,0.00000731,-0.00
 001292,0.00000122,0.00001648,-0.00000352,-0.00001817,0.00001378,-0.000
 02172,0.00000751,-0.00000294,-0.00000115,0.00000123,-0.00001422,0.0000
 0308,-0.00001143,0.00001616,0.00002546,-0.00002031,-0.00000803,0.00001
 473,0.00000986,0.00002503,0.00001174,0.00035383,0.00038119,-0.00032642
 ,0.02093431,0.08857927,0.00025264,0.00043378,-0.00145214,-0.00011246,-
 0.00009358,-0.00012217,0.00020921,0.00008970,0.00002643,0.00068063,-0.
 00182120,-0.00002216,0.00027281,0.00045259,-0.00001072,0.00150860,0.00
 396990,-0.00102590,-0.00107763,-0.00059551,-0.00034832,0.00005519,0.00
 090150,0.00000083,-0.00011470,-0.00082964,0.00006881,-0.00009051,-0.00
 017352,0.00003185,0.00023747,-0.00025349,0.00002010,-0.00001401,0.0006
 1101,-0.00000650,0.00369074,-0.00543354,0.00163710,-0.04352706,-0.0772
 7507,-0.21152864,-0.00878866,-0.00066285,0.00129016,0.00003768,0.00001
 811,-0.00001832,0.00008846,-0.00016900,0.00000850,-0.00003268,0.000073
 86,0.00000524,-0.00002315,0.00028860,-0.00002906,-0.00006089,-0.000318
 88,0.00000452,0.00008171,0.00025479,0.00000743,-0.00017801,-0.00008526
 ,0.00000223,0.00038340,-0.00031997,-0.00015216,0.00026784,0.00061426,-
 0.00002175,-0.00002289,-0.00019220,0.00000843,0.00003918,0.00013859,-0
 .00000526,0.00060388,-0.00071296,-0.00010279,-0.00125858,0.00073803,-0
 .00062052,0.00136048,-0.00017530,-0.00066316,-0.00155722,-0.00051339,0
 .00046844,-0.00362042,-0.00816982,-0.02516048,-0.00078864,-0.00000046,
 0.00005980,0.00000786,-0.00000701,0.00000843,-0.00000897,0.00001845,0.
 00003194,-0.00001098,0.00000301,-0.00001170,0.00001021,-0.00000163,-0.
 00001024,-0.00000123,0.00000158,-0.00000297,-0.00001141,0.00000110,0.0
 0000131,0.00001062,-0.00000547,-0.00000011,0.00000603,-0.00001579,-0.0
 0000532,-0.00000387,0.00001300,0.00000226,-0.00005239,0.00003400,0.000
 19278,0.00004740,0.00001093,0.00000656,0.00071128,0.00068949,0.0004878
 5,0.05133894,0.08915356,0.23596190,-0.04600530,-0.03112807,0.01307625,
 -0.00230637,0.00828820,0.00012763,-0.00539570,-0.00153283,0.00036897,0
 .02900569,-0.00067072,0.00278002,-0.00655827,-0.01205266,-0.00099349,0
 .00294336,0.01040540,-0.00112109,-0.00307544,-0.00184163,-0.00056559,-
 0.00150787,0.00654321,-0.00059916,0.01077160,-0.00212964,0.00077640,-0
 .00131788,0.00366534,0.00039427,0.00057945,0.00026475,-0.00024292,-0.0
 0095091,-0.00208432,-0.00005052,0.04773826,0.01890240,-0.06941571,0.00
 427453,0.00962218,0.00699549,-0.00769869,-0.00513275,-0.00097634,0.004
 24190,-0.00042821,-0.00078827,-0.00132995,0.00027620,-0.00004969,0.001
 79358,-0.00181538,-0.00021944,-0.00216816,-0.01207409,-0.00016755,-0.0
 0551948,0.00601713,0.00081359,-0.00227007,-0.00286331,0.00009919,0.001
 94550,-0.00036561,-0.00005344,-0.01429586,0.02994842,-0.01496822,0.001
 90710,0.00474196,-0.00063712,-0.00027012,-0.00097746,0.00018961,0.0028
 5888,0.00091269,-0.00003228,-0.00361340,0.00450331,0.00093154,0.015627
 04,-0.00758466,-0.00177033,-0.02837172,-0.03266049,-0.01423682,0.03982
 920,0.01118121,0.05738140,-0.00208358,-0.00213085,0.00181182,-0.000110
 33,0.00016277,0.00053480,-0.00015210,-0.00006918,0.00006663,0.00001910
 ,0.00012518,0.00008103,0.00002745,-0.00003917,0.00006232,-0.00016455,-
 0.00003013,0.00003163,0.00004746,-0.00010822,0.00001157,0.00004771,-0.
 00006014,-0.00001433,-0.00007376,-0.00007658,-0.00006007,0.00003864,-0
 .00000033,-0.00003470,0.00001719,-0.00001864,-0.00005869,0.00015176,0.
 00007219,0.00005242,0.00037371,-0.00002983,0.00028353,-0.00024560,0.00
 011249,0.00054510,-0.00336006,-0.00025847,-0.00054590,-0.02539394,0.00
 083425,0.00389347,0.00601112,-0.00004679,-0.00196612,-0.00029427,0.000
 85616,0.00055401,-0.00009734,-0.00292267,0.00072137,0.00025922,0.00042
 488,0.00135073,-0.00064065,-0.00034643,-0.00188257,0.00062091,0.000717
 94,0.00019703,0.00004844,0.00025836,-0.00098837,0.00011316,-0.00118622
 ,0.00029737,-0.00007369,-0.00019615,-0.00078154,-0.00012444,0.00004430
 ,-0.00013628,0.00002844,0.00026297,0.00023762,0.00009869,-0.00514105,-
 0.01141219,0.00468366,-0.00284718,-0.00370504,-0.00824621,0.00207633,0
 .00188395,0.00103090,0.00017323,0.00037749,0.00027965,0.00009044,-0.00
 026602,0.00001458,-0.00022279,0.00040368,0.00005453,0.00031933,-0.0006
 8743,-0.00016127,0.00065908,-0.00011239,-0.00062948,0.00023340,0.00022
 926,-0.00000617,-0.00013061,0.00024128,0.00001738,0.00633827,-0.004856
 77,0.01442355,0.00049729,-0.00032893,0.00013680,-0.00030758,-0.0002350
 5,-0.00025658,0.00002498,-0.00035850,0.00003462,0.00005704,0.00003561,
 -0.00039216,-0.00042999,-0.00081306,0.00008221,-0.00586691,-0.00255933
 ,-0.01313152,-0.00030595,-0.01850834,-0.00509038,0.00129231,-0.0002068
 6,-0.00089139,0.00017013,-0.00013864,-0.00078724,0.00003228,0.00001090
 ,-0.00003434,-0.00000892,-0.00002621,-0.00000701,-0.00000531,-0.000008
 33,-0.00000444,0.00004826,0.00000779,0.00000610,-0.00000190,0.00002205
 ,-0.00000393,-0.00001376,0.00001664,0.00000074,0.00000410,0.00003712,0
 .00004406,-0.00002929,0.00000989,0.00004007,-0.00002868,0.00002515,0.0
 0002956,-0.00000607,-0.00005369,0.00000749,0.00013797,-0.00001198,0.00
 053264,0.00012955,-0.00042632,0.00036749,0.00194306,-0.00261662,-0.000
 68430,0.00241831,0.04253418,0.00134735,0.00273460,0.00736966,-0.000055
 71,0.00142915,-0.00036455,-0.00024621,0.00138240,-0.00009269,-0.000454
 63,0.00103265,0.00090572,0.00043845,-0.00090346,-0.00056974,-0.0023748
 6,-0.00212486,0.00030682,0.00021459,0.00080234,-0.00005643,-0.00026973
 ,-0.00048524,0.00000966,-0.00051691,0.00062098,-0.00030839,0.00035425,
 -0.00053170,0.00008821,0.00074977,0.00091525,0.00011043,-0.00086084,0.
 00011603,0.00008239,0.01922308,-0.00509552,-0.05528538,-0.00216987,-0.
 00270126,-0.00020687,0.00247334,0.00088236,0.00017988,0.00149059,0.000
 12154,-0.00039131,0.00015012,-0.00033820,-0.00006177,-0.00034335,-0.00
 031010,-0.00003677,-0.00063100,-0.00158928,0.00037766,-0.00112379,0.00
 030495,0.00007137,-0.00033158,0.00029591,-0.00001927,-0.00010080,-0.00
 024567,0.00003020,-0.00193092,0.00752765,0.00146153,0.00077568,0.00108
 482,0.00014871,-0.00012647,-0.00035476,-0.00005253,0.00069480,0.000317
 39,-0.00002888,0.00021024,0.00084560,-0.00065152,0.00262583,-0.0018030
 1,0.00027471,-0.00409025,-0.00769290,0.00477817,-0.03350854,0.00296960
 ,-0.10423772,-0.00068715,-0.00129070,0.00231774,-0.00034700,0.00011865
 ,0.00059437,0.00001966,-0.00003494,0.00000003,0.00007342,0.00001030,-0
 .00001086,0.00004803,0.00005922,0.00000328,-0.00005720,0.00000185,-0.0
 0007621,-0.00002367,0.00003408,0.00000207,-0.00002717,-0.00000837,0.00
 001236,-0.00000046,-0.00004935,-0.00001825,0.00002049,-0.00005916,0.00
 001344,0.00005250,-0.00002560,0.00005393,0.00005798,-0.00001445,0.0000
 7647,0.00028261,0.00008747,-0.00023002,-0.00014828,-0.00006831,-0.0005
 8781,-0.00106284,-0.00055874,0.00098750,0.02018645,0.00259079,0.143030
 64\\0.00000721,0.00000511,0.00000043,0.00000121,-0.00000018,-0.0000008
 4,0.00000015,-0.00000136,-0.00000093,-0.00000563,-0.00000122,-0.000002
 32,0.00000172,-0.00000015,-0.00000276,-0.00000200,-0.00000259,-0.00000
 317,-0.00000108,-0.00000319,-0.00000413,0.00000005,-0.00000431,-0.0000
 0383,-0.00000238,-0.00000224,-0.00000357,0.00000315,-0.00000286,-0.000
 00080,0.00000128,-0.00000175,-0.00000121,0.00000160,-0.00000363,-0.000
 00243,-0.00000871,-0.00000146,-0.00000449,-0.00000389,-0.00000232,0.00
 000113,-0.00000173,-0.00000252,-0.00000345,0.00000118,-0.00000027,0.00
 000106,0.00000219,-0.00000050,0.00000167,0.00000171,-0.00000007,0.0000
 0114,0.00000131,0.00000187,0.00000216,0.00000107,0.00000049,0.00000301
 ,0.00000231,0.00000283,0.00000365,0.00000238,0.00000113,0.00000277,0.0
 0000131,0.00000002,-0.00000192,-0.00000160,0.00000306,0.00000380,0.000
 00054,0.00000213,0.00000417,0.00000207,0.00000411,0.00000402,-0.000000
 39,0.00000269,0.00000112,-0.00000388,0.00000308,0.00000220,-0.00000134
 ,0.00000197,-0.00000212,-0.00000046,0.00000405,0.00000478,-0.00000265,
 -0.00000077,-0.00000307,-0.00000285,-0.00000177,-0.00000334,-0.0000019
 1,-0.00000370,-0.00000524,-0.00000044,-0.00000438,-0.00000504,0.000001
 53,-0.00000413,-0.00000336,0.00000265,-0.00000288,-0.00000129,0.000003
 23,-0.00000088,0.00000114,0.00000355,0.00000069,0.00000305,0.00000306,
 0.00000237,0.00000445,0.00000199,0.00000354,0.00000498,0.00000028,0.00
 000415,0.00000462,-0.00000137,0.00000394,0.00000302,-0.00000315,0.0000
 0304,0.00000177,-0.00000073,0.00000055,-0.00000052,-0.00000447,0.00000
 065,-0.00000291,0.00000192,-0.00000231,0.00000261\\\@


 WISDOM IS KNOWING WHAT TO DO,
 SKILL IS KNOWING HOW TO DO IT,
 AND VIRTUE IS NOT DOING IT.
 Job cpu time:       0 days 22 hours 47 minutes  3.6 seconds.
 Elapsed time:       0 days  1 hours  8 minutes 32.7 seconds.
 File lengths (MBytes):  RWF=   2275 Int=      0 D2E=      0 Chk=     49 Scr=      1
 Normal termination of Gaussian 16 at Thu Aug  8 18:10:03 2019.
