 Entering Gaussian System, Link 0=/share/apps/gaussian16/g16/g16
 Initial command:
 /share/apps/gaussian16/g16/l1.exe "/home/amen01//scratch/711/Gau-45388.inp" -scrdir="/home/amen01//scratch/711/"
 Entering Link 1 = /share/apps/gaussian16/g16/l1.exe PID=     45389.
  
 Copyright (c) 1988-2017, Gaussian, Inc.  All Rights Reserved.
  
 This is part of the Gaussian(R) 16 program.  It is based on
 the Gaussian(R) 09 system (copyright 2009, Gaussian, Inc.),
 the Gaussian(R) 03 system (copyright 2003, Gaussian, Inc.),
 the Gaussian(R) 98 system (copyright 1998, Gaussian, Inc.),
 the Gaussian(R) 94 system (copyright 1995, Gaussian, Inc.),
 the Gaussian 92(TM) system (copyright 1992, Gaussian, Inc.),
 the Gaussian 90(TM) system (copyright 1990, Gaussian, Inc.),
 the Gaussian 88(TM) system (copyright 1988, Gaussian, Inc.),
 the Gaussian 86(TM) system (copyright 1986, Carnegie Mellon
 University), and the Gaussian 82(TM) system (copyright 1983,
 Carnegie Mellon University). Gaussian is a federally registered
 trademark of Gaussian, Inc.
  
 This software contains proprietary and confidential information,
 including trade secrets, belonging to Gaussian, Inc.
  
 This software is provided under written license and may be
 used, copied, transmitted, or stored only in accord with that
 written license.
  
 The following legend is applicable only to US Government
 contracts under FAR:
  
                    RESTRICTED RIGHTS LEGEND
  
 Use, reproduction and disclosure by the US Government is
 subject to restrictions as set forth in subparagraphs (a)
 and (c) of the Commercial Computer Software - Restricted
 Rights clause in FAR 52.227-19.
  
 Gaussian, Inc.
 340 Quinnipiac St., Bldg. 40, Wallingford CT 06492
  
  
 ---------------------------------------------------------------
 Warning -- This program may not be used in any manner that
 competes with the business of Gaussian, Inc. or will provide
 assistance to any competitor of Gaussian, Inc.  The licensee
 of this program is prohibited from giving any competitor of
 Gaussian, Inc. access to this program.  By using this program,
 the user acknowledges that Gaussian, Inc. is engaged in the
 business of creating and licensing software in the field of
 computational chemistry and represents and warrants to the
 licensee that it is not a competitor of Gaussian, Inc. and that
 it will not use this program in any manner prohibited above.
 ---------------------------------------------------------------
  

 Cite this work as:
 Gaussian 16, Revision B.01,
 M. J. Frisch, G. W. Trucks, H. B. Schlegel, G. E. Scuseria, 
 M. A. Robb, J. R. Cheeseman, G. Scalmani, V. Barone, 
 G. A. Petersson, H. Nakatsuji, X. Li, M. Caricato, A. V. Marenich, 
 J. Bloino, B. G. Janesko, R. Gomperts, B. Mennucci, H. P. Hratchian, 
 J. V. Ortiz, A. F. Izmaylov, J. L. Sonnenberg, D. Williams-Young, 
 F. Ding, F. Lipparini, F. Egidi, J. Goings, B. Peng, A. Petrone, 
 T. Henderson, D. Ranasinghe, V. G. Zakrzewski, J. Gao, N. Rega, 
 G. Zheng, W. Liang, M. Hada, M. Ehara, K. Toyota, R. Fukuda, 
 J. Hasegawa, M. Ishida, T. Nakajima, Y. Honda, O. Kitao, H. Nakai, 
 T. Vreven, K. Throssell, J. A. Montgomery, Jr., J. E. Peralta, 
 F. Ogliaro, M. J. Bearpark, J. J. Heyd, E. N. Brothers, K. N. Kudin, 
 V. N. Staroverov, T. A. Keith, R. Kobayashi, J. Normand, 
 K. Raghavachari, A. P. Rendell, J. C. Burant, S. S. Iyengar, 
 J. Tomasi, M. Cossi, J. M. Millam, M. Klene, C. Adamo, R. Cammi, 
 J. W. Ochterski, R. L. Martin, K. Morokuma, O. Farkas, 
 J. B. Foresman, and D. J. Fox, Gaussian, Inc., Wallingford CT, 2016.
 
 ******************************************
 Gaussian 16:  ES64L-G16RevB.01 20-Dec-2017
                26-Jul-2019 
 ******************************************
 %nprocshared=20
 Will use up to   20 processors via shared memory.
 %mem=180GB
 %Chk=7-memb2-haddTSguess-4a.chk
 ----------------------------------------------------------------------
 # opt=(tight,ts,modredundant,calcfc,noeigen) freq b3lyp/6-311+g(d,p) i
 nt=grid=fine
 ----------------------------------------------------------------------
 1/5=1,7=10,10=4,11=1,18=120,26=3,38=1/1,3;
 2/9=110,12=2,17=6,18=5,40=1/2;
 3/5=4,6=6,7=111,11=2,25=1,30=1,71=2,74=-5,75=-4,140=1/1,2,3;
 4//1;
 5/5=2,38=5/2;
 8/6=4,10=90,11=11/1;
 11/6=1,8=1,9=11,15=111,16=1/1,2,10;
 10/6=1,13=1/2;
 6/7=2,8=2,9=2,10=2,28=1/1;
 7/10=1,18=20,25=1/1,2,3,16;
 1/5=1,7=10,10=4,11=1,18=20,26=3/3(2);
 2/9=110/2;
 99//99;
 2/9=110/2;
 3/5=4,6=6,7=111,11=2,25=1,30=1,71=1,74=-5,75=-4/1,2,3;
 4/5=5,16=3,69=1/1;
 5/5=2,38=5/2;
 7//1,2,3,16;
 1/5=1,7=10,11=1,18=20,26=3/3(-5);
 2/9=110/2;
 6/7=2,8=2,9=2,10=2,19=2,28=1/1;
 99/9=1/99;
 ----------------------
 7-memb2-haddTSguess-4a
 ----------------------
 Symbolic Z-matrix:
 Charge =  0 Multiplicity = 1
 C                     0.7029   -0.908     0.1503 
 C                     0.525     0.5206    0.3043 
 C                     1.814     1.0649    0.5143 
 C                     2.0383   -1.1907    0.2556 
 C                     2.7505    0.0251    0.4785 
 C                     2.7212   -2.3458   -0.257 
 C                     4.177    -2.1886   -0.3786 
 C                     4.8189   -1.0069   -0.1339 
 C                     4.0867    0.2092    0.2395 
 C                     2.1893    2.397     0.3681 
 C                     3.6131    2.6307    0.2897 
 C                     4.5183    1.5857    0.2163 
 C                    -0.2245   -1.8711   -0.4908 
 C                     0.4178   -3.2948   -0.3883 
 C                     1.9188   -3.3691   -0.6521 
 C                    -0.5545    1.3618    0.0354 
 C                    -0.2029    2.7838   -0.0373 
 C                     1.1132    3.2696    0.1185 
 C                    -1.9335    0.9032   -0.1503 
 C                    -2.8895    1.933    -0.362 
 C                    -2.5092    3.3092   -0.5041 
 C                    -1.2334    3.7247   -0.3411 
 C                    -2.4235   -0.4895    0.0007 
 C                    -3.8495   -0.6449    0.1634 
 C                    -4.7478    0.4401   -0.0484 
 C                    -4.2869    1.6725   -0.362 
 C                    -4.4417   -1.8821    0.5081 
 C                    -3.6764   -3.004     0.6565 
 C                    -2.309    -2.9147    0.3667 
 C                    -1.671    -1.7368    0.0083 
 H                    -0.2581   -1.6013   -1.5636 
 H                     0.38901  -4.33779   0.30455 
 H                     2.3178   -4.2827   -1.0816 
 H                     4.7599   -3.0476   -0.6955 
 H                     5.8944   -0.9545   -0.2706 
 H                     5.5707    1.8143    0.0816 
 H                     3.9808    3.6491    0.2175 
 H                     1.2793    4.3335   -0.0187 
 H                    -0.9751    4.7744   -0.4278 
 H                    -3.2963    4.0253   -0.7134 
 H                    -4.9694    2.4939   -0.5493 
 H                    -5.8117    0.2471    0.0345 
 H                    -5.5168   -1.9149    0.6463 
 H                    -4.1138   -3.9542    0.9403 
 H                    -1.738    -3.8306    0.3986 
 H                    -0.3562   -4.49247  -0.31607 
 
 Add virtual bond connecting atoms H46        and H32        Dist= 1.86D+00.
 The following ModRedundant input section has been read:
 B      32      46 0.7100 B                                                    
 
 Iteration  1 RMS(Cart)=  0.01106028 RMS(Int)=  0.01789815
 Iteration  2 RMS(Cart)=  0.01106009 RMS(Int)=  0.00650213
 Iteration  3 RMS(Cart)=  0.00631037 RMS(Int)=  0.00000214
 Iteration  4 RMS(Cart)=  0.00000257 RMS(Int)=  0.00000000
 Iteration  5 RMS(Cart)=  0.00000000 RMS(Int)=  0.00000000

 GradGradGradGradGradGradGradGradGradGradGradGradGradGradGradGradGradGrad
 Berny optimization.
 Initialization pass.
                           ----------------------------
                           !    Initial Parameters    !
                           ! (Angstroms and Degrees)  !
 --------------------------                            --------------------------
 ! Name  Definition              Value          Derivative Info.                !
 --------------------------------------------------------------------------------
 ! R1    R(1,2)                  1.4478         calculate D2E/DX2 analytically  !
 ! R2    R(1,4)                  1.3691         calculate D2E/DX2 analytically  !
 ! R3    R(1,13)                 1.4828         calculate D2E/DX2 analytically  !
 ! R4    R(2,3)                  1.4149         calculate D2E/DX2 analytically  !
 ! R5    R(2,16)                 1.3947         calculate D2E/DX2 analytically  !
 ! R6    R(3,5)                  1.3998         calculate D2E/DX2 analytically  !
 ! R7    R(3,10)                 1.3917         calculate D2E/DX2 analytically  !
 ! R8    R(4,5)                  1.4266         calculate D2E/DX2 analytically  !
 ! R9    R(4,6)                  1.4364         calculate D2E/DX2 analytically  !
 ! R10   R(5,9)                  1.3698         calculate D2E/DX2 analytically  !
 ! R11   R(6,7)                  1.4693         calculate D2E/DX2 analytically  !
 ! R12   R(6,15)                 1.3591         calculate D2E/DX2 analytically  !
 ! R13   R(7,8)                  1.3669         calculate D2E/DX2 analytically  !
 ! R14   R(7,34)                 1.0854         calculate D2E/DX2 analytically  !
 ! R15   R(8,9)                  1.4678         calculate D2E/DX2 analytically  !
 ! R16   R(8,35)                 1.0854         calculate D2E/DX2 analytically  !
 ! R17   R(9,12)                 1.4428         calculate D2E/DX2 analytically  !
 ! R18   R(10,11)                1.445          calculate D2E/DX2 analytically  !
 ! R19   R(10,18)                1.4077         calculate D2E/DX2 analytically  !
 ! R20   R(11,12)                1.3845         calculate D2E/DX2 analytically  !
 ! R21   R(11,37)                1.0852         calculate D2E/DX2 analytically  !
 ! R22   R(12,36)                1.0853         calculate D2E/DX2 analytically  !
 ! R23   R(13,14)                1.5652         calculate D2E/DX2 analytically  !
 ! R24   R(13,30)                1.5361         calculate D2E/DX2 analytically  !
 ! R25   R(13,31)                1.1067         calculate D2E/DX2 analytically  !
 ! R26   R(14,15)                1.5258         calculate D2E/DX2 analytically  !
 ! R27   R(14,32)                1.2525         calculate D2E/DX2 analytically  !
 ! R28   R(15,33)                1.0855         calculate D2E/DX2 analytically  !
 ! R29   R(16,17)                1.4666         calculate D2E/DX2 analytically  !
 ! R30   R(16,19)                1.4651         calculate D2E/DX2 analytically  !
 ! R31   R(17,18)                1.4115         calculate D2E/DX2 analytically  !
 ! R32   R(17,22)                1.4281         calculate D2E/DX2 analytically  !
 ! R33   R(18,38)                1.0855         calculate D2E/DX2 analytically  !
 ! R34   R(19,20)                1.421          calculate D2E/DX2 analytically  !
 ! R35   R(19,23)                1.4841         calculate D2E/DX2 analytically  !
 ! R36   R(20,21)                1.4348         calculate D2E/DX2 analytically  !
 ! R37   R(20,26)                1.4215         calculate D2E/DX2 analytically  !
 ! R38   R(21,22)                1.3516         calculate D2E/DX2 analytically  !
 ! R39   R(21,40)                1.0845         calculate D2E/DX2 analytically  !
 ! R40   R(22,39)                1.0845         calculate D2E/DX2 analytically  !
 ! R41   R(23,24)                1.4436         calculate D2E/DX2 analytically  !
 ! R42   R(23,30)                1.4567         calculate D2E/DX2 analytically  !
 ! R43   R(24,25)                1.4244         calculate D2E/DX2 analytically  !
 ! R44   R(24,27)                1.4143         calculate D2E/DX2 analytically  !
 ! R45   R(25,26)                1.3526         calculate D2E/DX2 analytically  !
 ! R46   R(25,42)                1.0844         calculate D2E/DX2 analytically  !
 ! R47   R(26,41)                1.0842         calculate D2E/DX2 analytically  !
 ! R48   R(27,28)                1.3662         calculate D2E/DX2 analytically  !
 ! R49   R(27,43)                1.0844         calculate D2E/DX2 analytically  !
 ! R50   R(28,29)                1.4006         calculate D2E/DX2 analytically  !
 ! R51   R(28,44)                1.0839         calculate D2E/DX2 analytically  !
 ! R52   R(29,30)                1.3867         calculate D2E/DX2 analytically  !
 ! R53   R(29,45)                1.0798         calculate D2E/DX2 analytically  !
 ! R54   R(32,46)                0.71           calculate D2E/DX2 analytically  !
 ! A1    A(2,1,4)              108.3861         calculate D2E/DX2 analytically  !
 ! A2    A(2,1,13)             127.5914         calculate D2E/DX2 analytically  !
 ! A3    A(4,1,13)             120.6109         calculate D2E/DX2 analytically  !
 ! A4    A(1,2,3)              106.465          calculate D2E/DX2 analytically  !
 ! A5    A(1,2,16)             132.0446         calculate D2E/DX2 analytically  !
 ! A6    A(3,2,16)             120.114          calculate D2E/DX2 analytically  !
 ! A7    A(2,3,5)              108.6593         calculate D2E/DX2 analytically  !
 ! A8    A(2,3,10)             126.7501         calculate D2E/DX2 analytically  !
 ! A9    A(5,3,10)             121.8646         calculate D2E/DX2 analytically  !
 ! A10   A(1,4,5)              108.8446         calculate D2E/DX2 analytically  !
 ! A11   A(1,4,6)              127.0368         calculate D2E/DX2 analytically  !
 ! A12   A(5,4,6)              120.2483         calculate D2E/DX2 analytically  !
 ! A13   A(3,5,4)              107.6416         calculate D2E/DX2 analytically  !
 ! A14   A(3,5,9)              123.8637         calculate D2E/DX2 analytically  !
 ! A15   A(4,5,9)              125.048          calculate D2E/DX2 analytically  !
 ! A16   A(4,6,7)              114.4904         calculate D2E/DX2 analytically  !
 ! A17   A(4,6,15)             115.374          calculate D2E/DX2 analytically  !
 ! A18   A(7,6,15)             129.9016         calculate D2E/DX2 analytically  !
 ! A19   A(6,7,8)              122.8866         calculate D2E/DX2 analytically  !
 ! A20   A(6,7,34)             118.1379         calculate D2E/DX2 analytically  !
 ! A21   A(8,7,34)             118.9648         calculate D2E/DX2 analytically  !
 ! A22   A(7,8,9)              121.8407         calculate D2E/DX2 analytically  !
 ! A23   A(7,8,35)             118.9805         calculate D2E/DX2 analytically  !
 ! A24   A(9,8,35)             119.0992         calculate D2E/DX2 analytically  !
 ! A25   A(5,9,8)              114.8111         calculate D2E/DX2 analytically  !
 ! A26   A(5,9,12)             115.0135         calculate D2E/DX2 analytically  !
 ! A27   A(8,9,12)             129.5794         calculate D2E/DX2 analytically  !
 ! A28   A(3,10,11)            115.2289         calculate D2E/DX2 analytically  !
 ! A29   A(3,10,18)            113.942          calculate D2E/DX2 analytically  !
 ! A30   A(11,10,18)           130.0415         calculate D2E/DX2 analytically  !
 ! A31   A(10,11,12)           121.6706         calculate D2E/DX2 analytically  !
 ! A32   A(10,11,37)           119.2928         calculate D2E/DX2 analytically  !
 ! A33   A(12,11,37)           118.9006         calculate D2E/DX2 analytically  !
 ! A34   A(9,12,11)            121.5798         calculate D2E/DX2 analytically  !
 ! A35   A(9,12,36)            119.5392         calculate D2E/DX2 analytically  !
 ! A36   A(11,12,36)           118.7885         calculate D2E/DX2 analytically  !
 ! A37   A(1,13,14)            107.8076         calculate D2E/DX2 analytically  !
 ! A38   A(1,13,30)            113.0606         calculate D2E/DX2 analytically  !
 ! A39   A(1,13,31)            106.2458         calculate D2E/DX2 analytically  !
 ! A40   A(14,13,30)           116.4024         calculate D2E/DX2 analytically  !
 ! A41   A(14,13,31)           107.3181         calculate D2E/DX2 analytically  !
 ! A42   A(30,13,31)           105.3705         calculate D2E/DX2 analytically  !
 ! A43   A(13,14,15)           115.8902         calculate D2E/DX2 analytically  !
 ! A44   A(13,14,32)           141.6497         calculate D2E/DX2 analytically  !
 ! A45   A(15,14,32)            94.4565         calculate D2E/DX2 analytically  !
 ! A46   A(6,15,14)            119.5954         calculate D2E/DX2 analytically  !
 ! A47   A(6,15,33)            122.1209         calculate D2E/DX2 analytically  !
 ! A48   A(14,15,33)           118.098          calculate D2E/DX2 analytically  !
 ! A49   A(2,16,17)            114.1285         calculate D2E/DX2 analytically  !
 ! A50   A(2,16,19)            124.3441         calculate D2E/DX2 analytically  !
 ! A51   A(17,16,19)           121.5246         calculate D2E/DX2 analytically  !
 ! A52   A(16,17,18)           123.4872         calculate D2E/DX2 analytically  !
 ! A53   A(16,17,22)           118.4473         calculate D2E/DX2 analytically  !
 ! A54   A(18,17,22)           118.0037         calculate D2E/DX2 analytically  !
 ! A55   A(10,18,17)           121.2637         calculate D2E/DX2 analytically  !
 ! A56   A(10,18,38)           120.8619         calculate D2E/DX2 analytically  !
 ! A57   A(17,18,38)           117.7778         calculate D2E/DX2 analytically  !
 ! A58   A(16,19,20)           115.1682         calculate D2E/DX2 analytically  !
 ! A59   A(16,19,23)           126.2722         calculate D2E/DX2 analytically  !
 ! A60   A(20,19,23)           118.2362         calculate D2E/DX2 analytically  !
 ! A61   A(19,20,21)           122.1086         calculate D2E/DX2 analytically  !
 ! A62   A(19,20,26)           121.9084         calculate D2E/DX2 analytically  !
 ! A63   A(21,20,26)           115.87           calculate D2E/DX2 analytically  !
 ! A64   A(20,21,22)           122.2141         calculate D2E/DX2 analytically  !
 ! A65   A(20,21,40)           117.3917         calculate D2E/DX2 analytically  !
 ! A66   A(22,21,40)           120.3547         calculate D2E/DX2 analytically  !
 ! A67   A(17,22,21)           120.2798         calculate D2E/DX2 analytically  !
 ! A68   A(17,22,39)           118.8717         calculate D2E/DX2 analytically  !
 ! A69   A(21,22,39)           120.8455         calculate D2E/DX2 analytically  !
 ! A70   A(19,23,24)           116.0157         calculate D2E/DX2 analytically  !
 ! A71   A(19,23,30)           129.3075         calculate D2E/DX2 analytically  !
 ! A72   A(24,23,30)           114.6767         calculate D2E/DX2 analytically  !
 ! A73   A(23,24,25)           121.6129         calculate D2E/DX2 analytically  !
 ! A74   A(23,24,27)           122.3607         calculate D2E/DX2 analytically  !
 ! A75   A(25,24,27)           116.0087         calculate D2E/DX2 analytically  !
 ! A76   A(24,25,26)           120.9033         calculate D2E/DX2 analytically  !
 ! A77   A(24,25,42)           118.1487         calculate D2E/DX2 analytically  !
 ! A78   A(26,25,42)           120.942          calculate D2E/DX2 analytically  !
 ! A79   A(20,26,25)           120.1289         calculate D2E/DX2 analytically  !
 ! A80   A(20,26,41)           118.6838         calculate D2E/DX2 analytically  !
 ! A81   A(25,26,41)           121.0513         calculate D2E/DX2 analytically  !
 ! A82   A(24,27,28)           120.6838         calculate D2E/DX2 analytically  !
 ! A83   A(24,27,43)           118.2059         calculate D2E/DX2 analytically  !
 ! A84   A(28,27,43)           121.1098         calculate D2E/DX2 analytically  !
 ! A85   A(27,28,29)           118.1685         calculate D2E/DX2 analytically  !
 ! A86   A(27,28,44)           121.488          calculate D2E/DX2 analytically  !
 ! A87   A(29,28,44)           120.269          calculate D2E/DX2 analytically  !
 ! A88   A(28,29,30)           123.8351         calculate D2E/DX2 analytically  !
 ! A89   A(28,29,45)           117.134          calculate D2E/DX2 analytically  !
 ! A90   A(30,29,45)           119.0022         calculate D2E/DX2 analytically  !
 ! A91   A(13,30,23)           124.029          calculate D2E/DX2 analytically  !
 ! A92   A(13,30,29)           116.2934         calculate D2E/DX2 analytically  !
 ! A93   A(23,30,29)           119.4056         calculate D2E/DX2 analytically  !
 ! A94   A(14,32,46)            78.4054         calculate D2E/DX2 analytically  !
 ! D1    D(4,1,2,3)             -0.4021         calculate D2E/DX2 analytically  !
 ! D2    D(4,1,2,16)           165.7722         calculate D2E/DX2 analytically  !
 ! D3    D(13,1,2,3)          -159.3236         calculate D2E/DX2 analytically  !
 ! D4    D(13,1,2,16)            6.8506         calculate D2E/DX2 analytically  !
 ! D5    D(2,1,4,5)              0.0694         calculate D2E/DX2 analytically  !
 ! D6    D(2,1,4,6)           -157.4992         calculate D2E/DX2 analytically  !
 ! D7    D(13,1,4,5)           160.7327         calculate D2E/DX2 analytically  !
 ! D8    D(13,1,4,6)             3.1641         calculate D2E/DX2 analytically  !
 ! D9    D(2,1,13,14)         -179.4108         calculate D2E/DX2 analytically  !
 ! D10   D(2,1,13,30)          -49.2932         calculate D2E/DX2 analytically  !
 ! D11   D(2,1,13,31)           65.8014         calculate D2E/DX2 analytically  !
 ! D12   D(4,1,13,14)           23.9517         calculate D2E/DX2 analytically  !
 ! D13   D(4,1,13,30)          154.0694         calculate D2E/DX2 analytically  !
 ! D14   D(4,1,13,31)          -90.8361         calculate D2E/DX2 analytically  !
 ! D15   D(1,2,3,5)              0.5849         calculate D2E/DX2 analytically  !
 ! D16   D(1,2,3,10)           161.951          calculate D2E/DX2 analytically  !
 ! D17   D(16,2,3,5)          -167.5766         calculate D2E/DX2 analytically  !
 ! D18   D(16,2,3,10)           -6.2104         calculate D2E/DX2 analytically  !
 ! D19   D(1,2,16,17)         -163.0173         calculate D2E/DX2 analytically  !
 ! D20   D(1,2,16,19)           17.5823         calculate D2E/DX2 analytically  !
 ! D21   D(3,2,16,17)            1.6201         calculate D2E/DX2 analytically  !
 ! D22   D(3,2,16,19)         -177.7803         calculate D2E/DX2 analytically  !
 ! D23   D(2,3,5,4)             -0.5497         calculate D2E/DX2 analytically  !
 ! D24   D(2,3,5,9)            159.3536         calculate D2E/DX2 analytically  !
 ! D25   D(10,3,5,4)          -163.0053         calculate D2E/DX2 analytically  !
 ! D26   D(10,3,5,9)            -3.102          calculate D2E/DX2 analytically  !
 ! D27   D(2,3,10,11)         -164.0202         calculate D2E/DX2 analytically  !
 ! D28   D(2,3,10,18)            6.8551         calculate D2E/DX2 analytically  !
 ! D29   D(5,3,10,11)           -4.902          calculate D2E/DX2 analytically  !
 ! D30   D(5,3,10,18)          165.9733         calculate D2E/DX2 analytically  !
 ! D31   D(1,4,5,3)              0.2954         calculate D2E/DX2 analytically  !
 ! D32   D(1,4,5,9)           -159.3082         calculate D2E/DX2 analytically  !
 ! D33   D(6,4,5,3)            159.649          calculate D2E/DX2 analytically  !
 ! D34   D(6,4,5,9)              0.0454         calculate D2E/DX2 analytically  !
 ! D35   D(1,4,6,7)            161.3555         calculate D2E/DX2 analytically  !
 ! D36   D(1,4,6,15)           -13.6454         calculate D2E/DX2 analytically  !
 ! D37   D(5,4,6,7)              6.0664         calculate D2E/DX2 analytically  !
 ! D38   D(5,4,6,15)          -168.9345         calculate D2E/DX2 analytically  !
 ! D39   D(3,5,9,8)           -163.2773         calculate D2E/DX2 analytically  !
 ! D40   D(3,5,9,12)             8.7341         calculate D2E/DX2 analytically  !
 ! D41   D(4,5,9,8)             -6.8538         calculate D2E/DX2 analytically  !
 ! D42   D(4,5,9,12)           165.1576         calculate D2E/DX2 analytically  !
 ! D43   D(4,6,7,8)             -5.3111         calculate D2E/DX2 analytically  !
 ! D44   D(4,6,7,34)           175.8943         calculate D2E/DX2 analytically  !
 ! D45   D(15,6,7,8)           168.7983         calculate D2E/DX2 analytically  !
 ! D46   D(15,6,7,34)           -9.9964         calculate D2E/DX2 analytically  !
 ! D47   D(4,6,15,14)           -6.7712         calculate D2E/DX2 analytically  !
 ! D48   D(4,6,15,33)          178.2773         calculate D2E/DX2 analytically  !
 ! D49   D(7,6,15,14)          179.162          calculate D2E/DX2 analytically  !
 ! D50   D(7,6,15,33)            4.2105         calculate D2E/DX2 analytically  !
 ! D51   D(6,7,8,9)             -1.5485         calculate D2E/DX2 analytically  !
 ! D52   D(6,7,8,35)          -178.2746         calculate D2E/DX2 analytically  !
 ! D53   D(34,7,8,9)           177.2366         calculate D2E/DX2 analytically  !
 ! D54   D(34,7,8,35)            0.5106         calculate D2E/DX2 analytically  !
 ! D55   D(7,8,9,5)              7.5515         calculate D2E/DX2 analytically  !
 ! D56   D(7,8,9,12)          -163.044          calculate D2E/DX2 analytically  !
 ! D57   D(35,8,9,5)          -175.7262         calculate D2E/DX2 analytically  !
 ! D58   D(35,8,9,12)           13.6782         calculate D2E/DX2 analytically  !
 ! D59   D(5,9,12,11)           -6.5281         calculate D2E/DX2 analytically  !
 ! D60   D(5,9,12,36)          177.011          calculate D2E/DX2 analytically  !
 ! D61   D(8,9,12,11)          164.0519         calculate D2E/DX2 analytically  !
 ! D62   D(8,9,12,36)          -12.4091         calculate D2E/DX2 analytically  !
 ! D63   D(3,10,11,12)           6.8579         calculate D2E/DX2 analytically  !
 ! D64   D(3,10,11,37)        -177.4279         calculate D2E/DX2 analytically  !
 ! D65   D(18,10,11,12)       -162.229          calculate D2E/DX2 analytically  !
 ! D66   D(18,10,11,37)         13.4851         calculate D2E/DX2 analytically  !
 ! D67   D(3,10,18,17)          -3.3596         calculate D2E/DX2 analytically  !
 ! D68   D(3,10,18,38)        -179.7046         calculate D2E/DX2 analytically  !
 ! D69   D(11,10,18,17)        165.8403         calculate D2E/DX2 analytically  !
 ! D70   D(11,10,18,38)        -10.5048         calculate D2E/DX2 analytically  !
 ! D71   D(10,11,12,9)          -1.1727         calculate D2E/DX2 analytically  !
 ! D72   D(10,11,12,36)        175.3141         calculate D2E/DX2 analytically  !
 ! D73   D(37,11,12,9)        -176.9031         calculate D2E/DX2 analytically  !
 ! D74   D(37,11,12,36)         -0.4164         calculate D2E/DX2 analytically  !
 ! D75   D(1,13,14,15)         -41.4063         calculate D2E/DX2 analytically  !
 ! D76   D(1,13,14,32)          97.4162         calculate D2E/DX2 analytically  !
 ! D77   D(30,13,14,15)       -169.6344         calculate D2E/DX2 analytically  !
 ! D78   D(30,13,14,32)        -30.812          calculate D2E/DX2 analytically  !
 ! D79   D(31,13,14,15)         72.6696         calculate D2E/DX2 analytically  !
 ! D80   D(31,13,14,32)       -148.5079         calculate D2E/DX2 analytically  !
 ! D81   D(1,13,30,23)          53.8326         calculate D2E/DX2 analytically  !
 ! D82   D(1,13,30,29)        -132.2113         calculate D2E/DX2 analytically  !
 ! D83   D(14,13,30,23)        179.4551         calculate D2E/DX2 analytically  !
 ! D84   D(14,13,30,29)         -6.5888         calculate D2E/DX2 analytically  !
 ! D85   D(31,13,30,23)        -61.7849         calculate D2E/DX2 analytically  !
 ! D86   D(31,13,30,29)        112.1712         calculate D2E/DX2 analytically  !
 ! D87   D(13,14,15,6)          35.2039         calculate D2E/DX2 analytically  !
 ! D88   D(13,14,15,33)       -149.6426         calculate D2E/DX2 analytically  !
 ! D89   D(32,14,15,6)        -120.6069         calculate D2E/DX2 analytically  !
 ! D90   D(32,14,15,33)         54.5466         calculate D2E/DX2 analytically  !
 ! D91   D(13,14,32,46)         85.1028         calculate D2E/DX2 analytically  !
 ! D92   D(15,14,32,46)       -131.3464         calculate D2E/DX2 analytically  !
 ! D93   D(2,16,17,18)           1.394          calculate D2E/DX2 analytically  !
 ! D94   D(2,16,17,22)         178.475          calculate D2E/DX2 analytically  !
 ! D95   D(19,16,17,18)       -179.1868         calculate D2E/DX2 analytically  !
 ! D96   D(19,16,17,22)         -2.1058         calculate D2E/DX2 analytically  !
 ! D97   D(2,16,19,20)         177.5626         calculate D2E/DX2 analytically  !
 ! D98   D(2,16,19,23)           4.2511         calculate D2E/DX2 analytically  !
 ! D99   D(17,16,19,20)         -1.7954         calculate D2E/DX2 analytically  !
 ! D100  D(17,16,19,23)       -175.1069         calculate D2E/DX2 analytically  !
 ! D101  D(16,17,18,10)         -0.463          calculate D2E/DX2 analytically  !
 ! D102  D(16,17,18,38)        175.9911         calculate D2E/DX2 analytically  !
 ! D103  D(22,17,18,10)       -177.5561         calculate D2E/DX2 analytically  !
 ! D104  D(22,17,18,38)         -1.102          calculate D2E/DX2 analytically  !
 ! D105  D(16,17,22,21)          2.5488         calculate D2E/DX2 analytically  !
 ! D106  D(16,17,22,39)       -178.0707         calculate D2E/DX2 analytically  !
 ! D107  D(18,17,22,21)        179.7916         calculate D2E/DX2 analytically  !
 ! D108  D(18,17,22,39)         -0.8278         calculate D2E/DX2 analytically  !
 ! D109  D(16,19,20,21)          5.4198         calculate D2E/DX2 analytically  !
 ! D110  D(16,19,20,26)       -170.5553         calculate D2E/DX2 analytically  !
 ! D111  D(23,19,20,21)        179.3014         calculate D2E/DX2 analytically  !
 ! D112  D(23,19,20,26)          3.3262         calculate D2E/DX2 analytically  !
 ! D113  D(16,19,23,24)        162.1539         calculate D2E/DX2 analytically  !
 ! D114  D(16,19,23,30)        -17.8928         calculate D2E/DX2 analytically  !
 ! D115  D(20,19,23,24)        -10.9741         calculate D2E/DX2 analytically  !
 ! D116  D(20,19,23,30)        168.9792         calculate D2E/DX2 analytically  !
 ! D117  D(19,20,21,22)         -5.322          calculate D2E/DX2 analytically  !
 ! D118  D(19,20,21,40)        176.9575         calculate D2E/DX2 analytically  !
 ! D119  D(26,20,21,22)        170.8812         calculate D2E/DX2 analytically  !
 ! D120  D(26,20,21,40)         -6.8394         calculate D2E/DX2 analytically  !
 ! D121  D(19,20,26,25)          5.4413         calculate D2E/DX2 analytically  !
 ! D122  D(19,20,26,41)       -178.7512         calculate D2E/DX2 analytically  !
 ! D123  D(21,20,26,25)       -170.7702         calculate D2E/DX2 analytically  !
 ! D124  D(21,20,26,41)          5.0373         calculate D2E/DX2 analytically  !
 ! D125  D(20,21,22,17)          1.0056         calculate D2E/DX2 analytically  !
 ! D126  D(20,21,22,39)       -178.3626         calculate D2E/DX2 analytically  !
 ! D127  D(40,21,22,17)        178.6601         calculate D2E/DX2 analytically  !
 ! D128  D(40,21,22,39)         -0.7081         calculate D2E/DX2 analytically  !
 ! D129  D(19,23,24,25)         10.8547         calculate D2E/DX2 analytically  !
 ! D130  D(19,23,24,27)       -170.7366         calculate D2E/DX2 analytically  !
 ! D131  D(30,23,24,25)       -169.1055         calculate D2E/DX2 analytically  !
 ! D132  D(30,23,24,27)          9.3032         calculate D2E/DX2 analytically  !
 ! D133  D(19,23,30,13)        -15.9933         calculate D2E/DX2 analytically  !
 ! D134  D(19,23,30,29)        170.2273         calculate D2E/DX2 analytically  !
 ! D135  D(24,23,30,13)        163.9605         calculate D2E/DX2 analytically  !
 ! D136  D(24,23,30,29)         -9.8189         calculate D2E/DX2 analytically  !
 ! D137  D(23,24,25,26)         -2.5252         calculate D2E/DX2 analytically  !
 ! D138  D(23,24,25,42)        176.5949         calculate D2E/DX2 analytically  !
 ! D139  D(27,24,25,26)        178.9704         calculate D2E/DX2 analytically  !
 ! D140  D(27,24,25,42)         -1.9095         calculate D2E/DX2 analytically  !
 ! D141  D(23,24,27,28)         -2.3237         calculate D2E/DX2 analytically  !
 ! D142  D(23,24,27,43)        177.9375         calculate D2E/DX2 analytically  !
 ! D143  D(25,24,27,28)        176.1685         calculate D2E/DX2 analytically  !
 ! D144  D(25,24,27,43)         -3.5704         calculate D2E/DX2 analytically  !
 ! D145  D(24,25,26,20)         -5.9173         calculate D2E/DX2 analytically  !
 ! D146  D(24,25,26,41)        178.3761         calculate D2E/DX2 analytically  !
 ! D147  D(42,25,26,20)        174.9873         calculate D2E/DX2 analytically  !
 ! D148  D(42,25,26,41)         -0.7193         calculate D2E/DX2 analytically  !
 ! D149  D(24,27,28,29)         -4.4107         calculate D2E/DX2 analytically  !
 ! D150  D(24,27,28,44)        178.722          calculate D2E/DX2 analytically  !
 ! D151  D(43,27,28,29)        175.3206         calculate D2E/DX2 analytically  !
 ! D152  D(43,27,28,44)         -1.5468         calculate D2E/DX2 analytically  !
 ! D153  D(27,28,29,30)          3.6865         calculate D2E/DX2 analytically  !
 ! D154  D(27,28,29,45)       -174.3427         calculate D2E/DX2 analytically  !
 ! D155  D(44,28,29,30)       -179.4066         calculate D2E/DX2 analytically  !
 ! D156  D(44,28,29,45)          2.5642         calculate D2E/DX2 analytically  !
 ! D157  D(28,29,30,13)       -170.4409         calculate D2E/DX2 analytically  !
 ! D158  D(28,29,30,23)          3.8105         calculate D2E/DX2 analytically  !
 ! D159  D(45,29,30,13)          7.5537         calculate D2E/DX2 analytically  !
 ! D160  D(45,29,30,23)       -178.1949         calculate D2E/DX2 analytically  !
 --------------------------------------------------------------------------------
 Trust Radius=3.00D-01 FncErr=1.00D-07 GrdErr=1.00D-06 EigMax=2.50D+02 EigMin=1.00D-04
 Number of steps in this run=    276 maximum allowed number of steps=    276.
 Search for a saddle point of order  1.
 GradGradGradGradGradGradGradGradGradGradGradGradGradGradGradGradGradGrad

                          Input orientation:                          
 ---------------------------------------------------------------------
 Center     Atomic      Atomic             Coordinates (Angstroms)
 Number     Number       Type             X           Y           Z
 ---------------------------------------------------------------------
      1          6           0        0.697534   -0.910236    0.144778
      2          6           0        0.521257    0.518210    0.302039
      3          6           0        1.810876    1.060568    0.513257
      4          6           0        2.032614   -1.194689    0.249410
      5          6           0        2.746196    0.019790    0.475070
      6          6           0        2.714196   -2.349391   -0.265834
      7          6           0        4.170171   -2.193566   -0.387101
      8          6           0        4.813415   -1.013156   -0.139718
      9          6           0        4.082600    0.202919    0.236467
     10          6           0        2.187685    2.392571    0.370089
     11          6           0        3.611748    2.624834    0.292197
     12          6           0        4.515761    1.578978    0.216399
     13          6           0       -0.230967   -1.870819   -0.498500
     14          6           0        0.409719   -3.295476   -0.399258
     15          6           0        1.910630   -3.370877   -0.663253
     16          6           0       -0.557292    1.361245    0.035076
     17          6           0       -0.204081    2.783008   -0.034387
     18          6           0        1.112572    3.266958    0.122498
     19          6           0       -1.936814    0.904634   -0.151645
     20          6           0       -2.891649    1.935998   -0.360980
     21          6           0       -2.509790    3.312086   -0.499948
     22          6           0       -1.233517    3.725766   -0.336023
     23          6           0       -2.428392   -0.487850   -0.003813
     24          6           0       -3.854565   -0.642003    0.158557
     25          6           0       -4.751636    0.444496   -0.050753
     26          6           0       -4.289343    1.677084   -0.361549
     27          6           0       -4.448162   -1.879313    0.500445
     28          6           0       -3.684133   -3.002416    0.646273
     29          6           0       -2.316637   -2.914006    0.356654
     30          6           0       -1.677307   -1.736017    0.000930
     31          1           0       -0.264277   -1.598535   -1.570682
     32          1           0        0.379756   -4.340010    0.291212
     33          1           0        2.308587   -4.283947   -1.094842
     34          1           0        4.752092   -3.052501   -0.705969
     35          1           0        5.888972   -0.961664   -0.276316
     36          1           0        5.568418    1.806691    0.082202
     37          1           0        3.980602    3.642978    0.222313
     38          1           0        1.279876    4.330979   -0.012279
     39          1           0       -0.974028    4.775368   -0.420333
     40          1           0       -3.296081    4.029554   -0.707600
     41          1           0       -4.970914    2.499683   -0.546964
     42          1           0       -5.815753    0.252514    0.031725
     43          1           0       -5.523297   -1.911209    0.638588
     44          1           0       -4.122607   -3.952764    0.927913
     45          1           0       -1.746676   -3.830624    0.386455
     46          1           0       -0.159144   -4.450205   -0.157724
 ---------------------------------------------------------------------
                    Distance matrix (angstroms):
                    1          2          3          4          5
     1  C    0.000000
     2  C    1.447847   0.000000
     3  C    2.293332   1.414879   0.000000
     4  C    1.369051   2.284950   2.281440   0.000000
     5  C    2.273996   2.286639   1.399821   1.426563   0.000000
     6  C    2.511314   3.654395   3.612588   1.436443   2.482536
     7  C    3.740193   4.598176   4.119017   2.443778   2.769475
     8  C    4.126985   4.578521   3.707013   2.813757   2.391304
     9  C    3.564575   3.575874   2.443952   2.481113   1.369834
    10  C    3.630406   2.508952   1.391659   3.592638   2.439886
    11  C    4.583786   3.740200   2.395608   4.133311   2.751159
    12  C    4.558527   4.133839   2.770068   3.722948   2.372623
    13  C    1.482782   2.629480   3.712924   2.477967   3.658653
    14  C    2.463369   3.879235   4.665945   2.732739   4.149044
    15  C    2.859943   4.241125   4.586047   2.362970   3.672952
    16  C    2.597354   1.394720   2.434602   3.645045   3.592510
    17  C    3.805924   2.401792   2.706800   4.572244   4.074193
    18  C    4.197821   2.817357   2.347015   4.557289   3.652004
    19  C    3.212695   2.529282   3.809409   4.508255   4.806902
    20  C    4.608587   3.754682   4.862552   5.867039   6.012996
    21  C    5.341404   4.199544   4.976352   6.442515   6.278157
    22  C    5.045061   3.711438   4.134355   5.934748   5.498204
    23  C    3.157831   3.131474   4.542725   4.523750   5.221435
    24  C    4.560015   4.529293   5.926363   5.913763   6.641400
    25  C    5.618450   5.285196   6.615454   6.985920   7.528237
    26  C    5.640881   4.992515   6.193388   6.970473   7.276357
    27  C    5.248219   5.521106   6.915102   6.521671   7.440835
    28  C    4.881365   5.495326   6.835251   6.008875   7.107192
    29  C    3.625633   4.453845   5.732201   4.677984   5.852646
    30  C    2.518427   3.163208   4.500087   3.757431   4.782786
    31  H    2.083660   2.933386   3.964832   2.958299   3.983343
    32  H    3.447576   4.860293   5.591391   3.553411   4.964041
    33  H    3.938792   5.310983   5.603351   3.380338   4.601987
    34  H    4.663959   5.627258   5.201404   3.429253   3.854536
    35  H    5.208742   5.597936   4.619925   3.898998   3.377110
    36  H    5.577734   5.213669   3.855078   4.640921   3.363375
    37  H    5.613938   4.662360   3.385440   5.215211   3.836031
    38  H    5.275805   3.900193   3.354659   5.582840   4.579732
    39  H    5.953113   4.569583   4.735718   6.717889   6.103878
    40  H    6.409136   5.284030   6.032113   7.523535   7.347518
    41  H    6.651117   5.900083   7.013402   7.958141   8.169957
    42  H    6.617226   6.348335   7.684420   7.983649   8.576578
    43  H    6.320169   6.523187   7.914371   7.599779   8.493527
    44  H    5.753610   6.476635   7.778924   6.778944   7.947748
    45  H    3.815919   4.905405   6.049464   4.609768   5.917722
    46  H    3.654694   5.035820   5.890655   3.945623   5.368639
                    6          7          8          9         10
     6  C    0.000000
     7  C    1.469303   0.000000
     8  C    2.491616   1.366868   0.000000
     9  C    2.939239   2.477831   1.467802   0.000000
    10  C    4.813296   5.053339   4.330512   2.898816   0.000000
    11  C    5.085265   4.897985   3.855584   2.467890   1.444981
    12  C    4.348594   3.836109   2.633358   1.442764   2.470929
    13  C    2.992850   4.414363   5.129337   4.842255   4.978033
    14  C    2.494693   3.918591   4.966778   5.112042   6.008905
    15  C    1.359078   2.562782   3.776122   4.277730   5.861901
    16  C    4.956007   5.929910   5.874762   4.786531   2.951401
    17  C    5.908589   6.635117   6.292632   5.010574   2.456946
    18  C    5.853151   6.279007   5.664307   4.268769   1.407737
    19  C    5.677466   6.851975   7.017382   6.072593   4.415615
    20  C    7.056848   8.180665   8.253149   7.211148   5.151946
    21  C    7.706956   8.657183   8.512744   7.325902   4.865053
    22  C    7.245475   8.015045   7.685135   6.403070   3.739068
    23  C    5.475418   6.826230   7.262106   6.551939   5.453878
    24  C    6.800286   8.191549   8.681048   7.982390   6.764774
    25  C    7.974379   9.309734   9.675891   8.842205   7.219854
    26  C    8.079061   9.303009   9.494567   8.521750   6.557371
    27  C    7.218555   8.669612   9.323993   8.785174   7.893064
    28  C    6.495921   7.963178   8.762606   8.412150   7.978748
    29  C    5.100545   6.568934   7.395760   7.118982   6.960522
    30  C    4.442149   5.878173   6.532364   6.082062   5.667422
    31  H    3.337321   4.628094   5.307851   5.040473   5.070270
    32  H    3.118088   4.408467   5.559765   5.861080   6.971548
    33  H    2.143427   2.887229   4.229007   5.005145   6.836412
    34  H    2.200251   1.085393   2.117388   3.454587   6.114156
    35  H    3.464837   2.117576   1.085418   2.209565   5.036691
    36  H    5.053784   4.263495   2.927595   2.191697   3.443180
    37  H    6.144149   5.871335   4.743862   3.441600   2.190869
    38  H    6.837318   7.145907   6.407957   4.995799   2.174338
    39  H    8.024279   8.661982   8.190253   6.848953   4.037191
    40  H    8.775507   9.724961   9.566364   8.365365   5.823471
    41  H    9.091395  10.276749  10.403796   9.373100   7.217894
    42  H    8.922919  10.289675  10.705631   9.900595   8.291523
    43  H    8.298570   9.751671  10.404800   9.844008   8.834809
    44  H    7.123040   8.578706   9.467503   9.223515   8.966283
    45  H    4.745409   6.187684   7.158895   7.090305   7.362582
    46  H    3.561066   4.887536   6.044830   6.308672   7.253260
                   11         12         13         14         15
    11  C    0.000000
    12  C    1.384485   0.000000
    13  C    5.966788   5.911312   0.000000
    14  C    6.766179   6.403040   1.565240   0.000000
    15  C    6.305176   5.662293   2.619877   1.525815   0.000000
    16  C    4.363905   5.080960   3.292025   4.775857   5.382498
    17  C    3.833044   4.877447   4.676989   6.120282   6.537413
    18  C    2.585924   3.799972   5.346727   6.620557   6.731653
    19  C    5.826030   6.498148   3.276181   4.817516   5.774475
    20  C    6.572314   7.438451   4.646503   6.186180   7.163531
    21  C    6.210720   7.271532   5.661761   7.224511   8.014286
    22  C    5.008324   6.161823   5.687993   7.211246   7.768853
    23  C    6.801449   7.248553   2.643103   4.011735   5.251077
    24  C    8.150822   8.660165   3.882289   5.053335   6.431142
    25  C    8.649722   9.340400   5.098785   6.383450   7.701819
    26  C    7.984539   8.824597   5.392289   6.841708   8.000788
    27  C    9.235414   9.612096   4.333901   5.139455   6.634244
    28  C    9.220694   9.402778   3.809905   4.235404   5.757777
    29  C    8.113486   8.178523   2.483857   2.854810   4.372496
    30  C    6.861192   7.027781   1.536066   2.635857   3.998399
    31  H    6.027498   6.011573   1.106716   2.169358   2.948702
    32  H    7.678205   7.221257   2.663369   1.252477   2.047876
    33  H    7.166126   6.400380   3.553611   2.250913   1.085512
    34  H    5.876126   4.728342   5.125456   4.359967   2.859562
    35  H    4.286248   2.929734   6.191089   5.956845   4.667037
    36  H    2.131200   1.085333   6.891601   7.271595   6.382971
    37  H    1.085152   2.132259   6.975589   7.828136   7.366355
    38  H    2.905385   4.254028   6.401668   7.685685   7.755011
    39  H    5.114864   6.384365   6.688052   8.188634   8.645320
    40  H    7.119756   8.239172   6.652296   8.214870   9.048656
    41  H    8.624497   9.561769   6.447536   7.909292   9.046139
    42  H    9.724892  10.417956   5.998293   7.178474   8.562065
    43  H   10.205132  10.636838   5.413257   6.180129   7.686917
    44  H   10.172963  10.282403   4.638319   4.768164   6.266605
    45  H    8.390145   8.277127   2.630847   2.356643   3.832641
    46  H    8.029834   7.638439   2.602791   1.309711   2.388404
                   16         17         18         19         20
    16  C    0.000000
    17  C    1.466626   0.000000
    18  C    2.535316   1.411522   0.000000
    19  C    1.465073   2.558203   3.867103   0.000000
    20  C    2.436477   2.836743   4.247233   1.421000   0.000000
    21  C    2.811455   2.411010   3.675729   2.499088   1.434833
    22  C    2.487158   1.428117   2.434108   2.913315   2.439937
    23  C    2.630908   3.955629   5.162650   1.484087   2.493434
    24  C    3.860085   5.009387   6.320895   2.483159   2.800574
    25  C    4.294219   5.113626   6.510395   2.853967   2.404241
    26  C    3.766334   4.244935   5.651786   2.484981   1.421474
    27  C    5.084944   6.327362   7.586087   3.805582   4.209678
    28  C    5.402984   6.785661   7.911243   4.353715   5.102012
    29  C    4.634273   6.088660   7.072385   3.871001   4.936414
    30  C    3.293726   4.753233   5.729568   2.657755   3.884494
    31  H    3.380032   4.643462   5.332503   3.328198   4.567208
    32  H    5.783423   7.154318   7.644047   5.750558   7.107441
    33  H    6.431032   7.574953   7.741352   6.770113   8.140560
    34  H    6.944053   7.685560   7.339485   7.791513   9.134053
    35  H    6.859096   7.155864   6.391736   8.046213   9.246778
    36  H    6.142065   5.855640   4.689197   7.562863   8.472653
    37  H    5.082701   4.279838   2.894296   6.531017   7.105057
    38  H    3.492385   2.144489   1.085494   4.701740   4.822774
    39  H    3.469481   2.170546   2.631324   3.997715   3.426779
    40  H    3.895177   3.401111   4.550476   3.452798   2.160252
    41  H    4.595092   4.802677   6.168119   3.450539   2.162331
    42  H    5.374077   6.156187   7.556243   3.937646   3.396870
    43  H    5.977824   7.126193   8.432942   4.627775   4.767149
    44  H    6.461216   7.851846   8.954338   5.434837   6.152562
    45  H    5.337940   6.804177   7.656412   4.769526   5.926512
    46  H    5.828263   7.234404   7.826263   5.642203   6.949208
                   21         22         23         24         25
    21  C    0.000000
    22  C    1.351619   0.000000
    23  C    3.833052   4.392340   0.000000
    24  C    4.228104   5.117803   1.443640   0.000000
    25  C    3.667523   4.819261   2.503785   1.424439   0.000000
    26  C    2.420578   3.679106   2.877161   2.416135   1.352621
    27  C    5.631048   6.515408   2.503981   1.414278   2.407489
    28  C    6.524250   7.227645   2.884882   2.416291   3.675134
    29  C    6.287711   6.763101   2.455333   2.750720   4.168301
    30  C    5.140744   5.490133   1.456733   2.441754   3.769457
    31  H    5.504816   5.550855   2.893457   4.098217   5.159511
    32  H    8.217663   8.249414   4.776178   5.623373   7.024217
    33  H    9.015009   8.790780   6.167630   7.267682   8.561253
    34  H    9.658434   9.050375   7.657010   8.979557  10.147864
    35  H    9.426248   8.526747   8.335304   9.758473  10.735488
    36  H    8.237873   7.079836   8.319932   9.736248  10.410416
    37  H    6.538833   5.244581   7.628242   8.930563   9.303593
    38  H    3.954432   2.605425   6.080496   7.149980   7.175331
    39  H    2.122757   1.084484   5.476323   6.162833   5.758764
    40  H    1.084496   2.117669   4.653508   4.783887   3.924632
    41  H    2.592169   3.939024   3.960402   3.407959   2.125583
    42  H    4.535753   5.761563   3.467509   2.159284   1.084437
    43  H    6.136799   7.150354   3.466564   2.150810   2.572935
    44  H    7.577467   8.300855   3.967885   3.409530   4.548555
    45  H    7.237842   7.608176   3.433829   3.829156   5.243814
    46  H    8.117624   8.248186   4.568745   5.315879   6.712714
                   26         27         28         29         30
    26  C    0.000000
    27  C    3.662816   0.000000
    28  C    4.824905   1.366150   0.000000
    29  C    5.048316   2.373745   1.400622   0.000000
    30  C    4.313164   2.819165   2.459184   1.386702   0.000000
    31  H    5.328493   4.676890   4.310590   3.107615   2.117904
    32  H    7.644083   5.422878   4.293067   3.050952   3.331149
    33  H    8.922124   7.347167   6.370753   5.037487   4.855926
    34  H   10.209562   9.352886   8.544060   7.149495   6.600758
    35  H   10.515149  10.406814   9.831591   8.458387   7.610851
    36  H    9.868595  10.681453  10.442959   9.194259   8.065848
    37  H    8.520424  10.080532  10.153284   9.092157   7.809899
    38  H    6.179107   8.464103   8.879964   8.096964   6.749336
    39  H    4.538076   7.563215   8.305193   7.844283   6.562788
    40  H    2.576905   6.140145   7.171622   7.092600   6.030278
    41  H    1.084244   4.532763   5.775180   6.096699   5.393439
    42  H    2.124616   2.575789   3.939041   4.730353   4.591508
    43  H    3.924126   1.084442   2.138531   3.371610   3.902428
    44  H    5.778036   2.141942   1.083855   2.160296   3.428230
    45  H    6.112243   3.334462   2.123011   1.079783   2.130920
    46  H    7.392142   5.043645   3.894619   2.698012   3.113970
                   31         32         33         34         35
    31  H    0.000000
    32  H    3.375961   0.000000
    33  H    3.749332   2.375853   0.000000
    34  H    5.293931   4.665766   2.763765   0.000000
    35  H    6.320084   6.487432   4.952444   2.418408   0.000000
    36  H    6.953267   8.046604   7.007696   4.989925   2.809818
    37  H    6.979061   8.757793   8.207721   6.803408   5.009315
    38  H    6.322354   8.722865   8.743406   8.188606   7.023215
    39  H    6.515649   9.242788   9.659281   9.702864   8.946230
    40  H    6.450746   9.195597  10.033771  10.720475  10.462478
    41  H    6.324224   8.724311   9.965387  11.197717  11.401372
    42  H    6.067370   7.716408   9.373022  11.097147  11.771563
    43  H    5.712786   6.392635   8.364991  10.425641  11.488192
    44  H    5.164502   4.563619   6.749924   9.068645  10.518011
    45  H    3.318149   2.188666   4.341071   6.635725   8.183722
    46  H    3.184262   0.710000   2.644906   5.135600   6.983100
                   36         37         38         39         40
    36  H    0.000000
    37  H    2.431613   0.000000
    38  H    4.977202   2.796837   0.000000
    39  H    7.202026   5.122856   2.333254   0.000000
    40  H    9.173017   7.346039   4.638287   2.455746   0.000000
    41  H   10.580813   9.056961   6.535435   4.601073   2.274066
    42  H   11.489881  10.368228   8.184362   6.640999   4.600151
    43  H   11.711468  11.015733   9.255901   8.156437   6.485783
    44  H   11.304977  11.129023   9.934343   9.376118   8.189960
    45  H    9.240264   9.417185   8.713826   8.678190   8.085790
    46  H    8.485946   9.098436   8.899502   9.265214   9.058093
                   41         42         43         44         45
    41  H    0.000000
    42  H    2.469494   0.000000
    43  H    4.600720   2.266166   0.000000
    44  H    6.673002   4.621067   2.492707   0.000000
    45  H    7.165177   5.775399   4.243889   2.439906   0.000000
    46  H    8.462008   7.358579   5.987884   4.139455   1.788930
                   46
    46  H    0.000000
 Stoichiometry    C30H16
 Framework group  C1[X(C30H16)]
 Deg. of freedom   132
 Full point group                 C1      NOp   1
 Largest Abelian subgroup         C1      NOp   1
 Largest concise Abelian subgroup C1      NOp   1
                         Standard orientation:                         
 ---------------------------------------------------------------------
 Center     Atomic      Atomic             Coordinates (Angstroms)
 Number     Number       Type             X           Y           Z
 ---------------------------------------------------------------------
      1          6           0       -0.703060   -0.902191   -0.145076
      2          6           0       -0.524284    0.525890   -0.302832
      3          6           0       -1.812937    1.070412   -0.514376
      4          6           0       -2.038622   -1.184361   -0.249740
      5          6           0       -2.750069    0.031276   -0.475909
      6          6           0       -2.722262   -2.337691    0.265850
      7          6           0       -4.177977   -2.179290    0.386913
      8          6           0       -4.819142   -0.997853    0.139040
      9          6           0       -4.086177    0.216814   -0.237508
     10          6           0       -2.187444    2.403120   -0.371726
     11          6           0       -3.611109    2.637887   -0.294062
     12          6           0       -4.516946    1.593631   -0.217979
     13          6           0        0.223705   -1.864155    0.498643
     14          6           0       -0.419447   -3.287732    0.399849
     15          6           0       -1.920513   -3.360428    0.663718
     16          6           0        0.555702    1.367144   -0.036064
     17          6           0        0.204956    2.789544    0.032852
     18          6           0       -1.110837    3.275726   -0.124340
     19          6           0        1.934410    0.908203    0.150962
     20          6           0        2.891015    1.937981    0.360022
     21          6           0        2.511535    3.314781    0.498456
     22          6           0        1.236000    3.730620    0.334253
     23          6           0        2.423580   -0.485187    0.003681
     24          6           0        3.849499   -0.641877   -0.158489
     25          6           0        4.748438    0.443135    0.050521
     26          6           0        4.288257    1.676637    0.360827
     27          6           0        4.440980   -1.880341   -0.499872
     28          6           0        3.675014   -3.002166   -0.645373
     29          6           0        2.307644   -2.911275   -0.355924
     30          6           0        1.670327   -1.732047   -0.000689
     31          1           0        0.257380   -1.591544    1.570730
     32          1           0       -0.391231   -4.332565   -0.290243
     33          1           0       -2.320101   -4.272650    1.095596
     34          1           0       -4.761422   -3.037098    0.706031
     35          1           0       -5.894622   -0.944442    0.275511
     36          1           0       -5.569219    1.823222   -0.083971
     37          1           0       -3.978199    3.656696   -0.224582
     38          1           0       -1.276305    4.340084    0.010036
     39          1           0        0.978327    4.780701    0.418159
     40          1           0        3.299051    4.030955    0.705930
     41          1           0        4.971238    2.498116    0.546015
     42          1           0        5.812228    0.249274   -0.031781
     43          1           0        5.516071   -1.914155   -0.637895
     44          1           0        4.111863   -3.953376   -0.926626
     45          1           0        1.736093   -3.826911   -0.385454
     46          1           0        0.147432   -4.443535    0.158788
 ---------------------------------------------------------------------
 Rotational constants (GHZ):           0.2754548           0.1555032           0.1013696
 Standard basis: 6-311+G(d,p) (5D, 7F)
 There are   786 symmetry adapted cartesian basis functions of A   symmetry.
 There are   756 symmetry adapted basis functions of A   symmetry.
   756 basis functions,  1208 primitive gaussians,   786 cartesian basis functions
    98 alpha electrons       98 beta electrons
       nuclear repulsion energy      2621.9650786658 Hartrees.
 NAtoms=   46 NActive=   46 NUniq=   46 SFac= 1.00D+00 NAtFMM=   60 NAOKFM=F Big=F
 Integral buffers will be    131072 words long.
 Raffenetti 2 integral format.
 Two-electron integral symmetry is turned on.
 One-electron integrals computed using PRISM.
 NBasis=   756 RedAO= T EigKep=  1.14D-06  NBF=   756
 NBsUse=   736 1.00D-06 EigRej=  9.78D-07 NBFU=   736
 ExpMin= 4.38D-02 ExpMax= 4.56D+03 ExpMxC= 6.82D+02 IAcc=2 IRadAn=         4 AccDes= 0.00D+00
 Harris functional with IExCor=  402 and IRadAn=       4 diagonalized for initial guess.
 HarFok:  IExCor=  402 AccDes= 0.00D+00 IRadAn=         4 IDoV= 1 UseB2=F ITyADJ=14
 ICtDFT=  3500011 ScaDFX=  1.000000  1.000000  1.000000  1.000000
 FoFCou: FMM=F IPFlag=           0 FMFlag=      100000 FMFlg1=           0
         NFxFlg=           0 DoJE=T BraDBF=F KetDBF=T FulRan=T
         wScrn=  0.000000 ICntrl=       500 IOpCl=  0 I1Cent=   200000004 NGrid=           0
         NMat0=    1 NMatS0=      1 NMatT0=    0 NMatD0=    1 NMtDS0=    0 NMtDT0=    0
 Petite list used in FoFCou.
 Requested convergence on RMS density matrix=1.00D-08 within 128 cycles.
 Requested convergence on MAX density matrix=1.00D-06.
 Requested convergence on             energy=1.00D-06.
 No special actions if energy rises.
 EnCoef did     4 forward-backward iterations
 SCF Done:  E(RB3LYP) =  -1152.89400530     A.U. after   20 cycles
            NFock= 20  Conv=0.69D-08     -V/T= 2.0045
 DoSCS=F DFT=T ScalE2(SS,OS)=  1.000000  1.000000
 Range of M.O.s used for correlation:     1   736
 NBasis=   756 NAE=    98 NBE=    98 NFC=     0 NFV=     0
 NROrb=    736 NOA=    98 NOB=    98 NVA=   638 NVB=   638

 **** Warning!!: The largest alpha MO coefficient is  0.14848578D+03


 **** Warning!!: The smallest alpha delta epsilon is  0.78469877D-01

 Symmetrizing basis deriv contribution to polar:
 IMax=3 JMax=2 DiffMx= 0.00D+00
 G2DrvN: will do    47 centers at a time, making    1 passes.
 Calling FoFCou, ICntrl=  3107 FMM=F I1Cent=   0 AccDes= 0.00D+00.
 End of G2Drv F.D. properties file   721 does not exist.
 End of G2Drv F.D. properties file   722 does not exist.
 End of G2Drv F.D. properties file   788 does not exist.
          IDoAtm=1111111111111111111111111111111111111111111111
          Differentiating once with respect to nuclear coordinates.
 CalDSu exits because no D1Ps are significant.
          There are   141 degrees of freedom in the 1st order CPHF.  IDoFFX=6 NUNeed=     0.
    136 vectors produced by pass  0 Test12= 6.25D-14 1.00D-09 XBig12= 3.25D-01 1.58D-01.
 AX will form   136 AO Fock derivatives at one time.
    135 vectors produced by pass  1 Test12= 6.25D-14 1.00D-09 XBig12= 9.61D-02 6.17D-02.
    135 vectors produced by pass  2 Test12= 6.25D-14 1.00D-09 XBig12= 1.12D-03 5.62D-03.
    135 vectors produced by pass  3 Test12= 6.25D-14 1.00D-09 XBig12= 8.27D-06 2.75D-04.
    135 vectors produced by pass  4 Test12= 6.25D-14 1.00D-09 XBig12= 2.69D-08 1.46D-05.
    135 vectors produced by pass  5 Test12= 6.25D-14 1.00D-09 XBig12= 1.25D-10 1.12D-06.
    114 vectors produced by pass  6 Test12= 6.25D-14 1.00D-09 XBig12= 1.99D-11 3.65D-07.
     84 vectors produced by pass  7 Test12= 6.25D-14 1.00D-09 XBig12= 3.11D-12 1.06D-07.
     54 vectors produced by pass  8 Test12= 6.25D-14 1.00D-09 XBig12= 3.66D-13 3.52D-08.
     10 vectors produced by pass  9 Test12= 6.25D-14 1.00D-09 XBig12= 2.77D-15 3.42D-09.
      3 vectors produced by pass 10 Test12= 6.25D-14 1.00D-09 XBig12= 7.54D-16 1.32D-09.
      2 vectors produced by pass 11 Test12= 6.25D-14 1.00D-09 XBig12= 6.47D-16 1.57D-09.
 InvSVY:  IOpt=1 It=  1 EMax= 8.88D-16
 Solved reduced A of dimension  1078 with   141 vectors.
 End of Minotr F.D. properties file   721 does not exist.
 End of Minotr F.D. properties file   722 does not exist.
 End of Minotr F.D. properties file   788 does not exist.

 **********************************************************************

            Population analysis using the SCF Density.

 **********************************************************************

 Orbital symmetries:
       Occupied  (A) (A) (A) (A) (A) (A) (A) (A) (A) (A) (A) (A)
                 (A) (A) (A) (A) (A) (A) (A) (A) (A) (A) (A) (A)
                 (A) (A) (A) (A) (A) (A) (A) (A) (A) (A) (A) (A)
                 (A) (A) (A) (A) (A) (A) (A) (A) (A) (A) (A) (A)
                 (A) (A) (A) (A) (A) (A) (A) (A) (A) (A) (A) (A)
                 (A) (A) (A) (A) (A) (A) (A) (A) (A) (A) (A) (A)
                 (A) (A) (A) (A) (A) (A) (A) (A) (A) (A) (A) (A)
                 (A) (A) (A) (A) (A) (A) (A) (A) (A) (A) (A) (A)
                 (A) (A)
       Virtual   (A) (A) (A) (A) (A) (A) (A) (A) (A) (A) (A) (A)
                 (A) (A) (A) (A) (A) (A) (A) (A) (A) (A) (A) (A)
                 (A) (A) (A) (A) (A) (A) (A) (A) (A) (A) (A) (A)
                 (A) (A) (A) (A) (A) (A) (A) (A) (A) (A) (A) (A)
                 (A) (A) (A) (A) (A) (A) (A) (A) (A) (A) (A) (A)
                 (A) (A) (A) (A) (A) (A) (A) (A) (A) (A) (A) (A)
                 (A) (A) (A) (A) (A) (A) (A) (A) (A) (A) (A) (A)
                 (A) (A) (A) (A) (A) (A) (A) (A) (A) (A) (A) (A)
                 (A) (A) (A) (A) (A) (A) (A) (A) (A) (A) (A) (A)
                 (A) (A) (A) (A) (A) (A) (A) (A) (A) (A) (A) (A)
                 (A) (A) (A) (A) (A) (A) (A) (A) (A) (A) (A) (A)
                 (A) (A) (A) (A) (A) (A) (A) (A) (A) (A) (A) (A)
                 (A) (A) (A) (A) (A) (A) (A) (A) (A) (A) (A) (A)
                 (A) (A) (A) (A) (A) (A) (A) (A) (A) (A) (A) (A)
                 (A) (A) (A) (A) (A) (A) (A) (A) (A) (A) (A) (A)
                 (A) (A) (A) (A) (A) (A) (A) (A) (A) (A) (A) (A)
                 (A) (A) (A) (A) (A) (A) (A) (A) (A) (A) (A) (A)
                 (A) (A) (A) (A) (A) (A) (A) (A) (A) (A) (A) (A)
                 (A) (A) (A) (A) (A) (A) (A) (A) (A) (A) (A) (A)
                 (A) (A) (A) (A) (A) (A) (A) (A) (A) (A) (A) (A)
                 (A) (A) (A) (A) (A) (A) (A) (A) (A) (A) (A) (A)
                 (A) (A) (A) (A) (A) (A) (A) (A) (A) (A) (A) (A)
                 (A) (A) (A) (A) (A) (A) (A) (A) (A) (A) (A) (A)
                 (A) (A) (A) (A) (A) (A) (A) (A) (A) (A) (A) (A)
                 (A) (A) (A) (A) (A) (A) (A) (A) (A) (A) (A) (A)
                 (A) (A) (A) (A) (A) (A) (A) (A) (A) (A) (A) (A)
                 (A) (A) (A) (A) (A) (A) (A) (A) (A) (A) (A) (A)
                 (A) (A) (A) (A) (A) (A) (A) (A) (A) (A) (A) (A)
                 (A) (A) (A) (A) (A) (A) (A) (A) (A) (A) (A) (A)
                 (A) (A) (A) (A) (A) (A) (A) (A) (A) (A) (A) (A)
                 (A) (A) (A) (A) (A) (A) (A) (A) (A) (A) (A) (A)
                 (A) (A) (A) (A) (A) (A) (A) (A) (A) (A) (A) (A)
                 (A) (A) (A) (A) (A) (A) (A) (A) (A) (A) (A) (A)
                 (A) (A) (A) (A) (A) (A) (A) (A) (A) (A) (A) (A)
                 (A) (A) (A) (A) (A) (A) (A) (A) (A) (A) (A) (A)
                 (A) (A) (A) (A) (A) (A) (A) (A) (A) (A) (A) (A)
                 (A) (A) (A) (A) (A) (A) (A) (A) (A) (A) (A) (A)
                 (A) (A) (A) (A) (A) (A) (A) (A) (A) (A) (A) (A)
                 (A) (A) (A) (A) (A) (A) (A) (A) (A) (A) (A) (A)
                 (A) (A) (A) (A) (A) (A) (A) (A) (A) (A) (A) (A)
                 (A) (A) (A) (A) (A) (A) (A) (A) (A) (A) (A) (A)
                 (A) (A) (A) (A) (A) (A) (A) (A) (A) (A) (A) (A)
                 (A) (A) (A) (A) (A) (A) (A) (A) (A) (A) (A) (A)
                 (A) (A) (A) (A) (A) (A) (A) (A) (A) (A) (A) (A)
                 (A) (A) (A) (A) (A) (A) (A) (A) (A) (A) (A) (A)
                 (A) (A) (A) (A) (A) (A) (A) (A) (A) (A) (A) (A)
                 (A) (A) (A) (A) (A) (A) (A) (A) (A) (A) (A) (A)
                 (A) (A) (A) (A) (A) (A) (A) (A) (A) (A) (A) (A)
                 (A) (A) (A) (A) (A) (A) (A) (A) (A) (A) (A) (A)
                 (A) (A) (A) (A) (A) (A) (A) (A) (A) (A) (A) (A)
                 (A) (A) (A) (A) (A) (A) (A) (A) (A) (A) (A) (A)
                 (A) (A) (A) (A) (A) (A) (A) (A) (A) (A) (A) (A)
                 (A) (A) (A) (A) (A) (A) (A) (A) (A) (A) (A) (A)
                 (A) (A)
 The electronic state is 1-A.
 Alpha  occ. eigenvalues --  -10.23763 -10.22123 -10.20881 -10.20452 -10.20405
 Alpha  occ. eigenvalues --  -10.20359 -10.19737 -10.19352 -10.19208 -10.19189
 Alpha  occ. eigenvalues --  -10.19132 -10.18694 -10.18678 -10.18512 -10.18418
 Alpha  occ. eigenvalues --  -10.18402 -10.18234 -10.18167 -10.18156 -10.18111
 Alpha  occ. eigenvalues --  -10.18052 -10.18025 -10.17873 -10.17795 -10.17591
 Alpha  occ. eigenvalues --  -10.17497 -10.16902 -10.16095 -10.15989 -10.15537
 Alpha  occ. eigenvalues --   -0.91311  -0.88899  -0.87198  -0.85049  -0.84325
 Alpha  occ. eigenvalues --   -0.82330  -0.80859  -0.80052  -0.78423  -0.76203
 Alpha  occ. eigenvalues --   -0.75602  -0.75066  -0.73685  -0.71638  -0.70456
 Alpha  occ. eigenvalues --   -0.68201  -0.66265  -0.64120  -0.63267  -0.62175
 Alpha  occ. eigenvalues --   -0.60343  -0.59761  -0.58167  -0.56527  -0.56183
 Alpha  occ. eigenvalues --   -0.54169  -0.52531  -0.51120  -0.50767  -0.49926
 Alpha  occ. eigenvalues --   -0.49350  -0.48444  -0.46893  -0.46579  -0.46393
 Alpha  occ. eigenvalues --   -0.44715  -0.44425  -0.43696  -0.43515  -0.42425
 Alpha  occ. eigenvalues --   -0.42270  -0.41838  -0.41409  -0.41138  -0.40554
 Alpha  occ. eigenvalues --   -0.39806  -0.39643  -0.38313  -0.38208  -0.37397
 Alpha  occ. eigenvalues --   -0.36084  -0.35956  -0.35329  -0.35118  -0.33918
 Alpha  occ. eigenvalues --   -0.33332  -0.32821  -0.32358  -0.32046  -0.30471
 Alpha  occ. eigenvalues --   -0.28937  -0.27737  -0.25159  -0.24845  -0.22875
 Alpha  occ. eigenvalues --   -0.22203  -0.20439  -0.17673
 Alpha virt. eigenvalues --   -0.09826  -0.05702  -0.05110  -0.04808  -0.02934
 Alpha virt. eigenvalues --   -0.00898   0.00044   0.00279   0.00685   0.00923
 Alpha virt. eigenvalues --    0.01441   0.01554   0.01761   0.02591   0.02822
 Alpha virt. eigenvalues --    0.03163   0.03323   0.03766   0.04013   0.04411
 Alpha virt. eigenvalues --    0.04956   0.05044   0.05357   0.05476   0.06192
 Alpha virt. eigenvalues --    0.06481   0.06687   0.07314   0.07372   0.07709
 Alpha virt. eigenvalues --    0.08268   0.08451   0.08561   0.08897   0.09342
 Alpha virt. eigenvalues --    0.09470   0.09969   0.10206   0.10695   0.10969
 Alpha virt. eigenvalues --    0.11693   0.11860   0.12027   0.12490   0.12645
 Alpha virt. eigenvalues --    0.12782   0.13122   0.13421   0.14127   0.14322
 Alpha virt. eigenvalues --    0.14751   0.14910   0.15295   0.15591   0.15795
 Alpha virt. eigenvalues --    0.16164   0.16431   0.16600   0.16825   0.16869
 Alpha virt. eigenvalues --    0.17143   0.17191   0.17370   0.17431   0.17819
 Alpha virt. eigenvalues --    0.17966   0.18256   0.18495   0.18873   0.19071
 Alpha virt. eigenvalues --    0.19178   0.19389   0.19630   0.19825   0.20151
 Alpha virt. eigenvalues --    0.20283   0.20398   0.20530   0.20975   0.21192
 Alpha virt. eigenvalues --    0.21289   0.21840   0.21888   0.22022   0.22332
 Alpha virt. eigenvalues --    0.22434   0.22561   0.22843   0.22946   0.23358
 Alpha virt. eigenvalues --    0.23466   0.23889   0.24045   0.24228   0.24536
 Alpha virt. eigenvalues --    0.24800   0.25001   0.25401   0.25629   0.25811
 Alpha virt. eigenvalues --    0.26089   0.26302   0.26430   0.26561   0.27107
 Alpha virt. eigenvalues --    0.27188   0.27359   0.27582   0.27698   0.28383
 Alpha virt. eigenvalues --    0.28642   0.28901   0.29082   0.29189   0.29526
 Alpha virt. eigenvalues --    0.29958   0.30070   0.30467   0.30840   0.31030
 Alpha virt. eigenvalues --    0.31082   0.31459   0.31482   0.32021   0.32210
 Alpha virt. eigenvalues --    0.32954   0.33184   0.33497   0.33620   0.33906
 Alpha virt. eigenvalues --    0.34229   0.34672   0.34859   0.35171   0.35731
 Alpha virt. eigenvalues --    0.35978   0.36124   0.36539   0.37256   0.37873
 Alpha virt. eigenvalues --    0.38254   0.38650   0.38683   0.38982   0.39257
 Alpha virt. eigenvalues --    0.39839   0.40090   0.40600   0.41154   0.41762
 Alpha virt. eigenvalues --    0.42307   0.42371   0.42895   0.43814   0.44213
 Alpha virt. eigenvalues --    0.45223   0.45719   0.46552   0.47555   0.48031
 Alpha virt. eigenvalues --    0.49014   0.49387   0.50482   0.50625   0.51135
 Alpha virt. eigenvalues --    0.51767   0.52456   0.52973   0.53164   0.53721
 Alpha virt. eigenvalues --    0.53985   0.54291   0.54679   0.55090   0.55531
 Alpha virt. eigenvalues --    0.55862   0.56140   0.56512   0.56937   0.57594
 Alpha virt. eigenvalues --    0.57902   0.58156   0.58673   0.59014   0.59248
 Alpha virt. eigenvalues --    0.59338   0.59904   0.60425   0.60939   0.61079
 Alpha virt. eigenvalues --    0.61333   0.61578   0.61926   0.62129   0.62954
 Alpha virt. eigenvalues --    0.63200   0.63764   0.63957   0.64692   0.64992
 Alpha virt. eigenvalues --    0.65679   0.66041   0.66907   0.67347   0.67764
 Alpha virt. eigenvalues --    0.67985   0.68878   0.69187   0.69726   0.70240
 Alpha virt. eigenvalues --    0.70491   0.70534   0.71012   0.71298   0.71615
 Alpha virt. eigenvalues --    0.72117   0.72306   0.72680   0.72893   0.72948
 Alpha virt. eigenvalues --    0.73438   0.73848   0.74276   0.74408   0.74672
 Alpha virt. eigenvalues --    0.74967   0.75348   0.75641   0.76010   0.76460
 Alpha virt. eigenvalues --    0.76744   0.77227   0.77494   0.78431   0.78775
 Alpha virt. eigenvalues --    0.79427   0.80557   0.81333   0.81725   0.82356
 Alpha virt. eigenvalues --    0.83073   0.83548   0.83658   0.84277   0.85033
 Alpha virt. eigenvalues --    0.85541   0.86586   0.86828   0.87439   0.88200
 Alpha virt. eigenvalues --    0.88358   0.88663   0.89416   0.90084   0.90626
 Alpha virt. eigenvalues --    0.90802   0.91294   0.91491   0.92133   0.92359
 Alpha virt. eigenvalues --    0.92876   0.93035   0.93195   0.93962   0.94604
 Alpha virt. eigenvalues --    0.94629   0.95118   0.95449   0.95999   0.96022
 Alpha virt. eigenvalues --    0.96382   0.96632   0.97104   0.97517   0.98278
 Alpha virt. eigenvalues --    0.99051   0.99475   0.99909   1.00340   1.00950
 Alpha virt. eigenvalues --    1.01228   1.01406   1.02965   1.03034   1.03761
 Alpha virt. eigenvalues --    1.04749   1.05202   1.06043   1.06530   1.07034
 Alpha virt. eigenvalues --    1.07684   1.08109   1.09274   1.10099   1.10752
 Alpha virt. eigenvalues --    1.11356   1.11954   1.12862   1.13399   1.14004
 Alpha virt. eigenvalues --    1.14588   1.15726   1.16779   1.17982   1.19220
 Alpha virt. eigenvalues --    1.19534   1.20130   1.20673   1.21308   1.22756
 Alpha virt. eigenvalues --    1.24332   1.25161   1.26876   1.27990   1.28921
 Alpha virt. eigenvalues --    1.31342   1.32995   1.33972   1.34799   1.35559
 Alpha virt. eigenvalues --    1.36677   1.37565   1.38982   1.39785   1.40403
 Alpha virt. eigenvalues --    1.41754   1.42776   1.43688   1.44068   1.45451
 Alpha virt. eigenvalues --    1.45825   1.46768   1.46954   1.47435   1.48872
 Alpha virt. eigenvalues --    1.49265   1.49329   1.50560   1.50962   1.51235
 Alpha virt. eigenvalues --    1.51790   1.52615   1.53090   1.53680   1.53980
 Alpha virt. eigenvalues --    1.54695   1.55681   1.55853   1.56129   1.56600
 Alpha virt. eigenvalues --    1.57335   1.57778   1.58244   1.58560   1.59825
 Alpha virt. eigenvalues --    1.60753   1.61342   1.61401   1.61693   1.62997
 Alpha virt. eigenvalues --    1.64309   1.64602   1.65854   1.66850   1.67180
 Alpha virt. eigenvalues --    1.67571   1.68411   1.69107   1.69487   1.70568
 Alpha virt. eigenvalues --    1.71529   1.72115   1.72860   1.73340   1.73980
 Alpha virt. eigenvalues --    1.74467   1.74611   1.75160   1.76360   1.77192
 Alpha virt. eigenvalues --    1.77717   1.78447   1.79002   1.79991   1.80946
 Alpha virt. eigenvalues --    1.82117   1.82347   1.83342   1.83821   1.84734
 Alpha virt. eigenvalues --    1.85361   1.86364   1.86517   1.86639   1.87486
 Alpha virt. eigenvalues --    1.87604   1.88249   1.88474   1.89081   1.89458
 Alpha virt. eigenvalues --    1.89994   1.91143   1.92303   1.93397   1.93659
 Alpha virt. eigenvalues --    1.94285   1.94719   1.94763   1.95784   1.96402
 Alpha virt. eigenvalues --    1.96948   1.97620   1.97710   1.98547   1.99470
 Alpha virt. eigenvalues --    1.99854   2.00040   2.01740   2.02881   2.03450
 Alpha virt. eigenvalues --    2.04154   2.04743   2.05593   2.05964   2.07087
 Alpha virt. eigenvalues --    2.08493   2.08713   2.09574   2.10017   2.10928
 Alpha virt. eigenvalues --    2.11946   2.12037   2.12234   2.13811   2.14461
 Alpha virt. eigenvalues --    2.14911   2.16488   2.17646   2.18300   2.19406
 Alpha virt. eigenvalues --    2.19512   2.20059   2.22268   2.22495   2.23982
 Alpha virt. eigenvalues --    2.24135   2.24906   2.25858   2.26318   2.28154
 Alpha virt. eigenvalues --    2.28926   2.30602   2.32423   2.32781   2.34119
 Alpha virt. eigenvalues --    2.35489   2.36022   2.37449   2.38211   2.40517
 Alpha virt. eigenvalues --    2.40998   2.41714   2.42996   2.43741   2.44474
 Alpha virt. eigenvalues --    2.45721   2.47281   2.48076   2.48962   2.51702
 Alpha virt. eigenvalues --    2.54407   2.54670   2.54787   2.56248   2.57070
 Alpha virt. eigenvalues --    2.57593   2.58476   2.60352   2.61995   2.64433
 Alpha virt. eigenvalues --    2.65454   2.65832   2.67670   2.68544   2.69341
 Alpha virt. eigenvalues --    2.70123   2.70271   2.71510   2.71754   2.71858
 Alpha virt. eigenvalues --    2.72692   2.73130   2.73333   2.74147   2.74497
 Alpha virt. eigenvalues --    2.75062   2.75765   2.76386   2.76673   2.77157
 Alpha virt. eigenvalues --    2.77557   2.78041   2.78705   2.79149   2.79390
 Alpha virt. eigenvalues --    2.80007   2.80346   2.81265   2.81863   2.83064
 Alpha virt. eigenvalues --    2.83939   2.84953   2.85342   2.85724   2.86162
 Alpha virt. eigenvalues --    2.86406   2.87292   2.88605   2.89716   2.90612
 Alpha virt. eigenvalues --    2.91413   2.92801   2.93256   2.94444   2.94716
 Alpha virt. eigenvalues --    2.96307   2.97164   2.98466   3.00722   3.01607
 Alpha virt. eigenvalues --    3.03129   3.04650   3.05927   3.07714   3.08847
 Alpha virt. eigenvalues --    3.09391   3.10491   3.11340   3.13862   3.14272
 Alpha virt. eigenvalues --    3.16436   3.18051   3.19887   3.20230   3.21707
 Alpha virt. eigenvalues --    3.22107   3.23074   3.24679   3.26404   3.27018
 Alpha virt. eigenvalues --    3.29046   3.29979   3.32904   3.33848   3.35034
 Alpha virt. eigenvalues --    3.36173   3.38577   3.39355   3.39751   3.41274
 Alpha virt. eigenvalues --    3.42901   3.43577   3.44516   3.45833   3.48817
 Alpha virt. eigenvalues --    3.49664   3.51179   3.52307   3.53191   3.56520
 Alpha virt. eigenvalues --    3.57700   3.58100   3.58750   3.61597   3.62382
 Alpha virt. eigenvalues --    3.63504   3.67734   3.69032   3.72782   3.77987
 Alpha virt. eigenvalues --    3.83449   3.84408   3.87590   3.90969   3.95487
 Alpha virt. eigenvalues --    3.99131   4.04617   4.06006   4.06574   4.08052
 Alpha virt. eigenvalues --    4.10363   4.11336   4.14523   4.20988   4.24206
 Alpha virt. eigenvalues --    4.28649   4.31388   4.42765   4.46707   4.55614
 Alpha virt. eigenvalues --    4.68229   4.70489   4.75732   4.77764   4.79829
 Alpha virt. eigenvalues --    4.81102   4.81777   4.90148  23.42054  23.58986
 Alpha virt. eigenvalues --   23.67069  23.70025  23.77663  23.80908  23.83039
 Alpha virt. eigenvalues --   23.84466  23.87753  23.89544  23.90297  23.90919
 Alpha virt. eigenvalues --   23.91854  23.93644  23.95424  23.99541  24.00246
 Alpha virt. eigenvalues --   24.01348  24.06706  24.08698  24.10659  24.11754
 Alpha virt. eigenvalues --   24.13816  24.14970  24.16798  24.19012  24.19913
 Alpha virt. eigenvalues --   24.20616  24.23000  24.23665
          Condensed to atoms (all electrons):
               1          2          3          4          5          6
     1  C   15.629290   0.941309   1.953185   0.275968  -0.568789  -3.877270
     2  C    0.941309  10.389803   1.410302   0.390082  -1.179153  -2.019583
     3  C    1.953185   1.410302  11.690238  -1.070138   1.033724  -1.229395
     4  C    0.275968   0.390082  -1.070138  12.041638   1.516706   0.369080
     5  C   -0.568789  -1.179153   1.033724   1.516706  11.234597   0.137579
     6  C   -3.877270  -2.019583  -1.229395   0.369080   0.137579  18.461428
     7  C   -0.449589  -0.605475   0.226274  -1.844262   1.768062  -2.972649
     8  C   -0.999086   0.407069  -2.792728   3.766231  -1.610548  -0.534754
     9  C   -2.303625  -2.089118  -3.026449  -2.395866   0.873635   1.781727
    10  C   -2.562863  -0.387829  -0.646385  -0.092257  -1.141924   0.986492
    11  C    0.095688  -0.916911   0.088579  -0.233592   1.249323   0.039570
    12  C    0.729979  -0.074207   2.815350  -2.200495  -1.511523   0.043095
    13  C   -1.762201   0.820245  -1.035229  -0.737777  -0.095600   0.931745
    14  C   -1.583196  -0.766850  -0.447427   0.352713   0.490640   2.469082
    15  C    3.460643   0.888473   0.873056  -3.304124  -2.323091  -8.378635
    16  C    0.309156   1.103442   0.360198  -0.744999  -1.190702  -0.590010
    17  C   -1.113018   0.334557  -1.314247  -0.064086  -0.179416   0.315778
    18  C   -0.553976   0.414672  -0.228547  -0.375705  -0.847686   0.009557
    19  C    0.517476   0.023360  -0.317538  -0.022088  -0.244571   0.111623
    20  C   -0.735709  -0.184076  -0.389104   0.188234   0.060572  -0.016090
    21  C    0.065888  -0.437265  -0.236773  -0.109940  -0.091355  -0.044810
    22  C    0.376010  -1.042356  -1.210706   0.046833  -0.014118   0.103840
    23  C   -0.519705   0.111256  -0.103302  -0.100411  -0.114432  -0.079419
    24  C   -0.431209  -0.382090   0.084901   0.158511  -0.091773  -0.169522
    25  C   -0.313214   0.009355  -0.062875  -0.017350  -0.032241  -0.018390
    26  C    0.017972   0.087662  -0.171831   0.009899   0.017667   0.027810
    27  C    0.252144   0.015149   0.077573   0.081805   0.072571   0.059026
    28  C    0.516747  -0.181545   0.040605   0.153016   0.017132  -0.066990
    29  C    1.236582  -0.315464   0.010898   0.240338  -0.194144  -1.001523
    30  C   -1.801089  -0.297393  -0.309729   0.109399  -0.376829   0.234925
    31  H   -0.179696  -0.011219   0.017903  -0.012161   0.045399   0.125207
    32  H   -0.143536  -0.027699  -0.005729  -0.002464   0.020651   0.272149
    33  H   -0.000513  -0.000039   0.000231   0.029768  -0.003916   0.009782
    34  H   -0.006646   0.002761  -0.005946   0.073243  -0.021955  -0.006262
    35  H   -0.002485   0.001012   0.005248  -0.029056   0.009944  -0.038503
    36  H   -0.001001  -0.002027  -0.019904  -0.005163   0.007512   0.011034
    37  H   -0.001068  -0.005757   0.013116  -0.004444  -0.032323  -0.000139
    38  H   -0.002753  -0.016008  -0.011188   0.004195   0.000438   0.001288
    39  H   -0.000906  -0.009387   0.009090  -0.000866   0.001069  -0.000115
    40  H   -0.000250  -0.001746   0.000517   0.000016   0.000225   0.000006
[...]
 0.00020635,0.00320117,-0.00003971,0.00044268,-0.00040925,-0.00010401,-
 0.32756914,-0.01258315,0.03922395,-0.01219707,-0.00356755,0.00168759,0
 .00062155,0.00352650,0.00168895,0.00048489,-0.00011122,-0.00016792,0.0
 0004035,0.00002148,-0.00001733,0.00000655,0.00000453,-0.00004799,-0.00
 000439,-0.00000798,-0.00002177,-0.00000248,0.00000405,-0.00000273,-0.0
 0000543,-0.00000145,-0.00000245,-0.00000587,-0.00000101,-0.00000099,-0
 .00000135,-0.00000494,-0.00000132,-0.00000839,-0.00000749,-0.00000435,
 0.00000011,-0.00000528,-0.00000064,0.00000535,-0.00002516,-0.00000287,
 -0.00002700,-0.00007660,0.00002149,0.00112464,-0.00023271,-0.00012144,
 0.34861145,0.00002495,-0.00006363,0.00002732,0.00001962,-0.00001101,-0
 .00000437,0.00000610,0.00002528,0.00000427,0.00003880,0.00001062,0.000
 00139,-0.00000858,-0.00001646,-0.00000410,0.00003873,0.00002627,-0.000
 04000,-0.00003254,-0.00000441,-0.00000956,0.00000961,0.00002929,-0.000
 00007,0.00002146,-0.00001693,0.00000283,-0.00000032,0.00000438,-0.0000
 0335,0.00000712,-0.00000173,0.00000166,-0.00000442,0.00000809,0.000000
 29,0.00006187,0.00010395,0.00015075,0.00009367,0.00009942,0.00009509,-
 0.00006427,-0.00001602,0.00001009,0.00008797,-0.00038987,-0.00007766,-
 0.00011076,-0.00002797,0.00001263,0.00001405,-0.00004755,-0.00000546,-
 0.00129632,0.00014348,0.00020432,-0.00028235,0.00007587,0.00003798,0.0
 0011776,0.00003566,-0.00001701,-0.00004098,-0.00000333,0.00001107,-0.0
 0080923,-0.00393664,-0.00133096,-0.02664926,0.00040391,0.00336898,-0.0
 0296944,-0.00043241,0.00091516,0.00050689,0.00022236,-0.00004597,-0.01
 062779,-0.05748204,-0.00228928,0.02723236,0.00614165,-0.00347096,0.002
 16757,-0.00393793,-0.00240700,0.00004911,-0.00108888,-0.00004712,-0.00
 003360,0.00001188,0.00004613,0.00000802,-0.00000449,0.00001014,0.00000
 082,0.00000734,0.00001493,0.00000128,-0.00000156,0.00000129,0.00000117
 ,0.00000206,0.00000116,0.00000126,0.00000079,0.00000027,0.00000024,0.0
 0000142,-0.00000013,-0.00001361,-0.00000310,-0.00000080,0.00000595,0.0
 0000163,0.00000005,-0.00000592,-0.00002766,-0.00000474,-0.00000440,-0.
 00000389,-0.00003105,0.00060159,-0.00106716,-0.00033444,0.01104014,0.0
 6030746,0.00004110,0.00006641,-0.00002124,0.00000520,-0.00005587,0.000
 01126,0.00003462,0.00000514,-0.00000789,-0.00003511,0.00002226,0.00001
 803,-0.00000766,0.00002330,0.00000129,-0.00002627,-0.00005287,-0.00000
 792,0.00001281,0.00000994,0.00000472,-0.00000110,-0.00000759,0.0000022
 2,0.00000857,0.00001520,0.00000197,0.00001980,-0.00001676,0.00000126,-
 0.00002049,0.00000618,0.00000069,0.00000180,-0.00002392,-0.00000387,-0
 .00018110,0.00006376,-0.00068658,0.00001826,0.00007770,0.00013127,0.00
 010856,0.00001090,0.00000189,-0.00002415,-0.00007085,0.00013215,0.0000
 2335,0.00001135,0.00004640,-0.00003338,0.00001022,-0.00003222,-0.00006
 675,-0.00005717,0.00008582,-0.00009653,-0.00000865,0.00008526,0.000011
 36,0.00000616,0.00000694,-0.00002092,0.00001093,-0.00003375,0.00014119
 ,-0.00101092,0.00500480,-0.00208563,-0.00013730,0.00280484,-0.00098863
 ,0.00001227,-0.00336155,0.00006203,0.00012884,0.00002622,0.03934395,-0
 .00231935,-0.04170662,0.00704286,0.00094290,0.00363452,0.00132911,-0.0
 0270918,0.00711652,-0.00022681,-0.00004714,-0.00084380,-0.00002413,-0.
 00016364,-0.00006361,0.00001794,0.00001705,-0.00004547,-0.00000592,0.0
 0000084,-0.00000966,-0.00000049,-0.00000076,0.00000007,0.00000115,0.00
 000021,0.00000038,0.00000120,0.00000021,0.00000053,-0.00000010,0.00000
 076,0.00000121,-0.00000271,-0.00000071,0.00000140,0.00000124,0.0000001
 1,0.00000172,0.00000115,-0.00000230,0.00001456,0.00003175,-0.00000683,
 0.00016568,-0.00000278,-0.00020300,0.00030594,-0.04402717,0.00448726,0
 .03143208,-0.00044437,0.00047301,0.00011895,-0.00000423,-0.00003881,0.
 00001909,0.00004182,-0.00001708,-0.00000058,-0.00004140,-0.00015060,-0
 .00005178,-0.00008012,0.00003304,-0.00002513,-0.00000920,-0.00000624,-
 0.00001720,0.00001996,0.00000821,0.00001299,0.00000336,-0.00002164,0.0
 0000160,-0.00000270,0.00000425,0.00001353,0.00002182,-0.00003200,-0.00
 000748,-0.00002230,0.00000090,-0.00000116,0.00000387,-0.00002326,-0.00
 000087,-0.00037390,-0.00145620,-0.00029607,-0.00003841,-0.00007988,0.0
 0018596,-0.00002737,0.00003574,-0.00001023,0.00000258,0.00006327,0.000
 00679,0.00003336,-0.00004082,-0.00000342,-0.00004030,0.00000502,0.0000
 0446,0.00014952,-0.00024116,-0.00018030,-0.00026186,-0.00005135,0.0000
 4827,0.00006806,0.00005373,0.00000982,-0.00006544,0.00002069,0.0000071
 7,-0.00066446,0.00082230,0.00013902,-0.00122891,0.00296515,0.00184481,
 0.00059543,0.00030222,-0.00005154,0.00000725,0.00033099,-0.00003391,0.
 01202730,0.01608835,0.00180138,-0.11309910,-0.10971618,-0.00956761,-0.
 00851230,-0.02914521,-0.00373660,-0.00450965,0.00102602,0.00152374,0.0
 0006730,-0.00001067,0.00002301,0.00005860,0.00003852,-0.00009525,-0.00
 002639,0.00000288,-0.00001215,-0.00000521,0.00000225,-0.00000478,-0.00
 000364,-0.00000158,-0.00000234,-0.00000347,-0.00000365,-0.00000002,-0.
 00000107,-0.00000209,-0.00000033,-0.00000002,-0.00000216,0.00000005,-0
 .00000079,-0.00000191,-0.00000086,0.00000238,-0.00000716,-0.00000154,0
 .00002354,0.00008123,0.00001100,-0.00003575,-0.00000578,0.00001782,0.0
 0065109,-0.00045405,-0.00076829,0.11475442,0.00001883,0.00009272,0.000
 04320,0.00000533,-0.00002368,0.00000699,0.00001210,-0.00002616,-0.0000
 0655,-0.00007608,-0.00000796,0.00000811,-0.00002465,0.00003510,-0.0000
 0652,0.00002234,-0.00002379,0.00000018,-0.00000759,-0.00001651,0.00000
 383,-0.00000101,0.00000813,-0.00000208,-0.00001225,-0.00002258,0.00000
 284,-0.00004669,0.00001733,0.00001072,0.00002734,-0.00000199,0.0000005
 2,-0.00000939,0.00002137,0.00000122,0.00006785,-0.00017834,-0.00010244
 ,-0.00003354,-0.00008055,0.00002180,0.00000168,0.00002790,0.00000685,0
 .00000518,-0.00002765,-0.00001160,-0.00007248,0.00001913,0.00000674,0.
 00005272,0.00000199,-0.00000366,-0.00005001,0.00013535,0.00022164,0.00
 018746,0.00007735,-0.00004367,-0.00005475,-0.00003279,-0.00000597,0.00
 004530,-0.00002032,-0.00000769,0.00041861,0.00002820,0.00003803,0.0037
 9771,-0.00137620,-0.00236919,-0.00104998,-0.00066863,0.00007072,0.0003
 1557,-0.00043486,-0.00000709,-0.01444997,-0.01763503,-0.00190264,-0.10
 960495,-0.27929833,-0.02929547,0.00139799,0.00152785,-0.00040315,0.000
 28040,0.00195455,-0.00077631,-0.00003719,0.00001249,0.00000254,0.00002
 520,0.00001338,-0.00006198,-0.00001006,0.00000307,-0.00000672,-0.00000
 303,0.00000371,-0.00000116,-0.00000506,-0.00000107,-0.00000092,-0.0000
 0460,-0.00000067,-0.00000127,-0.00000158,-0.00000448,-0.00000195,-0.00
 000255,-0.00000614,-0.00000184,-0.00000533,-0.00000747,-0.00000059,0.0
 0000421,0.00000214,-0.00000112,-0.00004832,-0.00012730,-0.00001454,0.0
 0005102,0.00000625,-0.00002584,0.00037518,0.00075726,0.00089415,0.1187
 4873,0.29468918,-0.00008231,0.00006968,-0.00008368,-0.00000558,-0.0001
 1435,-0.00002616,-0.00001747,0.00003058,0.00001111,0.00011134,-0.00002
 071,0.00000727,0.00002588,-0.00005700,0.00000159,-0.00008198,0.0000643
 0,-0.00002217,0.00003325,0.00003527,0.00000932,0.00001886,-0.00003812,
 0.00000814,-0.00003008,0.00001053,0.00000273,0.00001837,-0.00002611,-0
 .00001020,0.00000304,0.00001125,0.00000551,-0.00000056,0.00000185,-0.0
 0000069,0.00010436,0.00001861,0.00006874,-0.00017906,0.00018355,-0.000
 07291,0.00000943,-0.00006997,0.00004287,-0.00011928,0.00004441,0.00003
 622,-0.00001175,-0.00004490,0.00002193,-0.00002869,0.00002239,0.000013
 07,-0.00005384,0.00026046,-0.00096630,0.00020487,-0.00002416,0.0000865
 6,-0.00002525,0.00000332,0.00005843,0.00003438,0.00000532,-0.00000469,
 0.00030037,-0.00023871,-0.00060855,0.00221252,-0.00228633,0.00778190,-
 0.00034753,-0.00010531,0.00014934,-0.00010816,-0.00012422,-0.00053801,
 -0.00399282,-0.00563414,0.00327051,-0.00897940,-0.02941163,-0.04131725
 ,0.00117930,0.00342302,0.00333716,0.00133348,-0.00029861,0.00593314,-0
 .00001581,-0.00005100,-0.00005782,0.00007110,0.00000287,-0.00014202,0.
 00000267,-0.00000365,-0.00000828,0.00000434,-0.00000070,-0.00000258,-0
 .00000021,-0.00000057,-0.00000266,-0.00000018,0.00000112,0.00000106,0.
 00000050,0.00000041,0.00000046,0.00000196,0.00000243,0.00000298,-0.000
 00348,0.00000231,0.00000030,0.00000169,0.00000289,0.00000090,-0.000013
 95,-0.00004279,0.00000437,0.00003009,-0.00001044,0.00010371,-0.0006628
 6,0.00097759,-0.00415906,0.00953430,0.03292499,0.03001810,0.00038226,0
 .00029494,-0.00019155,-0.00006072,-0.00022783,0.00010374,0.00017071,-0
 .00005923,-0.00001576,-0.00021379,-0.00004899,0.00022049,-0.00011077,0
 .00014185,0.00009632,0.00043297,0.00004958,-0.00031761,-0.00030316,-0.
 00013165,-0.00009022,0.00007709,0.00027300,-0.00000916,0.00014751,-0.0
 0021758,-0.00000362,-0.00016287,0.00012074,0.00001259,0.00008041,-0.00
 002983,0.00000176,-0.00004751,0.00007808,-0.00000742,-0.00139088,-0.00
 308300,-0.00105777,-0.00141218,-0.00050570,0.00009393,-0.00054148,-0.0
 0004331,0.00037911,0.00007311,0.00010129,-0.00004583,-0.00012610,-0.00
 000344,-0.00003010,0.00018355,0.00003953,-0.00000949,0.00073281,-0.000
 16592,0.00005110,0.00007729,-0.00014940,-0.00001959,-0.00002655,-0.000
 11420,0.00002754,0.00011535,-0.00007452,-0.00002420,-0.00120762,-0.003
 13080,0.00001949,-0.00037595,-0.00098940,-0.00022740,-0.00011127,0.000
 37588,0.00005332,-0.00014229,-0.00021268,-0.00003769,-0.00558831,-0.00
 177352,0.00090978,-0.01281981,0.02676961,0.00626207,-0.13739971,0.1226
 9987,0.03478051,0.00975642,-0.01232959,-0.00338208,-0.00025421,-0.0005
 6264,0.00018328,0.00024720,0.00021820,0.00077329,-0.00000440,0.0000556
 0,0.00010133,0.00000529,-0.00000759,0.00001527,0.00000194,0.00001023,0
 .00001741,0.00000839,0.00000372,-0.00000092,0.00000023,0.00000750,-0.0
 0000355,-0.00000113,-0.00000242,0.00001626,-0.00000081,0.00000249,-0.0
 0000240,-0.00001264,-0.00002504,-0.00001115,0.00000022,0.00000839,0.00
 000037,0.00008012,-0.00005437,0.00000114,-0.00066094,0.00124850,0.0003
 8466,0.00100693,-0.00024149,-0.00039145,0.14986860,-0.00012654,-0.0000
 7504,0.00054451,-0.00002164,-0.00007844,0.00003770,0.00007915,0.000060
 40,-0.00004133,0.00013448,-0.00002529,-0.00011035,-0.00007623,-0.00001
 606,-0.00007094,0.00039130,0.00016870,-0.00029074,-0.00027282,-0.00009
 429,-0.00009883,0.00005476,0.00028061,-0.00000772,0.00013725,-0.000223
 52,0.00003186,-0.00016605,0.00006957,0.00001943,0.00014975,-0.00001669
 ,0.00001365,-0.00007797,0.00012675,0.00000854,0.00105639,-0.00150620,0
 .00059341,0.00095362,0.00084945,0.00068914,-0.00037028,-0.00000553,0.0
 0010172,0.00022696,0.00008128,-0.00004181,-0.00013197,-0.00006962,0.00
 001456,0.00017013,0.00001085,-0.00002179,0.00105374,-0.00016264,-0.000
 27213,-0.00016487,-0.00037189,0.00007319,0.00001621,-0.00004670,-0.000
 02830,0.00008099,-0.00010769,-0.00001506,-0.00369626,-0.00246045,-0.00
 103087,-0.00058320,-0.00001932,0.00022014,-0.00000549,0.00023693,0.000
 10241,-0.00015328,-0.00011752,0.00000400,-0.00104137,0.00140564,-0.000
 50238,-0.00388665,0.00631585,0.00104133,0.11968207,-0.24099494,-0.0495
 5773,0.01489327,-0.02031673,-0.00571470,-0.00075533,-0.00040485,0.0005
 4246,-0.00001908,-0.00008979,-0.00013422,0.00000421,0.00007575,0.00011
 232,0.00000194,-0.00000561,0.00001001,0.00000215,0.00001315,0.00001506
 ,0.00000374,0.00000471,0.00000130,-0.00000147,0.00000253,-0.00000104,-
 0.00000494,-0.00000172,0.00000058,-0.00000835,-0.00000177,0.00000038,-
 0.00001058,-0.00004934,0.00000020,0.00001074,-0.00001474,-0.00000762,0
 .00003882,-0.00001763,-0.00001607,-0.00029893,0.00016730,0.00004719,0.
 00042425,0.00059875,0.00051633,-0.12790653,0.25667171,0.00025700,0.000
 56084,-0.00012340,-0.00001647,-0.00039901,0.00014885,0.00021878,-0.000
 06910,0.00004006,-0.00024711,0.00004264,0.00016985,-0.00015878,0.00015
 237,-0.00003168,0.00015574,-0.00012052,-0.00019511,-0.00011714,-0.0000
 6763,-0.00004441,0.00003396,0.00014695,0.00000033,0.00017617,-0.000043
 58,0.00002641,0.00002482,0.00002431,-0.00000649,-0.00007845,0.00002157
 ,-0.00001587,-0.00000953,-0.00009933,-0.00000614,-0.00085837,0.0007654
 9,-0.00337317,-0.00043908,0.00022719,0.00142688,0.00018662,-0.00000287
 ,0.00018178,-0.00019957,-0.00003033,-0.00002928,0.00006023,0.00006780,
 -0.00002925,-0.00003605,0.00006285,0.00002837,0.00065923,0.00004403,0.
 00060687,-0.00036541,-0.00002243,-0.00040374,-0.00002316,-0.00000882,-
 0.00003633,0.00001893,-0.00006349,-0.00001869,0.00038607,-0.00165714,0
 .00619114,-0.00076526,0.00025435,-0.00072760,-0.00004275,-0.00014961,-
 0.00061502,0.00016821,0.00014751,0.00017179,0.00144053,-0.00013328,0.0
 0578066,0.00219101,-0.00374454,0.00353884,0.03207619,-0.04875029,-0.05
 012697,0.00297628,-0.00114084,0.00306126,-0.00002477,-0.00017009,-0.00
 045752,0.00045559,0.00018894,-0.00053965,-0.00005068,0.00001304,-0.000
 02036,0.00000420,-0.00000596,0.00000918,0.00000334,0.00000401,0.000010
 99,0.00000812,0.00000027,-0.00000161,-0.00000130,0.00000645,0.00000133
 ,-0.00000236,0.00000006,0.00000555,0.00000079,0.00000138,0.00000806,-0
 .00001092,-0.00001073,-0.00001956,0.00000899,-0.00000688,0.00002617,-0
 .00000172,-0.00000729,0.00001062,0.00008474,-0.00016800,-0.00002853,-0
 .00045896,0.00073468,-0.00310525,-0.03682705,0.05364204,0.03969088,-0.
 00278340,-0.00149371,-0.00075026,0.00008354,0.00053193,0.00253259,-0.0
 0002437,-0.00037467,-0.00002942,0.00062942,-0.00058709,-0.00068490,-0.
 00035230,-0.00013713,-0.00007007,-0.00156162,0.00454751,0.00105297,-0.
 00062901,-0.00155554,-0.00053961,-0.00027298,0.00114466,-0.00028333,0.
 00085604,-0.00084882,0.00009924,-0.00046935,0.00062551,-0.00010248,0.0
 0019917,-0.00018486,-0.00003876,-0.00010445,0.00024868,0.00001247,0.00
 089154,0.00936209,-0.00416916,-0.02765893,-0.01136172,-0.00196075,-0.0
 1452004,-0.00980449,0.01461003,0.00032653,0.00000660,-0.00013792,0.000
 07703,0.00003271,-0.00014864,0.00033079,-0.00001037,-0.00002533,0.0002
 5203,-0.00004032,0.00005756,-0.00033962,0.00002235,0.00004390,-0.00005
 517,0.00000132,0.00000312,0.00003584,-0.00013183,-0.00001502,0.0003886
 9,-0.00000250,0.00012180,-0.00038948,0.00018744,0.00008219,-0.00003001
 ,-0.00036490,-0.00004899,0.00032929,0.00012174,-0.00002801,0.00003012,
 -0.00010883,0.00007329,-0.00022551,0.00007646,0.00003491,-0.00079001,0
 .00005212,-0.00098213,-0.00021349,0.00116953,-0.00086365,0.00074558,-0
 .00187466,0.00201536,-0.01255381,-0.00573961,-0.01923959,0.00043037,-0
 .00136385,-0.00085647,0.00004023,0.00001556,0.00001556,-0.00006797,-0.
 00007252,0.00017948,0.00001683,0.00000204,-0.00000322,0.00000030,0.000
 01646,-0.00000234,0.00000818,-0.00000629,0.00003105,-0.00000023,0.0000
 1258,-0.00000974,-0.00002077,0.00000165,0.00000020,-0.00000794,0.00000
 729,-0.00000185,-0.00000540,-0.00001447,-0.00001056,-0.00000818,0.0000
 0121,0.00000244,-0.00003624,-0.00000821,-0.00008440,-0.00047332,0.0002
 1390,-0.00086067,0.05792208,0.00457102,0.00057223,0.00137143,-0.000362
 13,-0.00106956,0.00010192,0.00088467,-0.00044867,-0.00014521,-0.004261
 99,0.00060078,-0.00018819,0.00021613,0.00184030,0.00021307,-0.00157891
 ,-0.00079017,0.00316754,0.00081206,0.00009394,0.00018524,0.00014250,-0
 .00095834,-0.00008636,-0.00078122,0.00033818,-0.00007061,-0.00014179,0
 .00009989,-0.00011448,-0.00030142,-0.00000171,-0.00000127,0.00013916,-
 0.00016992,-0.00002479,-0.00657987,-0.00811617,0.00410611,-0.01762728,
 -0.03326361,0.02339279,0.00406743,0.00341442,0.00442346,0.00002332,0.0
 0017322,-0.00002667,0.00014504,-0.00006570,0.00000800,0.00012047,0.000
 30733,0.00004845,0.00018963,0.00011065,-0.00001021,-0.00003217,-0.0000
 6914,-0.00000276,-0.00001189,0.00004064,-0.00000096,0.00001040,-0.0000
 4887,-0.00000125,0.00041603,-0.00020055,-0.00008627,-0.00025513,-0.000
 23034,-0.00002383,-0.00003384,-0.00006427,-0.00001565,0.00003456,0.000
 00514,0.00000201,-0.00006295,0.00033936,0.00008400,0.00032984,-0.00008
 824,-0.00016157,-0.00038847,0.00032624,-0.00007509,-0.00144451,0.00015
 369,0.00014447,-0.00056790,0.00012512,0.00032856,0.00473203,-0.0218191
 9,-0.03500896,0.00030586,-0.00098160,-0.00225432,0.00005878,0.00000773
 ,-0.00000238,-0.00002417,-0.00005531,0.00000600,0.00000920,-0.00000742
 ,0.00000127,0.00000686,0.00000879,0.00003517,-0.00000158,0.00000296,0.
 00000703,0.00000213,0.00000725,0.00000398,-0.00001155,0.00000186,0.000
 00171,-0.00000543,0.00000338,0.00000032,-0.00000182,-0.00000996,-0.000
 00090,0.00000347,-0.00000269,0.00002355,-0.00002127,-0.00001067,-0.000
 01201,-0.00040832,0.00015408,-0.00023702,0.01768502,0.05974491,0.00894
 528,0.00328293,0.00241795,-0.00029832,-0.00120111,-0.00506403,0.000923
 55,0.00030067,-0.00016509,-0.00799315,0.00265779,0.00072329,0.00105172
 ,0.00293045,0.00046370,-0.00583553,-0.01145025,0.00062735,0.00165343,0
 .00255865,0.00409627,0.00030508,-0.00355532,0.00016497,-0.00290609,0.0
 0198222,-0.00005947,0.00038280,-0.00073879,0.00014692,-0.00069285,0.00
 024873,0.00007638,0.00038569,-0.00050407,-0.00003045,0.00106875,-0.009
 34684,-0.00343110,-0.03161899,0.01217604,0.05050788,0.01769335,-0.0017
 3015,-0.01004415,0.00057016,0.00009957,0.00001345,-0.00007391,-0.00022
 566,0.00028286,-0.00001272,0.00049228,0.00006820,-0.00073791,-0.000354
 17,0.00004840,0.00069938,-0.00016509,-0.00011854,0.00003296,0.00000687
 ,-0.00001536,-0.00001517,0.00006749,-0.00001766,-0.00126820,0.00101327
 ,0.00016533,0.00128953,-0.00020673,-0.00036527,-0.00022477,0.00085536,
 0.00013012,-0.00054948,-0.00060418,-0.00003647,0.00030900,-0.00030576,
 -0.00032275,-0.00026619,-0.00063641,0.00002135,0.00020784,0.00130640,0
 .00073569,0.00329604,-0.00269387,0.00083566,-0.00306808,0.00418892,-0.
 00535528,0.00849580,-0.00185936,-0.04878427,-0.00114248,0.00117574,-0.
 00029659,-0.00002954,0.00002590,-0.00000681,0.00009170,-0.00012023,-0.
 00084343,-0.00002801,-0.00002148,0.00000982,0.00002126,-0.00002782,0.0
 0004072,-0.00001436,-0.00001281,-0.00001197,-0.00000551,-0.00002589,0.
 00002603,0.00002709,-0.00001017,0.00000917,0.00000274,-0.00003510,0.00
 001656,0.00004057,0.00001562,0.00007541,0.00010259,-0.00009063,-0.0000
 2984,0.00000465,0.00006220,0.00015085,-0.00179879,-0.00041983,-0.00118
 024,0.01097912,0.00089466,0.01432447\\0.00000007,-0.00000011,-0.000001
 59,-0.00000073,-0.00000031,-0.00000020,-0.00000099,-0.00000049,-0.0000
 0108,-0.00000124,-0.00000026,0.00000003,0.00000021,0.00000038,-0.00000
 023,-0.00000071,-0.00000200,-0.00000185,-0.00000007,-0.00000090,-0.000
 00252,-0.00000017,-0.00000165,-0.00000249,-0.00000001,-0.00000120,-0.0
 0000160,0.00000117,-0.00000097,-0.00000023,0.00000067,-0.00000088,-0.0
 0000048,0.00000030,-0.00000127,-0.00000134,-0.00000056,0.00000146,0.00
 000012,-0.00000159,-0.00000144,-0.00000300,0.00000020,0.00000011,-0.00
 000043,0.00000078,0.00000024,0.00000101,0.00000089,0.,0.00000112,0.000
 00101,-0.00000015,0.00000088,0.00000028,0.00000055,0.00000108,0.000000
 74,0.00000065,0.00000176,0.00000102,0.00000061,0.00000215,0.00000126,0
 .00000039,0.00000176,-0.00000028,0.00000073,0.00000070,-0.00000015,0.0
 0000102,0.00000120,0.00000023,0.00000101,0.00000207,0.00000074,0.00000
 114,0.00000219,-0.00000058,0.00000132,0.00000126,-0.00000100,0.0000010
 9,0.00000044,-0.00000108,0.00000075,-0.00000018,-0.00000059,0.00000054
 ,0.00000019,-0.00000135,0.00000032,-0.00000061,0.00000016,0.00000048,0
 .00000214,-0.00000080,-0.00000112,-0.00000237,-0.00000076,-0.00000137,
 -0.00000282,-0.00000023,-0.00000171,-0.00000261,0.00000055,-0.00000158
 ,-0.00000161,0.00000108,-0.00000117,-0.00000040,0.00000128,-0.00000045
 ,0.00000098,0.00000152,0.00000013,0.00000202,0.00000138,0.00000073,0.0
 0000264,0.00000098,0.00000116,0.00000272,0.00000024,0.00000146,0.00000
 224,-0.00000050,0.00000152,0.00000150,-0.00000129,0.00000131,0.0000004
 1,-0.00000130,0.00000068,-0.00000058,-0.00000079,-0.00000076,-0.000004
 42\\\@


 Other things may change us, but we start and end with family.
 -- Anthony Brandt
 Job cpu time:       1 days  0 hours 25 minutes 50.7 seconds.
 Elapsed time:       0 days  1 hours 13 minutes 29.9 seconds.
 File lengths (MBytes):  RWF=   2281 Int=      0 D2E=      0 Chk=     53 Scr=      1
 Normal termination of Gaussian 16 at Fri Jul 26 07:35:57 2019.
