 Entering Gaussian System, Link 0=/share/apps/gaussian16/g16/g16
 Initial command:
 /share/apps/gaussian16/g16/l1.exe "/home/am2145//scratch/4563/Gau-24825.inp" -scrdir="/home/am2145//scratch/4563/"
 Entering Link 1 = /share/apps/gaussian16/g16/l1.exe PID=     24826.
  
 Copyright (c) 1988,1990,1992,1993,1995,1998,2003,2009,2016,
            Gaussian, Inc.  All Rights Reserved.
  
 This is part of the Gaussian(R) 16 program.  It is based on
 the Gaussian(R) 09 system (copyright 2009, Gaussian, Inc.),
 the Gaussian(R) 03 system (copyright 2003, Gaussian, Inc.),
 the Gaussian(R) 98 system (copyright 1998, Gaussian, Inc.),
 the Gaussian(R) 94 system (copyright 1995, Gaussian, Inc.),
 the Gaussian 92(TM) system (copyright 1992, Gaussian, Inc.),
 the Gaussian 90(TM) system (copyright 1990, Gaussian, Inc.),
 the Gaussian 88(TM) system (copyright 1988, Gaussian, Inc.),
 the Gaussian 86(TM) system (copyright 1986, Carnegie Mellon
 University), and the Gaussian 82(TM) system (copyright 1983,
 Carnegie Mellon University). Gaussian is a federally registered
 trademark of Gaussian, Inc.
  
 This software contains proprietary and confidential information,
 including trade secrets, belonging to Gaussian, Inc.
  
 This software is provided under written license and may be
 used, copied, transmitted, or stored only in accord with that
 written license.
  
 The following legend is applicable only to US Government
 contracts under FAR:
  
                    RESTRICTED RIGHTS LEGEND
  
 Use, reproduction and disclosure by the US Government is
 subject to restrictions as set forth in subparagraphs (a)
 and (c) of the Commercial Computer Software - Restricted
 Rights clause in FAR 52.227-19.
  
 Gaussian, Inc.
 340 Quinnipiac St., Bldg. 40, Wallingford CT 06492
  
  
 ---------------------------------------------------------------
 Warning -- This program may not be used in any manner that
 competes with the business of Gaussian, Inc. or will provide
 assistance to any competitor of Gaussian, Inc.  The licensee
 of this program is prohibited from giving any competitor of
 Gaussian, Inc. access to this program.  By using this program,
 the user acknowledges that Gaussian, Inc. is engaged in the
 business of creating and licensing software in the field of
 computational chemistry and represents and warrants to the
 licensee that it is not a competitor of Gaussian, Inc. and that
 it will not use this program in any manner prohibited above.
 ---------------------------------------------------------------
  

 Cite this work as:
 Gaussian 16, Revision A.03,
 M. J. Frisch, G. W. Trucks, H. B. Schlegel, G. E. Scuseria, 
 M. A. Robb, J. R. Cheeseman, G. Scalmani, V. Barone, 
 G. A. Petersson, H. Nakatsuji, X. Li, M. Caricato, A. V. Marenich, 
 J. Bloino, B. G. Janesko, R. Gomperts, B. Mennucci, H. P. Hratchian, 
 J. V. Ortiz, A. F. Izmaylov, J. L. Sonnenberg, D. Williams-Young, 
 F. Ding, F. Lipparini, F. Egidi, J. Goings, B. Peng, A. Petrone, 
 T. Henderson, D. Ranasinghe, V. G. Zakrzewski, J. Gao, N. Rega, 
 G. Zheng, W. Liang, M. Hada, M. Ehara, K. Toyota, R. Fukuda, 
 J. Hasegawa, M. Ishida, T. Nakajima, Y. Honda, O. Kitao, H. Nakai, 
 T. Vreven, K. Throssell, J. A. Montgomery, Jr., J. E. Peralta, 
 F. Ogliaro, M. J. Bearpark, J. J. Heyd, E. N. Brothers, K. N. Kudin, 
 V. N. Staroverov, T. A. Keith, R. Kobayashi, J. Normand, 
 K. Raghavachari, A. P. Rendell, J. C. Burant, S. S. Iyengar, 
 J. Tomasi, M. Cossi, J. M. Millam, M. Klene, C. Adamo, R. Cammi, 
 J. W. Ochterski, R. L. Martin, K. Morokuma, O. Farkas, 
 J. B. Foresman, and D. J. Fox, Gaussian, Inc., Wallingford CT, 2016.
 
 ******************************************
 Gaussian 16:  ES64L-G16RevA.03 25-Dec-2016
                 7-Aug-2019 
 ******************************************
 %nprocshared=20
 Will use up to   20 processors via shared memory.
 %mem=160GB
 %chk=7-memb2-haddTSguess-4b.chk
 ----------------------------------------------------------------------
 # opt=(ts,tight,modredundant,calcfc,noeigen) freq b3lyp/6-311+g(d,p) i
 nt=grid=fine
 ----------------------------------------------------------------------
 1/5=1,7=10,10=4,11=1,18=120,26=3,38=1/1,3;
 2/9=110,12=2,17=6,18=5,40=1/2;
 3/5=4,6=6,7=111,11=2,25=1,30=1,71=2,74=-5,75=-4,140=1/1,2,3;
 4//1;
 5/5=2,38=5/2;
 8/6=4,10=90,11=11/1;
 11/6=1,8=1,9=11,15=111,16=1/1,2,10;
 10/6=1,13=1/2;
 6/7=2,8=2,9=2,10=2,28=1/1;
 7/10=1,18=20,25=1/1,2,3,16;
 1/5=1,7=10,10=4,11=1,18=20,26=3/3(2);
 2/9=110/2;
 99//99;
 2/9=110/2;
 3/5=4,6=6,7=111,11=2,25=1,30=1,71=1,74=-5,75=-4/1,2,3;
 4/5=5,16=3,69=1/1;
 5/5=2,38=5/2;
 7//1,2,3,16;
 1/5=1,7=10,11=1,18=20,26=3/3(-5);
 2/9=110/2;
 6/7=2,8=2,9=2,10=2,19=2,28=1/1;
 99/9=1/99;
 ----------------------
 7-memb2-haddTSguess-4b
 ----------------------
 Symbolic Z-matrix:
 Charge =  0 Multiplicity = 1
 C                     0.59503  -0.92351   0.3833 
 C                     0.57337   0.52404   0.59584 
 C                     1.91989   0.94784   0.52039 
 C                     1.92508  -1.28182   0.1005 
 C                     2.73848  -0.15185   0.21132 
 C                     2.36926  -2.49818  -0.38517 
 C                     3.7716   -2.49981  -0.75141 
 C                     4.5627   -1.3611   -0.67606 
 C                     4.04544  -0.09037  -0.21149 
 C                     2.38203   2.25063   0.37807 
 C                     3.7953    2.35766   0.05876 
 C                     4.58475   1.25556  -0.22103 
 C                    -0.38191  -1.88033   0.3539 
 C                     0.01867  -3.15922  -0.14113 
 C                     1.33136  -3.46616  -0.51155 
 C                    -0.44443   1.46035   0.45433 
 C                    -0.0027    2.8496    0.38112 
 C                     1.35759   3.22348   0.38672 
 C                    -1.81998   1.08107   0.11399 
 C                    -2.66282   2.13392  -0.36545 
 C                    -2.24505   3.50677  -0.26637 
 C                    -0.99505   3.85599   0.1187 
 C                    -2.36391  -0.24248   0.16968 
 C                    -3.59514  -0.50831  -0.45845 
 C                    -4.3423    0.538    -1.03731 
 C                    -3.91008   1.83752  -0.9423 
 C                    -4.14924  -1.84816  -0.47174 
 C                    -3.64006  -2.85449   0.3012 
 C                    -2.70561  -2.50954   1.29314 
 C                    -1.72064  -1.40764   0.98124 
 H                     1.54016  -4.45776  -0.89526 
 H                     4.2195   -3.41148  -1.13365 
 H                     5.59352  -1.42894  -1.00876 
 H                     5.62082   1.41931  -0.49965 
 H                     4.2425    3.34391  -0.01401 
 H                     1.59293   4.27775   0.27792 
 H                    -0.70021   4.89927   0.15152 
 H                    -2.96441   4.27004  -0.54362 
 H                    -4.52032   2.65034  -1.32067 
 H                    -5.2901    0.30603  -1.51089 
 H                    -5.08672  -1.9903   -1.00156 
 H                    -4.11464  -3.83151   0.32314 
 H                    -1.98334  -4.44062   1.32393 
 H                    -1.41046  -0.97577   1.93402 
 H                    -0.72168  -3.94846  -0.22815 
 H                    -2.08326  -3.69871   1.8405 
 
 Add virtual bond connecting atoms H46        and H43        Dist= 1.72D+00.
 Add virtual bond connecting atoms H46        and C29        Dist= 2.74D+00.
 The following ModRedundant input section has been read:
 

 GradGradGradGradGradGradGradGradGradGradGradGradGradGradGradGradGradGrad
 Berny optimization.
 Initialization pass.
                           ----------------------------
                           !    Initial Parameters    !
                           ! (Angstroms and Degrees)  !
 --------------------------                            --------------------------
 ! Name  Definition              Value          Derivative Info.                !
 --------------------------------------------------------------------------------
 ! R1    R(1,2)                  1.4632         calculate D2E/DX2 analytically  !
 ! R2    R(1,4)                  1.4062         calculate D2E/DX2 analytically  !
 ! R3    R(1,13)                 1.3678         calculate D2E/DX2 analytically  !
 ! R4    R(2,3)                  1.4137         calculate D2E/DX2 analytically  !
 ! R5    R(2,16)                 1.3902         calculate D2E/DX2 analytically  !
 ! R6    R(3,5)                  1.4053         calculate D2E/DX2 analytically  !
 ! R7    R(3,10)                 1.3896         calculate D2E/DX2 analytically  !
 ! R8    R(4,5)                  1.3967         calculate D2E/DX2 analytically  !
 ! R9    R(4,6)                  1.383          calculate D2E/DX2 analytically  !
 ! R10   R(5,9)                  1.375          calculate D2E/DX2 analytically  !
 ! R11   R(6,7)                  1.4494         calculate D2E/DX2 analytically  !
 ! R12   R(6,15)                 1.4248         calculate D2E/DX2 analytically  !
 ! R13   R(7,8)                  1.3886         calculate D2E/DX2 analytically  !
 ! R14   R(7,32)                 1.0853         calculate D2E/DX2 analytically  !
 ! R15   R(8,9)                  1.4485         calculate D2E/DX2 analytically  !
 ! R16   R(8,33)                 1.0853         calculate D2E/DX2 analytically  !
 ! R17   R(9,12)                 1.45           calculate D2E/DX2 analytically  !
 ! R18   R(10,11)                1.4528         calculate D2E/DX2 analytically  !
 ! R19   R(10,18)                1.4128         calculate D2E/DX2 analytically  !
 ! R20   R(11,12)                1.3842         calculate D2E/DX2 analytically  !
 ! R21   R(11,35)                1.0853         calculate D2E/DX2 analytically  !
 ! R22   R(12,34)                1.0853         calculate D2E/DX2 analytically  !
 ! R23   R(13,14)                1.4287         calculate D2E/DX2 analytically  !
 ! R24   R(13,30)                1.5522         calculate D2E/DX2 analytically  !
 ! R25   R(14,15)                1.3981         calculate D2E/DX2 analytically  !
 ! R26   R(14,45)                1.0856         calculate D2E/DX2 analytically  !
 ! R27   R(15,31)                1.0836         calculate D2E/DX2 analytically  !
 ! R28   R(16,17)                1.4596         calculate D2E/DX2 analytically  !
 ! R29   R(16,19)                1.4669         calculate D2E/DX2 analytically  !
 ! R30   R(17,18)                1.4107         calculate D2E/DX2 analytically  !
 ! R31   R(17,22)                1.4375         calculate D2E/DX2 analytically  !
 ! R32   R(18,36)                1.0857         calculate D2E/DX2 analytically  !
 ! R33   R(19,20)                1.4313         calculate D2E/DX2 analytically  !
 ! R34   R(19,23)                1.432          calculate D2E/DX2 analytically  !
 ! R35   R(20,21)                1.4384         calculate D2E/DX2 analytically  !
 ! R36   R(20,26)                1.4058         calculate D2E/DX2 analytically  !
 ! R37   R(21,22)                1.3538         calculate D2E/DX2 analytically  !
 ! R38   R(21,38)                1.0849         calculate D2E/DX2 analytically  !
 ! R39   R(22,37)                1.0846         calculate D2E/DX2 analytically  !
 ! R40   R(23,24)                1.4075         calculate D2E/DX2 analytically  !
 ! R41   R(23,30)                1.5589         calculate D2E/DX2 analytically  !
 ! R42   R(24,25)                1.41           calculate D2E/DX2 analytically  !
 ! R43   R(24,27)                1.45           calculate D2E/DX2 analytically  !
 ! R44   R(25,26)                1.3728         calculate D2E/DX2 analytically  !
 ! R45   R(25,40)                1.0846         calculate D2E/DX2 analytically  !
 ! R46   R(26,39)                1.0845         calculate D2E/DX2 analytically  !
 ! R47   R(27,28)                1.3673         calculate D2E/DX2 analytically  !
 ! R48   R(27,41)                1.0862         calculate D2E/DX2 analytically  !
 ! R49   R(28,29)                1.4057         calculate D2E/DX2 analytically  !
 ! R50   R(28,42)                1.0864         calculate D2E/DX2 analytically  !
 ! R51   R(29,30)                1.5105         calculate D2E/DX2 analytically  !
 ! R52   R(29,46)                1.4495         calculate D2E/DX2 analytically  !
 ! R53   R(30,44)                1.0911         calculate D2E/DX2 analytically  !
 ! R54   R(43,46)                0.9095         calculate D2E/DX2 analytically  !
 ! A1    A(2,1,4)              107.1749         calculate D2E/DX2 analytically  !
 ! A2    A(2,1,13)             133.2044         calculate D2E/DX2 analytically  !
 ! A3    A(4,1,13)             119.5385         calculate D2E/DX2 analytically  !
 ! A4    A(1,2,3)              105.9457         calculate D2E/DX2 analytically  !
 ! A5    A(1,2,16)             131.4792         calculate D2E/DX2 analytically  !
 ! A6    A(3,2,16)             119.3417         calculate D2E/DX2 analytically  !
 ! A7    A(2,3,5)              109.3888         calculate D2E/DX2 analytically  !
 ! A8    A(2,3,10)             127.1059         calculate D2E/DX2 analytically  !
 ! A9    A(5,3,10)             121.1563         calculate D2E/DX2 analytically  !
 ! A10   A(1,4,5)              109.1921         calculate D2E/DX2 analytically  !
 ! A11   A(1,4,6)              126.763          calculate D2E/DX2 analytically  !
 ! A12   A(5,4,6)              123.5299         calculate D2E/DX2 analytically  !
 ! A13   A(3,5,4)              108.1379         calculate D2E/DX2 analytically  !
 ! A14   A(3,5,9)              125.8947         calculate D2E/DX2 analytically  !
 ! A15   A(4,5,9)              124.4249         calculate D2E/DX2 analytically  !
 ! A16   A(4,6,7)              113.6077         calculate D2E/DX2 analytically  !
 ! A17   A(4,6,15)             113.247          calculate D2E/DX2 analytically  !
 ! A18   A(7,6,15)             132.9697         calculate D2E/DX2 analytically  !
 ! A19   A(6,7,8)              122.452          calculate D2E/DX2 analytically  !
 ! A20   A(6,7,32)             119.2911         calculate D2E/DX2 analytically  !
 ! A21   A(8,7,32)             118.2194         calculate D2E/DX2 analytically  !
 ! A22   A(7,8,9)              122.2332         calculate D2E/DX2 analytically  !
 ! A23   A(7,8,33)             118.2436         calculate D2E/DX2 analytically  !
 ! A24   A(9,8,33)             119.4939         calculate D2E/DX2 analytically  !
 ! A25   A(5,9,8)              113.5045         calculate D2E/DX2 analytically  !
 ! A26   A(5,9,12)             113.3942         calculate D2E/DX2 analytically  !
 ! A27   A(8,9,12)             132.7957         calculate D2E/DX2 analytically  !
 ! A28   A(3,10,11)            114.5243         calculate D2E/DX2 analytically  !
 ! A29   A(3,10,18)            113.8155         calculate D2E/DX2 analytically  !
 ! A30   A(11,10,18)           130.9942         calculate D2E/DX2 analytically  !
 ! A31   A(10,11,12)           122.7209         calculate D2E/DX2 analytically  !
 ! A32   A(10,11,35)           118.8483         calculate D2E/DX2 analytically  !
 ! A33   A(12,11,35)           118.3555         calculate D2E/DX2 analytically  !
 ! A34   A(9,12,11)            121.7075         calculate D2E/DX2 analytically  !
 ! A35   A(9,12,34)            119.789          calculate D2E/DX2 analytically  !
 ! A36   A(11,12,34)           118.4376         calculate D2E/DX2 analytically  !
 ! A37   A(1,13,14)            115.683          calculate D2E/DX2 analytically  !
 ! A38   A(1,13,30)            113.2236         calculate D2E/DX2 analytically  !
 ! A39   A(14,13,30)           130.8811         calculate D2E/DX2 analytically  !
 ! A40   A(13,14,15)           123.477          calculate D2E/DX2 analytically  !
 ! A41   A(13,14,45)           119.1657         calculate D2E/DX2 analytically  !
 ! A42   A(15,14,45)           117.3526         calculate D2E/DX2 analytically  !
 ! A43   A(6,15,14)            120.7502         calculate D2E/DX2 analytically  !
 ! A44   A(6,15,31)            120.8467         calculate D2E/DX2 analytically  !
 ! A45   A(14,15,31)           118.403          calculate D2E/DX2 analytically  !
 ! A46   A(2,16,17)            115.1241         calculate D2E/DX2 analytically  !
 ! A47   A(2,16,19)            122.4124         calculate D2E/DX2 analytically  !
 ! A48   A(17,16,19)           121.2142         calculate D2E/DX2 analytically  !
 ! A49   A(16,17,18)           122.9464         calculate D2E/DX2 analytically  !
 ! A50   A(16,17,22)           117.8124         calculate D2E/DX2 analytically  !
 ! A51   A(18,17,22)           118.7389         calculate D2E/DX2 analytically  !
 ! A52   A(10,18,17)           121.1086         calculate D2E/DX2 analytically  !
 ! A53   A(10,18,36)           120.7225         calculate D2E/DX2 analytically  !
 ! A54   A(17,18,36)           117.7731         calculate D2E/DX2 analytically  !
 ! A55   A(16,19,20)           116.0848         calculate D2E/DX2 analytically  !
 ! A56   A(16,19,23)           125.8821         calculate D2E/DX2 analytically  !
 ! A57   A(20,19,23)           117.9829         calculate D2E/DX2 analytically  !
 ! A58   A(19,20,21)           120.5268         calculate D2E/DX2 analytically  !
 ! A59   A(19,20,26)           120.3179         calculate D2E/DX2 analytically  !
 ! A60   A(21,20,26)           119.1551         calculate D2E/DX2 analytically  !
 ! A61   A(20,21,22)           122.2735         calculate D2E/DX2 analytically  !
 ! A62   A(20,21,38)           117.4711         calculate D2E/DX2 analytically  !
 ! A63   A(22,21,38)           120.2289         calculate D2E/DX2 analytically  !
 ! A64   A(17,22,21)           120.5794         calculate D2E/DX2 analytically  !
 ! A65   A(17,22,37)           118.6997         calculate D2E/DX2 analytically  !
 ! A66   A(21,22,37)           120.5122         calculate D2E/DX2 analytically  !
 ! A67   A(19,23,24)           119.3046         calculate D2E/DX2 analytically  !
 ! A68   A(19,23,30)           123.6644         calculate D2E/DX2 analytically  !
 ! A69   A(24,23,30)           116.8807         calculate D2E/DX2 analytically  !
 ! A70   A(23,24,25)           120.4369         calculate D2E/DX2 analytically  !
 ! A71   A(23,24,27)           120.8566         calculate D2E/DX2 analytically  !
 ! A72   A(25,24,27)           118.6493         calculate D2E/DX2 analytically  !
 ! A73   A(24,25,26)           120.4776         calculate D2E/DX2 analytically  !
 ! A74   A(24,25,40)           118.9209         calculate D2E/DX2 analytically  !
 ! A75   A(26,25,40)           120.5173         calculate D2E/DX2 analytically  !
 ! A76   A(20,26,25)           120.4857         calculate D2E/DX2 analytically  !
 ! A77   A(20,26,39)           118.9702         calculate D2E/DX2 analytically  !
 ! A78   A(25,26,39)           120.5408         calculate D2E/DX2 analytically  !
 ! A79   A(24,27,28)           122.1831         calculate D2E/DX2 analytically  !
 ! A80   A(24,27,41)           117.0795         calculate D2E/DX2 analytically  !
 ! A81   A(28,27,41)           120.0571         calculate D2E/DX2 analytically  !
 ! A82   A(27,28,29)           117.7654         calculate D2E/DX2 analytically  !
 ! A83   A(27,28,42)           120.707          calculate D2E/DX2 analytically  !
 ! A84   A(29,28,42)           119.789          calculate D2E/DX2 analytically  !
 ! A85   A(28,29,30)           117.8243         calculate D2E/DX2 analytically  !
 ! A86   A(28,29,46)           110.5212         calculate D2E/DX2 analytically  !
 ! A87   A(30,29,46)           113.358          calculate D2E/DX2 analytically  !
 ! A88   A(13,30,23)           111.9083         calculate D2E/DX2 analytically  !
 ! A89   A(13,30,29)           115.0694         calculate D2E/DX2 analytically  !
 ! A90   A(13,30,44)           103.1959         calculate D2E/DX2 analytically  !
 ! A91   A(23,30,29)           112.5612         calculate D2E/DX2 analytically  !
 ! A92   A(23,30,44)           106.0261         calculate D2E/DX2 analytically  !
 ! A93   A(29,30,44)           107.0858         calculate D2E/DX2 analytically  !
 ! A94   A(29,46,43)           120.1258         calculate D2E/DX2 analytically  !
 ! D1    D(4,1,2,3)             -4.0085         calculate D2E/DX2 analytically  !
 ! D2    D(4,1,2,16)           154.8718         calculate D2E/DX2 analytically  !
 ! D3    D(13,1,2,3)           179.4222         calculate D2E/DX2 analytically  !
 ! D4    D(13,1,2,16)          -21.6975         calculate D2E/DX2 analytically  !
 ! D5    D(2,1,4,5)              3.7818         calculate D2E/DX2 analytically  !
 ! D6    D(2,1,4,6)           -168.16           calculate D2E/DX2 analytically  !
 ! D7    D(13,1,4,5)          -179.092          calculate D2E/DX2 analytically  !
 ! D8    D(13,1,4,6)             8.9662         calculate D2E/DX2 analytically  !
 ! D9    D(2,1,13,14)          168.342          calculate D2E/DX2 analytically  !
 ! D10   D(2,1,13,30)          -16.3694         calculate D2E/DX2 analytically  !
 ! D11   D(4,1,13,14)           -7.8902         calculate D2E/DX2 analytically  !
 ! D12   D(4,1,13,30)          167.3984         calculate D2E/DX2 analytically  !
 ! D13   D(1,2,3,5)              2.8089         calculate D2E/DX2 analytically  !
 ! D14   D(1,2,3,10)           165.3542         calculate D2E/DX2 analytically  !
 ! D15   D(16,2,3,5)          -159.1514         calculate D2E/DX2 analytically  !
 ! D16   D(16,2,3,10)            3.3939         calculate D2E/DX2 analytically  !
 ! D17   D(1,2,16,17)         -162.9786         calculate D2E/DX2 analytically  !
 ! D18   D(1,2,16,19)            4.3818         calculate D2E/DX2 analytically  !
 ! D19   D(3,2,16,17)           -6.3969         calculate D2E/DX2 analytically  !
 ! D20   D(3,2,16,19)          160.9636         calculate D2E/DX2 analytically  !
 ! D21   D(2,3,5,4)             -0.5504         calculate D2E/DX2 analytically  !
 ! D22   D(2,3,5,9)            165.7191         calculate D2E/DX2 analytically  !
 ! D23   D(10,3,5,4)          -164.3178         calculate D2E/DX2 analytically  !
 ! D24   D(10,3,5,9)             1.9517         calculate D2E/DX2 analytically  !
 ! D25   D(2,3,10,11)         -168.0961         calculate D2E/DX2 analytically  !
 ! D26   D(2,3,10,18)            3.5982         calculate D2E/DX2 analytically  !
 ! D27   D(5,3,10,11)           -7.4031         calculate D2E/DX2 analytically  !
 ! D28   D(5,3,10,18)          164.2912         calculate D2E/DX2 analytically  !
 ! D29   D(1,4,5,3)             -2.0716         calculate D2E/DX2 analytically  !
 ! D30   D(1,4,5,9)           -168.5917         calculate D2E/DX2 analytically  !
 ! D31   D(6,4,5,3)            170.1861         calculate D2E/DX2 analytically  !
 ! D32   D(6,4,5,9)              3.666          calculate D2E/DX2 analytically  !
 ! D33   D(1,4,6,7)            171.8027         calculate D2E/DX2 analytically  !
 ! D34   D(1,4,6,15)            -4.0184         calculate D2E/DX2 analytically  !
 ! D35   D(5,4,6,7)              0.9408         calculate D2E/DX2 analytically  !
 ! D36   D(5,4,6,15)          -174.8803         calculate D2E/DX2 analytically  !
 ! D37   D(3,5,9,8)           -169.8268         calculate D2E/DX2 analytically  !
 ! D38   D(3,5,9,12)             4.6525         calculate D2E/DX2 analytically  !
 ! D39   D(4,5,9,8)             -5.6965         calculate D2E/DX2 analytically  !
 ! D40   D(4,5,9,12)           168.7828         calculate D2E/DX2 analytically  !
 ! D41   D(4,6,7,8)             -2.9307         calculate D2E/DX2 analytically  !
 ! D42   D(4,6,7,32)           179.3391         calculate D2E/DX2 analytically  !
 ! D43   D(15,6,7,8)           171.8192         calculate D2E/DX2 analytically  !
 ! D44   D(15,6,7,32)           -5.911          calculate D2E/DX2 analytically  !
 ! D45   D(4,6,15,14)           -1.0437         calculate D2E/DX2 analytically  !
 ! D46   D(4,6,15,31)          179.0534         calculate D2E/DX2 analytically  !
 ! D47   D(7,6,15,14)         -175.8079         calculate D2E/DX2 analytically  !
 ! D48   D(7,6,15,31)            4.2891         calculate D2E/DX2 analytically  !
 ! D49   D(6,7,8,9)              0.6705         calculate D2E/DX2 analytically  !
 ! D50   D(6,7,8,33)          -177.3486         calculate D2E/DX2 analytically  !
 ! D51   D(32,7,8,9)           178.4239         calculate D2E/DX2 analytically  !
 ! D52   D(32,7,8,33)            0.4048         calculate D2E/DX2 analytically  !
 ! D53   D(7,8,9,5)              3.5494         calculate D2E/DX2 analytically  !
 ! D54   D(7,8,9,12)          -169.5394         calculate D2E/DX2 analytically  !
 ! D55   D(33,8,9,5)          -178.4555         calculate D2E/DX2 analytically  !
 ! D56   D(33,8,9,12)            8.4557         calculate D2E/DX2 analytically  !
 ! D57   D(5,9,12,11)           -5.4178         calculate D2E/DX2 analytically  !
 ! D58   D(5,9,12,34)          177.5786         calculate D2E/DX2 analytically  !
 ! D59   D(8,9,12,11)          167.6768         calculate D2E/DX2 analytically  !
 ! D60   D(8,9,12,34)           -9.3268         calculate D2E/DX2 analytically  !
 ! D61   D(3,10,11,12)           6.5489         calculate D2E/DX2 analytically  !
 ! D62   D(3,10,11,35)        -176.662          calculate D2E/DX2 analytically  !
 ! D63   D(18,10,11,12)       -163.3671         calculate D2E/DX2 analytically  !
 ! D64   D(18,10,11,35)         13.4219         calculate D2E/DX2 analytically  !
 ! D65   D(3,10,18,17)          -7.0609         calculate D2E/DX2 analytically  !
 ! D66   D(3,10,18,36)        -179.679          calculate D2E/DX2 analytically  !
 ! D67   D(11,10,18,17)        162.9115         calculate D2E/DX2 analytically  !
 ! D68   D(11,10,18,36)         -9.7066         calculate D2E/DX2 analytically  !
 ! D69   D(10,11,12,9)          -0.0728         calculate D2E/DX2 analytically  !
 ! D70   D(10,11,12,34)        176.97           calculate D2E/DX2 analytically  !
 ! D71   D(35,11,12,9)        -176.8768         calculate D2E/DX2 analytically  !
 ! D72   D(35,11,12,34)          0.166          calculate D2E/DX2 analytically  !
 ! D73   D(1,13,14,15)           3.3411         calculate D2E/DX2 analytically  !
 ! D74   D(1,13,14,45)        -177.462          calculate D2E/DX2 analytically  !
 ! D75   D(30,13,14,15)       -170.9293         calculate D2E/DX2 analytically  !
 ! D76   D(30,13,14,45)          8.2676         calculate D2E/DX2 analytically  !
 ! D77   D(1,13,30,23)          64.722          calculate D2E/DX2 analytically  !
 ! D78   D(1,13,30,29)        -165.137          calculate D2E/DX2 analytically  !
 ! D79   D(1,13,30,44)         -48.8519         calculate D2E/DX2 analytically  !
 ! D80   D(14,13,30,23)       -120.8964         calculate D2E/DX2 analytically  !
 ! D81   D(14,13,30,29)          9.2445         calculate D2E/DX2 analytically  !
 ! D82   D(14,13,30,44)        125.5296         calculate D2E/DX2 analytically  !
 ! D83   D(13,14,15,6)           1.2702         calculate D2E/DX2 analytically  !
 ! D84   D(13,14,15,31)       -178.8246         calculate D2E/DX2 analytically  !
 ! D85   D(45,14,15,6)        -177.9403         calculate D2E/DX2 analytically  !
 ! D86   D(45,14,15,31)          1.9649         calculate D2E/DX2 analytically  !
 ! D87   D(2,16,17,18)           2.9706         calculate D2E/DX2 analytically  !
 ! D88   D(2,16,17,22)         174.728          calculate D2E/DX2 analytically  !
 ! D89   D(19,16,17,18)       -164.5554         calculate D2E/DX2 analytically  !
 ! D90   D(19,16,17,22)          7.202          calculate D2E/DX2 analytically  !
 ! D91   D(2,16,19,20)        -162.9609         calculate D2E/DX2 analytically  !
 ! D92   D(2,16,19,23)          14.3949         calculate D2E/DX2 analytically  !
 ! D93   D(17,16,19,20)          3.6449         calculate D2E/DX2 analytically  !
 ! D94   D(17,16,19,23)       -178.9993         calculate D2E/DX2 analytically  !
 ! D95   D(16,17,18,10)          4.1212         calculate D2E/DX2 analytically  !
 ! D96   D(16,17,18,36)        176.9503         calculate D2E/DX2 analytically  !
 ! D97   D(22,17,18,10)       -167.5637         calculate D2E/DX2 analytically  !
 ! D98   D(22,17,18,36)          5.2654         calculate D2E/DX2 analytically  !
 ! D99   D(16,17,22,21)        -10.7727         calculate D2E/DX2 analytically  !
 ! D100  D(16,17,22,37)        174.4487         calculate D2E/DX2 analytically  !
 ! D101  D(18,17,22,21)        161.3409         calculate D2E/DX2 analytically  !
 ! D102  D(18,17,22,37)        -13.4377         calculate D2E/DX2 analytically  !
 ! D103  D(16,19,20,21)        -11.381          calculate D2E/DX2 analytically  !
 ! D104  D(16,19,20,26)        168.4924         calculate D2E/DX2 analytically  !
 ! D105  D(23,19,20,21)        171.0449         calculate D2E/DX2 analytically  !
 ! D106  D(23,19,20,26)         -9.0817         calculate D2E/DX2 analytically  !
 ! D107  D(16,19,23,24)       -166.0691         calculate D2E/DX2 analytically  !
 ! D108  D(16,19,23,30)         18.5304         calculate D2E/DX2 analytically  !
 ! D109  D(20,19,23,24)         11.2416         calculate D2E/DX2 analytically  !
 ! D110  D(20,19,23,30)       -164.1588         calculate D2E/DX2 analytically  !
 ! D111  D(19,20,21,22)          8.425          calculate D2E/DX2 analytically  !
 ! D112  D(19,20,21,38)       -173.4437         calculate D2E/DX2 analytically  !
 ! D113  D(26,20,21,22)       -171.4499         calculate D2E/DX2 analytically  !
 ! D114  D(26,20,21,38)          6.6815         calculate D2E/DX2 analytically  !
 ! D115  D(19,20,26,25)          0.8406         calculate D2E/DX2 analytically  !
 ! D116  D(19,20,26,39)       -178.4986         calculate D2E/DX2 analytically  !
 ! D117  D(21,20,26,25)       -179.2843         calculate D2E/DX2 analytically  !
 ! D118  D(21,20,26,39)          1.3765         calculate D2E/DX2 analytically  !
 ! D119  D(20,21,22,17)          3.2488         calculate D2E/DX2 analytically  !
 ! D120  D(20,21,22,37)        177.9324         calculate D2E/DX2 analytically  !
 ! D121  D(38,21,22,17)       -174.8323         calculate D2E/DX2 analytically  !
 ! D122  D(38,21,22,37)         -0.1487         calculate D2E/DX2 analytically  !
 ! D123  D(19,23,24,25)         -5.4201         calculate D2E/DX2 analytically  !
 ! D124  D(19,23,24,27)        177.3667         calculate D2E/DX2 analytically  !
 ! D125  D(30,23,24,25)        170.2886         calculate D2E/DX2 analytically  !
 ! D126  D(30,23,24,27)         -6.9246         calculate D2E/DX2 analytically  !
 ! D127  D(19,23,30,13)        -69.638          calculate D2E/DX2 analytically  !
 ! D128  D(19,23,30,29)        158.9376         calculate D2E/DX2 analytically  !
 ! D129  D(19,23,30,44)         42.1712         calculate D2E/DX2 analytically  !
 ! D130  D(24,23,30,13)        114.8586         calculate D2E/DX2 analytically  !
 ! D131  D(24,23,30,29)        -16.5658         calculate D2E/DX2 analytically  !
 ! D132  D(24,23,30,44)       -133.3321         calculate D2E/DX2 analytically  !
 ! D133  D(23,24,25,26)         -3.0295         calculate D2E/DX2 analytically  !
 ! D134  D(23,24,25,40)       -179.7126         calculate D2E/DX2 analytically  !
 ! D135  D(27,24,25,26)        174.2444         calculate D2E/DX2 analytically  !
 ! D136  D(27,24,25,40)         -2.4387         calculate D2E/DX2 analytically  !
 ! D137  D(23,24,27,28)         11.4001         calculate D2E/DX2 analytically  !
 ! D138  D(23,24,27,41)       -178.0566         calculate D2E/DX2 analytically  !
 ! D139  D(25,24,27,28)       -165.8619         calculate D2E/DX2 analytically  !
 ! D140  D(25,24,27,41)          4.6813         calculate D2E/DX2 analytically  !
 ! D141  D(24,25,26,20)          5.3419         calculate D2E/DX2 analytically  !
 ! D142  D(24,25,26,39)       -175.3294         calculate D2E/DX2 analytically  !
 ! D143  D(40,25,26,20)       -178.0282         calculate D2E/DX2 analytically  !
 ! D144  D(40,25,26,39)          1.3005         calculate D2E/DX2 analytically  !
 ! D145  D(24,27,28,29)         10.9097         calculate D2E/DX2 analytically  !
 ! D146  D(24,27,28,42)        175.858          calculate D2E/DX2 analytically  !
 ! D147  D(41,27,28,29)       -159.3595         calculate D2E/DX2 analytically  !
 ! D148  D(41,27,28,42)          5.5888         calculate D2E/DX2 analytically  !
 ! D149  D(27,28,29,30)        -36.5998         calculate D2E/DX2 analytically  !
 ! D150  D(27,28,29,46)       -169.1499         calculate D2E/DX2 analytically  !
 ! D151  D(42,28,29,30)        158.3086         calculate D2E/DX2 analytically  !
 ! D152  D(42,28,29,46)         25.7586         calculate D2E/DX2 analytically  !
 ! D153  D(28,29,30,13)        -91.1181         calculate D2E/DX2 analytically  !
 ! D154  D(28,29,30,23)         38.7046         calculate D2E/DX2 analytically  !
 ! D155  D(28,29,30,44)        154.8377         calculate D2E/DX2 analytically  !
 ! D156  D(46,29,30,13)         40.1589         calculate D2E/DX2 analytically  !
 ! D157  D(46,29,30,23)        169.9815         calculate D2E/DX2 analytically  !
 ! D158  D(46,29,30,44)        -73.8853         calculate D2E/DX2 analytically  !
 ! D159  D(28,29,46,43)         29.6697         calculate D2E/DX2 analytically  !
 ! D160  D(30,29,46,43)       -105.1219         calculate D2E/DX2 analytically  !
 --------------------------------------------------------------------------------
 Trust Radius=3.00D-01 FncErr=1.00D-07 GrdErr=1.00D-06 EigMax=2.50D+02 EigMin=1.00D-04
 Number of steps in this run=    276 maximum allowed number of steps=    276.
 Search for a saddle point of order  1.
 GradGradGradGradGradGradGradGradGradGradGradGradGradGradGradGradGradGrad

                          Input orientation:                          
 ---------------------------------------------------------------------
 Center     Atomic      Atomic             Coordinates (Angstroms)
 Number     Number       Type             X           Y           Z
 ---------------------------------------------------------------------
      1          6           0        0.595030   -0.923510    0.383300
      2          6           0        0.573370    0.524040    0.595840
      3          6           0        1.919890    0.947840    0.520390
      4          6           0        1.925080   -1.281820    0.100500
      5          6           0        2.738480   -0.151850    0.211320
      6          6           0        2.369260   -2.498180   -0.385170
      7          6           0        3.771600   -2.499810   -0.751410
      8          6           0        4.562700   -1.361100   -0.676060
      9          6           0        4.045440   -0.090370   -0.211490
     10          6           0        2.382030    2.250630    0.378070
     11          6           0        3.795300    2.357660    0.058760
     12          6           0        4.584750    1.255560   -0.221030
     13          6           0       -0.381910   -1.880330    0.353900
     14          6           0        0.018670   -3.159220   -0.141130
     15          6           0        1.331360   -3.466160   -0.511550
     16          6           0       -0.444430    1.460350    0.454330
     17          6           0       -0.002700    2.849600    0.381120
     18          6           0        1.357590    3.223480    0.386720
     19          6           0       -1.819980    1.081070    0.113990
     20          6           0       -2.662820    2.133920   -0.365450
     21          6           0       -2.245050    3.506770   -0.266370
     22          6           0       -0.995050    3.855990    0.118700
     23          6           0       -2.363910   -0.242480    0.169680
     24          6           0       -3.595140   -0.508310   -0.458450
     25          6           0       -4.342300    0.538000   -1.037310
     26          6           0       -3.910080    1.837520   -0.942300
     27          6           0       -4.149240   -1.848160   -0.471740
     28          6           0       -3.640060   -2.854490    0.301200
     29          6           0       -2.705610   -2.509540    1.293140
     30          6           0       -1.720640   -1.407640    0.981240
     31          1           0        1.540160   -4.457760   -0.895260
     32          1           0        4.219500   -3.411480   -1.133650
     33          1           0        5.593520   -1.428940   -1.008760
     34          1           0        5.620820    1.419310   -0.499650
     35          1           0        4.242500    3.343910   -0.014010
     36          1           0        1.592930    4.277750    0.277920
     37          1           0       -0.700210    4.899270    0.151520
     38          1           0       -2.964410    4.270040   -0.543620
     39          1           0       -4.520320    2.650340   -1.320670
     40          1           0       -5.290100    0.306030   -1.510890
     41          1           0       -5.086720   -1.990300   -1.001560
     42          1           0       -4.114640   -3.831510    0.323140
     43          1           0       -1.983340   -4.440620    1.323930
     44          1           0       -1.410460   -0.975770    1.934020
     45          1           0       -0.721680   -3.948460   -0.228150
     46          1           0       -2.083260   -3.698710    1.840500
 ---------------------------------------------------------------------
                    Distance matrix (angstroms):
                    1          2          3          4          5
     1  C    0.000000
     2  C    1.463230   0.000000
     3  C    2.296954   1.413653   0.000000
     4  C    1.406199   2.309461   2.268858   0.000000
     5  C    2.284604   2.300518   1.405323   1.396686   0.000000
     6  C    2.493597   3.649851   3.591243   1.383005   2.448957
     7  C    3.723290   4.602980   4.114924   2.370419   2.739909
     8  C    4.129907   4.591975   3.707714   2.750704   2.361675
     9  C    3.599059   3.617257   2.476185   2.452105   1.375025
    10  C    3.642604   2.509938   1.389637   3.572681   2.434496
    11  C    4.594903   3.745858   2.391204   4.092100   2.727230
    12  C    4.586003   4.158554   2.783141   3.689922   2.361449
    13  C    1.367765   2.598478   3.650280   2.396795   3.569987
    14  C    2.367618   3.797002   4.573859   2.686525   4.070118
    15  C    2.794281   4.209817   4.571068   2.344877   3.672489
    16  C    2.601598   1.390186   2.420132   3.641328   3.576193
    17  C    3.820163   2.405450   2.707848   4.567682   4.068366
    18  C    4.216519   2.818813   2.347890   4.549912   3.651092
    19  C    3.150102   2.504114   3.764245   4.428194   4.723253
    20  C    4.530131   3.740149   4.815883   5.738747   5.893339
    21  C    5.302406   4.193277   4.951145   6.360438   6.200747
    22  C    5.044005   3.713421   4.137096   5.909702   5.478194
    23  C    3.043807   3.065417   4.459910   4.413666   5.103365
    24  C    4.294003   4.421962   5.787405   5.602104   6.378903
    25  C    5.341477   5.179883   6.466021   6.624682   7.223048
    26  C    5.447616   4.918580   6.076145   6.698269   7.035040
    27  C    4.908581   5.391670   6.755463   6.127443   7.126340
    28  C    4.655256   5.408722   6.739347   5.786567   6.928067
    29  C    3.773264   4.521122   5.826308   4.936899   6.030518
    30  C    2.440131   3.023641   4.360519   3.752707   4.696119
    31  H    3.875424   5.289272   5.600783   3.350567   4.604492
    32  H    4.650582   5.636818   5.198820   3.364958   3.824598
    33  H    5.213271   5.620567   4.634969   3.835304   3.357202
    34  H    5.614888   5.241980   3.867770   4.616793   3.358855
    35  H    5.627856   4.667558   3.379534   5.175029   3.812242
    36  H    5.297170   3.902680   3.354697   5.572308   4.575814
    37  H    5.969601   4.578435   4.755501   6.715700   6.110808
    38  H    6.364099   5.277004   6.002126   7.425978   7.255756
    39  H    6.468595   5.842931   6.911173   7.682759   7.930286
    40  H    6.303529   6.234270   7.518110   7.561525   8.223975
    41  H    5.944591   6.396109   7.748650   7.133149   8.129252
    42  H    5.535438   6.404890   7.700432   6.559627   7.779309
    43  H    4.461260   5.631583   6.701969   5.172093   6.475109
    44  H    2.535637   2.824135   4.097543   3.818545   4.567301
    45  H    3.355282   4.728570   5.613551   3.771514   5.155588
    46  H    4.122912   5.141836   6.273622   4.993571   6.203517
                    6          7          8          9         10
     6  C    0.000000
     7  C    1.449376   0.000000
     8  C    2.487719   1.388588   0.000000
     9  C    2.938927   2.484332   1.448495   0.000000
    10  C    4.809771   5.076742   4.348690   2.931688   0.000000
    11  C    5.080339   4.924627   3.867562   2.475572   1.452841
    12  C    4.361869   3.878830   2.656021   1.449991   2.490193
    13  C    2.914944   4.342478   5.077360   4.808851   4.970390
    14  C    2.453936   3.858983   4.916055   5.063365   5.926341
    15  C    1.424849   2.635552   3.860039   4.341915   5.880223
    16  C    4.928648   5.908603   5.857449   4.796559   2.935853
    17  C    5.900182   6.644107   6.300040   5.038060   2.458803
    18  C    5.861457   6.314969   5.693909   4.308595   1.412795
    19  C    5.532624   6.696072   6.879461   5.990105   4.369725
    20  C    6.839486   7.938651   8.032421   7.069082   5.100682
    21  C    7.573995   8.515535   8.379109   7.246564   4.837671
    22  C    7.207492   7.992136   7.664089   6.410095   3.748216
    23  C    5.272470   6.602153   7.067143   6.422476   5.364976
    24  C    6.288006   7.636803   8.205179   7.655986   6.636119
    25  C    7.395182   8.668645   9.112415   8.451687   7.081879
    26  C    7.651065   8.823666   9.060356   8.218342   6.442413
    27  C    6.551402   7.952520   8.727936   8.385126   7.757560
    28  C    6.058877   7.494431   8.394672   8.183527   7.895171
    29  C    5.345200   6.792240   7.617414   7.327549   7.027137
    30  C    4.447880   5.861707   6.498398   6.033696   5.529797
    31  H    2.188048   2.972135   4.332794   5.081148   6.879870
    32  H    2.194932   1.085294   2.128669   3.451152   6.141749
    33  H    3.453692   2.128940   1.085302   2.196352   5.077027
    34  H    5.092394   4.340795   2.980171   2.200907   3.457057
    35  H    6.146284   5.908855   4.762138   3.445593   2.193248
    36  H    6.852416   7.193152   6.444086   5.033369   2.177596
    37  H    8.026951   8.692454   8.220422   6.895613   4.070236
    38  H    8.618697   9.552375   9.401312   8.262051   5.788951
    39  H    8.651516   9.777732   9.950298   9.061678   7.119545
    40  H    8.233871   9.516510  10.027658   9.433869   8.137028
    41  H    7.498634   8.876486   9.675389   9.361105   8.698913
    42  H    6.657359   8.069750   9.077310   8.992712   8.899560
    43  H    5.063519   6.418186   7.505601   7.591336   8.045119
    44  H    4.688567   6.032245   6.529903   5.929080   5.216667
    45  H    3.417876   4.749942   5.900824   6.132746   6.959112
    46  H    5.120529   6.514196   7.481061   7.402145   7.581040
                   11         12         13         14         15
    11  C    0.000000
    12  C    1.384246   0.000000
    13  C    5.957915   5.901869   0.000000
    14  C    6.688711   6.351831   1.428663   0.000000
    15  C    6.349262   5.741393   2.489810   1.398062   0.000000
    16  C    4.351661   5.078455   3.342774   4.680754   5.325115
    17  C    3.843270   4.893694   4.745185   6.031511   6.516548
    18  C    2.607610   3.828398   5.392199   6.542950   6.749730
    19  C    5.758828   6.415859   3.300832   4.628799   5.567723
    20  C    6.475904   7.302030   4.672710   5.937848   6.880096
    21  C    6.157271   7.191396   5.733836   7.040990   7.840445
    22  C    5.019566   6.165373   5.773788   7.092835   7.708650
    23  C    6.686471   7.119035   2.577754   3.778976   4.950879
    24  C    7.943544   8.371273   3.587088   4.493066   5.746486
    25  C    8.410295   8.992965   4.844427   5.787109   6.964204
    26  C    7.787525   8.545235   5.286826   6.406587   7.469087
    27  C    9.004780   9.272460   3.856876   4.381741   5.714585
    28  C    9.083494   9.209383   3.401074   3.697948   5.074418
    29  C    8.214327   8.343742   2.584117   3.146572   4.524285
    30  C    6.741962   6.949535   1.552156   2.711632   3.972484
    31  H    7.241945   6.508928   3.449333   2.137721   1.083560
    32  H    5.906332   4.769439   5.072494   4.323853   2.954886
    33  H    4.325683   2.974000   6.145434   5.901322   4.750104
    34  H    2.127168   1.085304   6.902821   7.244002   6.501340
    35  H    1.085344   2.126311   6.986645   7.755488   7.422893
    36  H    2.930053   4.281772   6.467435   7.613305   7.788442
    37  H    5.165075   6.430103   6.790085   8.095782   8.634081
    38  H    7.050797   8.135169   6.730669   8.015901   8.848924
    39  H    8.434336   9.276687   6.360628   7.466239   8.503435
    40  H    9.445501  10.003900   5.687525   6.485926   7.685820
    41  H    9.945819  10.231430   4.897408   5.307704   6.603789
    42  H   10.047033  10.092264   4.212045   4.213285   5.521694
    43  H    9.011656   8.830242   3.171848   2.792209   3.912262
    44  H    6.459744   6.750231   2.091154   3.334084   4.438517
    45  H    7.762253   7.432367   2.175175   1.085629   2.127887
    46  H    8.626221   8.559034   2.900186   2.938710   4.152812
                   16         17         18         19         20
    16  C    0.000000
    17  C    1.459623   0.000000
    18  C    2.521998   1.410747   0.000000
    19  C    1.466909   2.549816   3.842038   0.000000
    20  C    2.459063   2.854085   4.232800   1.431340   0.000000
    21  C    2.819481   2.424716   3.672301   2.491863   1.438425
    22  C    2.480911   1.437513   2.450881   2.894946   2.445687
    23  C    2.581678   3.896277   5.090142   1.432043   2.454178
    24  C    3.825672   4.988593   6.258602   2.450512   2.803435
    25  C    4.274238   5.117379   6.459753   2.825334   2.412262
    26  C    3.755471   4.247748   5.606739   2.460992   1.405797
    27  C    5.052669   6.323774   7.535494   3.787997   4.251788
    28  C    5.371531   6.765605   7.869278   4.340089   5.126759
    29  C    4.645058   6.071069   7.085105   3.881651   4.930971
    30  C    3.183035   4.629855   5.592515   2.637360   3.904347
    31  H    6.386236   7.576746   7.789625   6.556505   7.835559
    32  H    6.928828   7.702118   7.384087   7.629871   8.871748
    33  H    6.851676   7.180205   6.444802   7.907003   9.015263
    34  H    6.139953   5.869026   4.713365   7.473718   8.315490
    35  H    5.072914   4.292108   2.915098   6.472287   7.019333
    36  H    3.481336   2.143898   1.085683   4.679059   4.808465
    37  H    3.461689   2.177242   2.664232   3.979189   3.430198
    38  H    3.903916   3.412407   4.543182   3.451333   2.164650
    39  H    4.602128   4.831634   6.147642   3.436960   2.151614
    40  H    5.354910   6.164905   7.503614   3.909304   3.399384
    41  H    5.964684   7.154278   8.404758   4.620536   4.825880
    42  H    6.441385   7.845294   8.928730   5.426108   6.178049
    43  H    6.160024   7.613090   8.413002   5.655060   6.822043
    44  H    3.009548   4.361965   5.262123   2.776834   4.065236
    45  H    5.458743   6.863072   7.492540   5.159408   6.386096
    46  H    5.587766   7.024164   7.865726   5.088855   6.262721
                   21         22         23         24         25
    21  C    0.000000
    22  C    1.353785   0.000000
    23  C    3.776393   4.321323   0.000000
    24  C    4.240343   5.112796   1.407530   0.000000
    25  C    3.715697   4.852783   2.445404   1.409997   0.000000
    26  C    2.452672   3.700992   2.820202   2.415826   1.372805
    27  C    5.687125   6.544835   2.485363   1.449966   2.459858
    28  C    6.537111   7.215256   2.910061   2.466505   3.713992
    29  C    6.232188   6.695170   2.553132   2.804327   4.171001
    30  C    5.097349   5.382960   1.558853   2.528884   3.838380
    31  H    8.840648   8.750648   5.843325   6.493094   7.718882
    32  H    9.508142   9.031945   7.421760   8.363784   9.429321
    33  H    9.292769   8.521203   8.131242   9.251047  10.128681
    34  H    8.141488   7.077394   8.183243   9.415484  10.016464
    35  H    6.494499   5.264197   7.519348   8.744468   9.089503
    36  H    3.952310   2.626951   6.008392   7.096808   7.137403
    37  H    2.121372   1.084639   5.404241   6.163976   5.805068
    38  H    1.084863   2.118604   4.607845   4.820550   4.008794
    39  H    2.649882   3.994109   3.903800   3.402418   2.138683
    40  H    4.589760   5.805621   3.418738   2.154917   1.084626
    41  H    6.231643   7.223285   3.440984   2.171652   2.635857
    42  H    7.595607   8.298873   3.996216   3.453176   4.582060
    43  H    8.109165   8.441744   4.370527   4.608453   5.993897
    44  H    5.062748   5.178210   2.135340   3.273417   4.440269
    45  H    7.609374   7.816935   4.073018   4.488256   5.821680
    46  H    7.508929   7.824467   3.849147   4.213028   5.597746
                   26         27         28         29         30
    26  C    0.000000
    27  C    3.723286   0.000000
    28  C    4.861498   1.367260   0.000000
    29  C    5.034369   2.374088   1.405750   0.000000
    30  C    4.361733   2.864142   2.498000   1.510507   0.000000
    31  H    8.326937   6.273648   5.553078   5.158606   4.843274
    32  H    9.678775   8.539198   8.008852   7.393237   6.616147
    33  H   10.049507   9.766550   9.434362   8.679977   7.580072
    34  H    9.550335  10.302000  10.230866   9.379733   8.005106
    35  H    8.342391   9.878685  10.032660   9.178657   7.689395
    36  H    6.142213   8.429785   8.846105   8.097865   6.618011
    37  H    4.568810   7.603425   8.293728   7.759858   6.442579
    38  H    2.640150   6.232284   7.206188   7.028753   6.009011
    39  H    1.084543   4.592917   5.805900   6.062140   5.440974
    40  H    2.138507   2.649892   3.999399   4.740212   4.678506
    41  H    4.005022   1.086178   2.129984   3.347379   3.949871
    42  H    5.812150   2.136986   1.086405   2.161914   3.469795
    43  H    6.947170   3.825755   2.511276   2.061963   3.063563
    44  H    4.736657   3.748288   3.341677   2.107271   1.091106
    45  H    6.644808   4.027253   3.161317   2.884578   2.986019
    46  H    6.459961   3.610992   2.346439   1.449499   2.473625
                   31         32         33         34         35
    31  H    0.000000
    32  H    2.886242   0.000000
    33  H    5.061261   2.415366   0.000000
    34  H    7.165769   5.069732   2.893521   0.000000
    35  H    8.303331   6.847585   5.059138   2.416547   0.000000
    36  H    8.814095   8.247161   7.087071   4.999919   2.824447
    37  H    9.678275   9.742883   9.000196   7.244968   5.184296
    38  H    9.827985  10.533871  10.292371   9.046257   7.285448
    39  H    9.350694  10.637908  10.909976  10.248523   8.886811
    40  H    8.350159  10.217372  11.032472  11.014090  10.116315
    41  H    7.072142   9.415037  10.694985  11.248501  10.791821
    42  H    5.818372   8.470924  10.089335  11.091766  11.020078
    43  H    4.164151   6.750856   8.480594   9.771769  10.057339
    44  H    5.369845   6.858552   7.610588   7.816525   7.376341
    45  H    2.412539   5.052082   6.843909   8.313481   8.824262
    46  H    4.603228   6.975160   8.497240   9.540612   9.646395
                   36         37         38         39         40
    36  H    0.000000
    37  H    2.379234   0.000000
    38  H    4.630803   2.450664   0.000000
    39  H    6.525012   4.671003   2.376571   0.000000
    40  H    8.145582   6.702876   4.696575   2.474780   0.000000
    41  H    9.248959   8.248469   6.626143   4.685956   2.360913
    42  H    9.916577   9.376263   8.228573   6.699333   4.675961
    43  H    9.481235   9.500238   8.962468   7.981973   6.442170
    44  H    6.273953   6.180441   6.005996   5.780390   5.344345
    45  H    8.560611   8.855898   8.524852   7.692037   6.373113
    46  H    8.920759   8.870780   8.364295   7.499513   6.128098
                   41         42         43         44         45
    41  H    0.000000
    42  H    2.467757   0.000000
    43  H    4.587258   2.432085   0.000000
    44  H    4.812670   4.250032   3.564490   0.000000
    45  H    4.846249   3.439444   2.059845   3.739824   0.000000
    46  H    4.474007   2.539000   0.909538   2.806387   2.489094
                   46
    46  H    0.000000
 Stoichiometry    C30H16
 Framework group  C1[X(C30H16)]
 Deg. of freedom   132
 Full point group                 C1      NOp   1
 Largest Abelian subgroup         C1      NOp   1
 Largest concise Abelian subgroup C1      NOp   1
                         Standard orientation:                         
 ---------------------------------------------------------------------
 Center     Atomic      Atomic             Coordinates (Angstroms)
 Number     Number       Type             X           Y           Z
 ---------------------------------------------------------------------
      1          6           0        0.594049   -0.923476    0.384266
      2          6           0        0.574703    0.524153    0.596492
      3          6           0        1.921924    0.945747    0.521203
      4          6           0        1.923567   -1.284009    0.101792
      5          6           0        2.738783   -0.155339    0.212522
      6          6           0        2.365859   -2.501194   -0.383534
      7          6           0        3.768263   -2.505182   -0.749511
      8          6           0        4.561200   -1.367744   -0.674257
      9          6           0        4.045920   -0.096075   -0.210056
     10          6           0        2.386209    2.247753    0.378690
     11          6           0        3.799710    2.352416    0.059622
     12          6           0        4.587420    1.248974   -0.219784
     13          6           0       -0.384440   -1.878712    0.354888
     14          6           0        0.014152   -3.158358   -0.139792
     15          6           0        1.326411   -3.467512   -0.509901
     16          6           0       -0.441547    1.462087    0.454590
     17          6           0        0.002455    2.850601    0.381165
     18          6           0        1.363350    3.222269    0.386940
     19          6           0       -1.817648    1.084971    0.114074
     20          6           0       -2.658685    2.139087   -0.365750
     21          6           0       -2.238702    3.511277   -0.266886
     22          6           0       -0.988208    3.858547    0.118344
     23          6           0       -2.363740   -0.237681    0.169946
     24          6           0       -3.595283   -0.501644   -0.458358
     25          6           0       -4.340633    0.545755   -1.037582
     26          6           0       -3.906318    1.844591   -0.942770
     27          6           0       -4.151559   -1.840594   -0.471464
     28          6           0       -3.644160   -2.847584    0.301787
     29          6           0       -2.709336   -2.503941    1.293828
     30          6           0       -1.722517   -1.403711    0.981876
     31          1           0        1.533670   -4.459532   -0.893359
     32          1           0        4.214752   -3.417662   -1.131471
     33          1           0        5.591970   -1.437332   -1.006749
     34          1           0        5.623807    1.410979   -0.498245
     35          1           0        4.248527    3.337922   -0.013275
     36          1           0        1.600425    4.276132    0.277958
     37          1           0       -0.691678    4.901353    0.150995
     38          1           0       -2.956768    4.275656   -0.544434
     39          1           0       -4.515165    2.658321   -1.321428
     40          1           0       -5.288720    0.315225   -1.511290
     41          1           0       -5.089169   -1.981323   -1.001429
     42          1           0       -4.120332   -3.823827    0.323847
     43          1           0       -1.990213   -4.436187    1.325167
     44          1           0       -1.411814   -0.972142    1.934622
     45          1           0       -0.727464   -3.946412   -0.226782
     46          1           0       -2.089023   -3.694004    1.841560
 ---------------------------------------------------------------------
 Rotational constants (GHZ):           0.2657120           0.1647907           0.1068837
 Standard basis: 6-311+G(d,p) (5D, 7F)
 There are   786 symmetry adapted cartesian basis functions of A   symmetry.
 There are   756 symmetry adapted basis functions of A   symmetry.
   756 basis functions,  1208 primitive gaussians,   786 cartesian basis functions
    98 alpha electrons       98 beta electrons
       nuclear repulsion energy      2639.0984812527 Hartrees.
 NAtoms=   46 NActive=   46 NUniq=   46 SFac= 1.00D+00 NAtFMM=   60 NAOKFM=F Big=F
 Integral buffers will be    131072 words long.
 Raffenetti 2 integral format.
 Two-electron integral symmetry is turned on.
 One-electron integrals computed using PRISM.
 NBasis=   756 RedAO= T EigKep=  1.08D-06  NBF=   756
 NBsUse=   737 1.00D-06 EigRej=  7.30D-07 NBFU=   737
 ExpMin= 4.38D-02 ExpMax= 4.56D+03 ExpMxC= 6.82D+02 IAcc=2 IRadAn=         4 AccDes= 0.00D+00
 Harris functional with IExCor=  402 and IRadAn=       4 diagonalized for initial guess.
 HarFok:  IExCor=  402 AccDes= 0.00D+00 IRadAn=         4 IDoV= 1 UseB2=F ITyADJ=14
 ICtDFT=  3500011 ScaDFX=  1.000000  1.000000  1.000000  1.000000
 FoFCou: FMM=F IPFlag=           0 FMFlag=      100000 FMFlg1=           0
         NFxFlg=           0 DoJE=T BraDBF=F KetDBF=T FulRan=T
         wScrn=  0.000000 ICntrl=       500 IOpCl=  0 I1Cent=   200000004 NGrid=           0
         NMat0=    1 NMatS0=      1 NMatT0=    0 NMatD0=    1 NMtDS0=    0 NMtDT0=    0
 Petite list used in FoFCou.
 Requested convergence on RMS density matrix=1.00D-08 within 128 cycles.
 Requested convergence on MAX density matrix=1.00D-06.
 Requested convergence on             energy=1.00D-06.
 No special actions if energy rises.
 SCF Done:  E(RB3LYP) =  -1152.94613801     A.U. after   19 cycles
            NFock= 19  Conv=0.60D-08     -V/T= 2.0045
 DoSCS=F DFT=T ScalE2(SS,OS)=  1.000000  1.000000
 Range of M.O.s used for correlation:     1   737
 NBasis=   756 NAE=    98 NBE=    98 NFC=     0 NFV=     0
 NROrb=    737 NOA=    98 NOB=    98 NVA=   639 NVB=   639

 **** Warning!!: The largest alpha MO coefficient is  0.15883652D+03


 **** Warning!!: The smallest alpha delta epsilon is  0.81700989D-01

 Symmetrizing basis deriv contribution to polar:
 IMax=3 JMax=2 DiffMx= 0.00D+00
 G2DrvN: will do    47 centers at a time, making    1 passes.
 Calling FoFCou, ICntrl=  3107 FMM=F I1Cent=   0 AccDes= 0.00D+00.
 End of G2Drv F.D. properties file   721 does not exist.
 End of G2Drv F.D. properties file   722 does not exist.
 End of G2Drv F.D. properties file   788 does not exist.
          IDoAtm=1111111111111111111111111111111111111111111111
          Differentiating once with respect to nuclear coordinates.
 CalDSu exits because no D1Ps are significant.
          There are   141 degrees of freedom in the 1st order CPHF.  IDoFFX=6 NUNeed=     0.
    135 vectors produced by pass  0 Test12= 6.26D-14 1.00D-09 XBig12= 3.23D-01 1.33D-01.
 AX will form   135 AO Fock derivatives at one time.
    135 vectors produced by pass  1 Test12= 6.26D-14 1.00D-09 XBig12= 8.36D-02 6.64D-02.
    135 vectors produced by pass  2 Test12= 6.26D-14 1.00D-09 XBig12= 1.17D-03 6.44D-03.
    135 vectors produced by pass  3 Test12= 6.26D-14 1.00D-09 XBig12= 1.01D-05 2.80D-04.
    135 vectors produced by pass  4 Test12= 6.26D-14 1.00D-09 XBig12= 3.24D-08 1.52D-05.
    135 vectors produced by pass  5 Test12= 6.26D-14 1.00D-09 XBig12= 7.36D-11 4.83D-07.
     79 vectors produced by pass  6 Test12= 6.26D-14 1.00D-09 XBig12= 1.44D-13 1.80D-08.
     32 vectors produced by pass  7 Test12= 6.26D-14 1.00D-09 XBig12= 5.89D-15 6.48D-09.
     32 vectors produced by pass  8 Test12= 6.26D-14 1.00D-09 XBig12= 6.82D-14 1.87D-08.
     32 vectors produced by pass  9 Test12= 6.26D-14 1.00D-09 XBig12= 8.30D-13 6.65D-08.
     19 vectors produced by pass 10 Test12= 6.26D-14 1.00D-09 XBig12= 1.58D-13 2.73D-08.
     18 vectors produced by pass 11 Test12= 6.26D-14 1.00D-09 XBig12= 1.83D-13 3.22D-08.
     12 vectors produced by pass 12 Test12= 6.26D-14 1.00D-09 XBig12= 3.17D-14 1.12D-08.
     12 vectors produced by pass 13 Test12= 6.26D-14 1.00D-09 XBig12= 1.66D-13 2.34D-08.
     12 vectors produced by pass 14 Test12= 6.26D-14 1.00D-09 XBig12= 7.84D-14 1.57D-08.
     12 vectors produced by pass 15 Test12= 6.26D-14 1.00D-09 XBig12= 1.23D-13 2.13D-08.
     12 vectors produced by pass 16 Test12= 6.26D-14 1.00D-09 XBig12= 1.22D-13 1.94D-08.
     12 vectors produced by pass 17 Test12= 6.26D-14 1.00D-09 XBig12= 1.10D-13 2.26D-08.
     11 vectors produced by pass 18 Test12= 6.26D-14 1.00D-09 XBig12= 6.40D-14 1.43D-08.
     11 vectors produced by pass 19 Test12= 6.26D-14 1.00D-09 XBig12= 7.29D-14 1.66D-08.
     11 vectors produced by pass 20 Test12= 6.26D-14 1.00D-09 XBig12= 9.99D-14 1.76D-08.
     10 vectors produced by pass 21 Test12= 6.26D-14 1.00D-09 XBig12= 4.03D-14 9.97D-09.
     10 vectors produced by pass 22 Test12= 6.26D-14 1.00D-09 XBig12= 1.19D-13 2.18D-08.
     10 vectors produced by pass 23 Test12= 6.26D-14 1.00D-09 XBig12= 1.51D-13 2.46D-08.
     10 vectors produced by pass 24 Test12= 6.26D-14 1.00D-09 XBig12= 2.16D-13 2.79D-08.
      7 vectors produced by pass 25 Test12= 6.26D-14 1.00D-09 XBig12= 4.28D-14 1.21D-08.
      7 vectors produced by pass 26 Test12= 6.26D-14 1.00D-09 XBig12= 1.78D-13 2.19D-08.
      7 vectors produced by pass 27 Test12= 6.26D-14 1.00D-09 XBig12= 5.51D-14 1.29D-08.
      5 vectors produced by pass 28 Test12= 6.26D-14 1.00D-09 XBig12= 2.19D-14 8.43D-09.
      5 vectors produced by pass 29 Test12= 6.26D-14 1.00D-09 XBig12= 5.73D-14 1.49D-08.
      5 vectors produced by pass 30 Test12= 6.26D-14 1.00D-09 XBig12= 1.25D-13 1.80D-08.
      5 vectors produced by pass 31 Test12= 6.26D-14 1.00D-09 XBig12= 1.04D-13 1.83D-08.
      5 vectors produced by pass 32 Test12= 6.26D-14 1.00D-09 XBig12= 1.34D-13 2.00D-08.
      5 vectors produced by pass 33 Test12= 6.26D-14 1.00D-09 XBig12= 6.35D-14 1.74D-08.
      5 vectors produced by pass 34 Test12= 6.26D-14 1.00D-09 XBig12= 8.43D-14 1.74D-08.
      5 vectors produced by pass 35 Test12= 6.26D-14 1.00D-09 XBig12= 5.00D-14 1.15D-08.
      5 vectors produced by pass 36 Test12= 6.26D-14 1.00D-09 XBig12= 1.72D-13 2.20D-08.
      5 vectors produced by pass 37 Test12= 6.26D-14 1.00D-09 XBig12= 5.61D-14 1.25D-08.
      5 vectors produced by pass 38 Test12= 6.26D-14 1.00D-09 XBig12= 1.17D-13 1.79D-08.
      5 vectors produced by pass 39 Test12= 6.26D-14 1.00D-09 XBig12= 8.34D-14 1.37D-08.
      5 vectors produced by pass 40 Test12= 6.26D-14 1.00D-09 XBig12= 1.36D-13 1.94D-08.
      5 vectors produced by pass 41 Test12= 6.26D-14 1.00D-09 XBig12= 1.55D-13 1.92D-08.
      5 vectors produced by pass 42 Test12= 6.26D-14 1.00D-09 XBig12= 3.69D-14 9.42D-09.
      5 vectors produced by pass 43 Test12= 6.26D-14 1.00D-09 XBig12= 2.01D-13 2.30D-08.
      5 vectors produced by pass 44 Test12= 6.26D-14 1.00D-09 XBig12= 5.23D-14 1.72D-08.
      5 vectors produced by pass 45 Test12= 6.26D-14 1.00D-09 XBig12= 1.46D-13 2.25D-08.
      5 vectors produced by pass 46 Test12= 6.26D-14 1.00D-09 XBig12= 6.15D-14 1.50D-08.
      5 vectors produced by pass 47 Test12= 6.26D-14 1.00D-09 XBig12= 8.87D-14 1.84D-08.
      5 vectors produced by pass 48 Test12= 6.26D-14 1.00D-09 XBig12= 5.32D-14 1.18D-08.
      5 vectors produced by pass 49 Test12= 6.26D-14 1.00D-09 XBig12= 1.33D-13 1.89D-08.
      5 vectors produced by pass 50 Test12= 6.26D-14 1.00D-09 XBig12= 6.01D-14 1.30D-08.
      5 vectors produced by pass 51 Test12= 6.26D-14 1.00D-09 XBig12= 3.67D-14 1.04D-08.
      5 vectors produced by pass 52 Test12= 6.26D-14 1.00D-09 XBig12= 1.28D-13 2.53D-08.
      5 vectors produced by pass 53 Test12= 6.26D-14 1.00D-09 XBig12= 6.58D-14 1.39D-08.
      5 vectors produced by pass 54 Test12= 6.26D-14 1.00D-09 XBig12= 6.66D-14 1.31D-08.
      5 vectors produced by pass 55 Test12= 6.26D-14 1.00D-09 XBig12= 5.71D-14 1.32D-08.
      5 vectors produced by pass 56 Test12= 6.26D-14 1.00D-09 XBig12= 6.25D-14 1.51D-08.
      5 vectors produced by pass 57 Test12= 6.26D-14 1.00D-09 XBig12= 3.38D-14 9.68D-09.
      5 vectors produced by pass 58 Test12= 6.26D-14 1.00D-09 XBig12= 1.53D-13 1.84D-08.
      5 vectors produced by pass 59 Test12= 6.26D-14 1.00D-09 XBig12= 6.70D-14 1.46D-08.
      5 vectors produced by pass 60 Test12= 6.26D-14 1.00D-09 XBig12= 5.74D-14 1.33D-08.
      5 vectors produced by pass 61 Test12= 6.26D-14 1.00D-09 XBig12= 7.77D-14 1.44D-08.
      5 vectors produced by pass 62 Test12= 6.26D-14 1.00D-09 XBig12= 4.09D-14 9.74D-09.
      5 vectors produced by pass 63 Test12= 6.26D-14 1.00D-09 XBig12= 1.43D-13 1.74D-08.
      5 vectors produced by pass 64 Test12= 6.26D-14 1.00D-09 XBig12= 7.29D-14 1.49D-08.
      5 vectors produced by pass 65 Test12= 6.26D-14 1.00D-09 XBig12= 9.78D-14 1.64D-08.
      4 vectors produced by pass 66 Test12= 6.26D-14 1.00D-09 XBig12= 4.37D-14 9.64D-09.
      4 vectors produced by pass 67 Test12= 6.26D-14 1.00D-09 XBig12= 1.05D-13 1.70D-08.
      4 vectors produced by pass 68 Test12= 6.26D-14 1.00D-09 XBig12= 4.86D-14 1.24D-08.
      4 vectors produced by pass 69 Test12= 6.26D-14 1.00D-09 XBig12= 3.73D-14 9.85D-09.
      4 vectors produced by pass 70 Test12= 6.26D-14 1.00D-09 XBig12= 7.04D-14 1.69D-08.
      4 vectors produced by pass 71 Test12= 6.26D-14 1.00D-09 XBig12= 1.27D-13 1.76D-08.
      4 vectors produced by pass 72 Test12= 6.26D-14 1.00D-09 XBig12= 6.33D-14 1.23D-08.
      4 vectors produced by pass 73 Test12= 6.26D-14 1.00D-09 XBig12= 1.19D-13 1.75D-08.
      4 vectors produced by pass 74 Test12= 6.26D-14 1.00D-09 XBig12= 4.36D-14 1.14D-08.
      4 vectors produced by pass 75 Test12= 6.26D-14 1.00D-09 XBig12= 6.36D-14 1.38D-08.
      4 vectors produced by pass 76 Test12= 6.26D-14 1.00D-09 XBig12= 6.77D-14 1.41D-08.
      4 vectors produced by pass 77 Test12= 6.26D-14 1.00D-09 XBig12= 9.45D-14 1.59D-08.
      4 vectors produced by pass 78 Test12= 6.26D-14 1.00D-09 XBig12= 5.88D-14 1.36D-08.
      4 vectors produced by pass 79 Test12= 6.26D-14 1.00D-09 XBig12= 1.08D-13 1.58D-08.
      4 vectors produced by pass 80 Test12= 6.26D-14 1.00D-09 XBig12= 6.74D-14 1.17D-08.
      4 vectors produced by pass 81 Test12= 6.26D-14 1.00D-09 XBig12= 9.51D-14 1.59D-08.
      4 vectors produced by pass 82 Test12= 6.26D-14 1.00D-09 XBig12= 1.07D-13 1.58D-08.
      4 vectors produced by pass 83 Test12= 6.26D-14 1.00D-09 XBig12= 5.50D-14 1.22D-08.
      4 vectors produced by pass 84 Test12= 6.26D-14 1.00D-09 XBig12= 8.72D-14 1.41D-08.
      4 vectors produced by pass 85 Test12= 6.26D-14 1.00D-09 XBig12= 4.00D-14 9.31D-09.
      4 vectors produced by pass 86 Test12= 6.26D-14 1.00D-09 XBig12= 2.29D-13 2.98D-08.
      4 vectors produced by pass 87 Test12= 6.26D-14 1.00D-09 XBig12= 4.67D-14 1.15D-08.
      4 vectors produced by pass 88 Test12= 6.26D-14 1.00D-09 XBig12= 5.29D-14 1.36D-08.
      4 vectors produced by pass 89 Test12= 6.26D-14 1.00D-09 XBig12= 7.72D-14 1.32D-08.
      4 vectors produced by pass 90 Test12= 6.26D-14 1.00D-09 XBig12= 1.28D-13 1.68D-08.
      4 vectors produced by pass 91 Test12= 6.26D-14 1.00D-09 XBig12= 2.89D-14 8.97D-09.
      4 vectors produced by pass 92 Test12= 6.26D-14 1.00D-09 XBig12= 1.01D-13 1.99D-08.
      4 vectors produced by pass 93 Test12= 6.26D-14 1.00D-09 XBig12= 7.68D-14 1.72D-08.
      4 vectors produced by pass 94 Test12= 6.26D-14 1.00D-09 XBig12= 8.66D-14 1.38D-08.
      4 vectors produced by pass 95 Test12= 6.26D-14 1.00D-09 XBig12= 7.30D-14 1.43D-08.
      4 vectors produced by pass 96 Test12= 6.26D-14 1.00D-09 XBig12= 8.96D-14 1.55D-08.
      4 vectors produced by pass 97 Test12= 6.26D-14 1.00D-09 XBig12= 3.47D-14 1.04D-08.
      4 vectors produced by pass 98 Test12= 6.26D-14 1.00D-09 XBig12= 6.01D-14 1.31D-08.
      4 vectors produced by pass 99 Test12= 6.26D-14 1.00D-09 XBig12= 5.84D-14 1.07D-08.
      4 vectors produced by pass100 Test12= 6.26D-14 1.00D-09 XBig12= 5.13D-14 1.19D-08.
      3 vectors produced by pass101 Test12= 6.26D-14 1.00D-09 XBig12= 2.53D-14 8.02D-09.
      3 vectors produced by pass102 Test12= 6.26D-14 1.00D-09 XBig12= 8.82D-14 1.42D-08.
      3 vectors produced by pass103 Test12= 6.26D-14 1.00D-09 XBig12= 5.83D-14 1.17D-08.
      3 vectors produced by pass104 Test12= 6.26D-14 1.00D-09 XBig12= 5.81D-14 1.30D-08.
      3 vectors produced by pass105 Test12= 6.26D-14 1.00D-09 XBig12= 8.30D-14 1.42D-08.
      3 vectors produced by pass106 Test12= 6.26D-14 1.00D-09 XBig12= 1.85D-13 1.82D-08.
      3 vectors produced by pass107 Test12= 6.26D-14 1.00D-09 XBig12= 2.79D-14 8.60D-09.
      3 vectors produced by pass108 Test12= 6.26D-14 1.00D-09 XBig12= 9.46D-14 1.34D-08.
      3 vectors produced by pass109 Test12= 6.26D-14 1.00D-09 XBig12= 3.75D-14 9.56D-09.
      3 vectors produced by pass110 Test12= 6.26D-14 1.00D-09 XBig12= 5.25D-14 1.11D-08.
      3 vectors produced by pass111 Test12= 6.26D-14 1.00D-09 XBig12= 9.82D-14 1.60D-08.
      3 vectors produced by pass112 Test12= 6.26D-14 1.00D-09 XBig12= 5.43D-14 1.12D-08.
      3 vectors produced by pass113 Test12= 6.26D-14 1.00D-09 XBig12= 1.31D-13 2.20D-08.
      3 vectors produced by pass114 Test12= 6.26D-14 1.00D-09 XBig12= 7.97D-14 1.52D-08.
      3 vectors produced by pass115 Test12= 6.26D-14 1.00D-09 XBig12= 7.89D-14 1.38D-08.
      3 vectors produced by pass116 Test12= 6.26D-14 1.00D-09 XBig12= 9.73D-14 1.67D-08.
      3 vectors produced by pass117 Test12= 6.26D-14 1.00D-09 XBig12= 5.44D-14 1.21D-08.
      3 vectors produced by pass118 Test12= 6.26D-14 1.00D-09 XBig12= 7.39D-14 1.32D-08.
      3 vectors produced by pass119 Test12= 6.26D-14 1.00D-09 XBig12= 1.34D-13 1.93D-08.
      3 vectors produced by pass120 Test12= 6.26D-14 1.00D-09 XBig12= 3.15D-14 8.56D-09.
      3 vectors produced by pass121 Test12= 6.26D-14 1.00D-09 XBig12= 5.12D-14 1.01D-08.
      3 vectors produced by pass122 Test12= 6.26D-14 1.00D-09 XBig12= 7.14D-14 1.13D-08.
      3 vectors produced by pass123 Test12= 6.26D-14 1.00D-09 XBig12= 3.20D-14 8.18D-09.
      3 vectors produced by pass124 Test12= 6.26D-14 1.00D-09 XBig12= 8.31D-14 1.39D-08.
      3 vectors produced by pass125 Test12= 6.26D-14 1.00D-09 XBig12= 5.09D-14 1.12D-08.
      3 vectors produced by pass126 Test12= 6.26D-14 1.00D-09 XBig12= 5.72D-14 1.36D-08.
      3 vectors produced by pass127 Test12= 6.26D-14 1.00D-09 XBig12= 5.02D-14 1.37D-08.
      3 vectors produced by pass128 Test12= 6.26D-14 1.00D-09 XBig12= 8.88D-14 1.54D-08.
      3 vectors produced by pass129 Test12= 6.26D-14 1.00D-09 XBig12= 3.43D-14 8.16D-09.
      3 vectors produced by pass130 Test12= 6.26D-14 1.00D-09 XBig12= 6.77D-14 1.37D-08.
      3 vectors produced by pass131 Test12= 6.26D-14 1.00D-09 XBig12= 3.77D-14 9.43D-09.
      3 vectors produced by pass132 Test12= 6.26D-14 1.00D-09 XBig12= 8.79D-14 1.40D-08.
      3 vectors produced by pass133 Test12= 6.26D-14 1.00D-09 XBig12= 3.20D-14 9.17D-09.
      3 vectors produced by pass134 Test12= 6.26D-14 1.00D-09 XBig12= 1.61D-13 1.84D-08.
      3 vectors produced by pass135 Test12= 6.26D-14 1.00D-09 XBig12= 6.25D-14 1.26D-08.
      3 vectors produced by pass136 Test12= 6.26D-14 1.00D-09 XBig12= 5.61D-14 1.14D-08.
      3 vectors produced by pass137 Test12= 6.26D-14 1.00D-09 XBig12= 1.07D-13 1.65D-08.
      2 vectors produced by pass138 Test12= 6.26D-14 1.00D-09 XBig12= 2.42D-14 7.59D-09.
 InvSVY:  IOpt=1 It=  1 EMax= 6.66D-16
 Solved reduced A of dimension  1631 with   141 vectors.
 End of Minotr F.D. properties file   721 does not exist.
 End of Minotr F.D. properties file   722 does not exist.
 End of Minotr F.D. properties file   788 does not exist.

 **********************************************************************

            Population analysis using the SCF density.

 **********************************************************************

 Orbital symmetries:
       Occupied  (A) (A) (A) (A) (A) (A) (A) (A) (A) (A) (A) (A)
                 (A) (A) (A) (A) (A) (A) (A) (A) (A) (A) (A) (A)
                 (A) (A) (A) (A) (A) (A) (A) (A) (A) (A) (A) (A)
                 (A) (A) (A) (A) (A) (A) (A) (A) (A) (A) (A) (A)
                 (A) (A) (A) (A) (A) (A) (A) (A) (A) (A) (A) (A)
                 (A) (A) (A) (A) (A) (A) (A) (A) (A) (A) (A) (A)
                 (A) (A) (A) (A) (A) (A) (A) (A) (A) (A) (A) (A)
                 (A) (A) (A) (A) (A) (A) (A) (A) (A) (A) (A) (A)
                 (A) (A)
       Virtual   (A) (A) (A) (A) (A) (A) (A) (A) (A) (A) (A) (A)
                 (A) (A) (A) (A) (A) (A) (A) (A) (A) (A) (A) (A)
                 (A) (A) (A) (A) (A) (A) (A) (A) (A) (A) (A) (A)
                 (A) (A) (A) (A) (A) (A) (A) (A) (A) (A) (A) (A)
                 (A) (A) (A) (A) (A) (A) (A) (A) (A) (A) (A) (A)
                 (A) (A) (A) (A) (A) (A) (A) (A) (A) (A) (A) (A)
                 (A) (A) (A) (A) (A) (A) (A) (A) (A) (A) (A) (A)
                 (A) (A) (A) (A) (A) (A) (A) (A) (A) (A) (A) (A)
                 (A) (A) (A) (A) (A) (A) (A) (A) (A) (A) (A) (A)
                 (A) (A) (A) (A) (A) (A) (A) (A) (A) (A) (A) (A)
                 (A) (A) (A) (A) (A) (A) (A) (A) (A) (A) (A) (A)
                 (A) (A) (A) (A) (A) (A) (A) (A) (A) (A) (A) (A)
                 (A) (A) (A) (A) (A) (A) (A) (A) (A) (A) (A) (A)
                 (A) (A) (A) (A) (A) (A) (A) (A) (A) (A) (A) (A)
                 (A) (A) (A) (A) (A) (A) (A) (A) (A) (A) (A) (A)
                 (A) (A) (A) (A) (A) (A) (A) (A) (A) (A) (A) (A)
                 (A) (A) (A) (A) (A) (A) (A) (A) (A) (A) (A) (A)
                 (A) (A) (A) (A) (A) (A) (A) (A) (A) (A) (A) (A)
                 (A) (A) (A) (A) (A) (A) (A) (A) (A) (A) (A) (A)
                 (A) (A) (A) (A) (A) (A) (A) (A) (A) (A) (A) (A)
                 (A) (A) (A) (A) (A) (A) (A) (A) (A) (A) (A) (A)
                 (A) (A) (A) (A) (A) (A) (A) (A) (A) (A) (A) (A)
                 (A) (A) (A) (A) (A) (A) (A) (A) (A) (A) (A) (A)
                 (A) (A) (A) (A) (A) (A) (A) (A) (A) (A) (A) (A)
                 (A) (A) (A) (A) (A) (A) (A) (A) (A) (A) (A) (A)
                 (A) (A) (A) (A) (A) (A) (A) (A) (A) (A) (A) (A)
                 (A) (A) (A) (A) (A) (A) (A) (A) (A) (A) (A) (A)
                 (A) (A) (A) (A) (A) (A) (A) (A) (A) (A) (A) (A)
                 (A) (A) (A) (A) (A) (A) (A) (A) (A) (A) (A) (A)
                 (A) (A) (A) (A) (A) (A) (A) (A) (A) (A) (A) (A)
                 (A) (A) (A) (A) (A) (A) (A) (A) (A) (A) (A) (A)
                 (A) (A) (A) (A) (A) (A) (A) (A) (A) (A) (A) (A)
                 (A) (A) (A) (A) (A) (A) (A) (A) (A) (A) (A) (A)
                 (A) (A) (A) (A) (A) (A) (A) (A) (A) (A) (A) (A)
                 (A) (A) (A) (A) (A) (A) (A) (A) (A) (A) (A) (A)
                 (A) (A) (A) (A) (A) (A) (A) (A) (A) (A) (A) (A)
                 (A) (A) (A) (A) (A) (A) (A) (A) (A) (A) (A) (A)
                 (A) (A) (A) (A) (A) (A) (A) (A) (A) (A) (A) (A)
                 (A) (A) (A) (A) (A) (A) (A) (A) (A) (A) (A) (A)
                 (A) (A) (A) (A) (A) (A) (A) (A) (A) (A) (A) (A)
                 (A) (A) (A) (A) (A) (A) (A) (A) (A) (A) (A) (A)
                 (A) (A) (A) (A) (A) (A) (A) (A) (A) (A) (A) (A)
                 (A) (A) (A) (A) (A) (A) (A) (A) (A) (A) (A) (A)
                 (A) (A) (A) (A) (A) (A) (A) (A) (A) (A) (A) (A)
                 (A) (A) (A) (A) (A) (A) (A) (A) (A) (A) (A) (A)
                 (A) (A) (A) (A) (A) (A) (A) (A) (A) (A) (A) (A)
                 (A) (A) (A) (A) (A) (A) (A) (A) (A) (A) (A) (A)
                 (A) (A) (A) (A) (A) (A) (A) (A) (A) (A) (A) (A)
                 (A) (A) (A) (A) (A) (A) (A) (A) (A) (A) (A) (A)
                 (A) (A) (A) (A) (A) (A) (A) (A) (A) (A) (A) (A)
                 (A) (A) (A) (A) (A) (A) (A) (A) (A) (A) (A) (A)
                 (A) (A) (A) (A) (A) (A) (A) (A) (A) (A) (A) (A)
                 (A) (A) (A) (A) (A) (A) (A) (A) (A) (A) (A) (A)
                 (A) (A) (A)
 The electronic state is 1-A.
 Alpha  occ. eigenvalues --  -10.21247 -10.21222 -10.21160 -10.20880 -10.20826
 Alpha  occ. eigenvalues --  -10.20766 -10.20285 -10.19879 -10.19814 -10.19787
 Alpha  occ. eigenvalues --  -10.19646 -10.19507 -10.19507 -10.19480 -10.19449
 Alpha  occ. eigenvalues --  -10.19384 -10.19298 -10.19277 -10.19159 -10.19094
 Alpha  occ. eigenvalues --  -10.18916 -10.18803 -10.18759 -10.18691 -10.18583
 Alpha  occ. eigenvalues --  -10.18546 -10.18293 -10.17442 -10.17097 -10.16879
 Alpha  occ. eigenvalues --   -0.92766  -0.89774  -0.87982  -0.85789  -0.85154
 Alpha  occ. eigenvalues --   -0.82756  -0.81203  -0.80633  -0.79371  -0.76420
 Alpha  occ. eigenvalues --   -0.75916  -0.75055  -0.73083  -0.72074  -0.71275
 Alpha  occ. eigenvalues --   -0.66706  -0.66260  -0.64012  -0.63466  -0.62197
 Alpha  occ. eigenvalues --   -0.61373  -0.60439  -0.58868  -0.56749  -0.55332
 Alpha  occ. eigenvalues --   -0.53287  -0.52469  -0.51583  -0.50925  -0.50695
 Alpha  occ. eigenvalues --   -0.50058  -0.48112  -0.47382  -0.46873  -0.45360
 Alpha  occ. eigenvalues --   -0.45038  -0.44658  -0.44425  -0.44063  -0.43360
 Alpha  occ. eigenvalues --   -0.43103  -0.42634  -0.41942  -0.41784  -0.41040
 Alpha  occ. eigenvalues --   -0.40750  -0.40340  -0.39407  -0.38590  -0.37698
 Alpha  occ. eigenvalues --   -0.37418  -0.36274  -0.35844  -0.35416  -0.34760
 Alpha  occ. eigenvalues --   -0.34064  -0.33735  -0.33280  -0.32586  -0.31202
 Alpha  occ. eigenvalues --   -0.29632  -0.28670  -0.26754  -0.24967  -0.23275
 Alpha  occ. eigenvalues --   -0.22937  -0.21830  -0.18862
 Alpha virt. eigenvalues --   -0.10691  -0.09252  -0.06158  -0.04248  -0.03401
 Alpha virt. eigenvalues --   -0.01215  -0.00761  -0.00074   0.00531   0.00952
 Alpha virt. eigenvalues --    0.01260   0.01516   0.01696   0.01999   0.02437
 Alpha virt. eigenvalues --    0.02752   0.03344   0.03552   0.04103   0.04357
 Alpha virt. eigenvalues --    0.04549   0.04812   0.05078   0.05265   0.05677
 Alpha virt. eigenvalues --    0.06209   0.06654   0.07058   0.07205   0.07369
 Alpha virt. eigenvalues --    0.07487   0.08366   0.08812   0.09161   0.09221
 Alpha virt. eigenvalues --    0.09380   0.09766   0.10156   0.10563   0.10803
 Alpha virt. eigenvalues --    0.11207   0.11344   0.11753   0.12145   0.12399
 Alpha virt. eigenvalues --    0.12837   0.13138   0.13233   0.13726   0.14094
 Alpha virt. eigenvalues --    0.14354   0.14607   0.14826   0.15439   0.15514
 Alpha virt. eigenvalues --    0.15594   0.16059   0.16313   0.16430   0.16699
 Alpha virt. eigenvalues --    0.16913   0.17069   0.17186   0.17461   0.17698
 Alpha virt. eigenvalues --    0.17868   0.18128   0.18372   0.18522   0.18812
 Alpha virt. eigenvalues --    0.18885   0.19128   0.19274   0.19543   0.19606
 Alpha virt. eigenvalues --    0.20033   0.20202   0.20344   0.20566   0.20720
 Alpha virt. eigenvalues --    0.20787   0.21124   0.21511   0.21741   0.21998
 Alpha virt. eigenvalues --    0.22190   0.22402   0.22532   0.22925   0.23377
 Alpha virt. eigenvalues --    0.23470   0.23569   0.23684   0.23759   0.24070
 Alpha virt. eigenvalues --    0.24270   0.24468   0.24750   0.24870   0.25285
 Alpha virt. eigenvalues --    0.25454   0.25704   0.25999   0.26115   0.26539
 Alpha virt. eigenvalues --    0.26656   0.26882   0.27070   0.27407   0.27672
 Alpha virt. eigenvalues --    0.28069   0.28273   0.28377   0.28746   0.29041
 Alpha virt. eigenvalues --    0.29530   0.29730   0.29845   0.30146   0.30655
 Alpha virt. eigenvalues --    0.30892   0.31429   0.31507   0.31641   0.31805
 Alpha virt. eigenvalues --    0.32055   0.32303   0.32543   0.33095   0.33364
 Alpha virt. eigenvalues --    0.33779   0.33977   0.34490   0.34739   0.35128
 Alpha virt. eigenvalues --    0.35233   0.35651   0.36201   0.36430   0.36844
 Alpha virt. eigenvalues --    0.37130   0.37651   0.37895   0.38325   0.38778
[...]
 0027270,0.00048645,-0.00063179,0.00011956,0.00071693,0.00044361,0.0002
 3949,0.00040796,-0.00179131,0.00031781,0.00105622,-0.00061345,0.001548
 01,-0.01119560,0.03111632,-0.00116305,0.00420287,-0.00185300,-0.003325
 46,0.00007414,-0.00002703,0.00015800,0.00000225,0.00000531,-0.00001235
 ,-0.00000058,-0.00002443,0.00000468,0.00000450,-0.00001032,0.00000080,
 -0.00000019,0.00000251,-0.00000838,-0.00000312,-0.00001290,-0.00001210
 ,0.00003303,-0.00001483,-0.00002190,-0.00000800,0.00002181,-0.00001479
 ,-0.00001284,0.00005229,0.00003317,-0.00000084,-0.00003558,0.00003512,
 -0.00020084,-0.00001785,0.00090608,0.00029160,-0.00092455,0.00015766,0
 .03255786,-0.00089634,0.00069312,0.00077695,-0.00054047,-0.00039800,0.
 00004412,0.00050609,0.00037800,-0.00010354,-0.00016819,0.00012790,-0.0
 0015893,-0.00042492,0.00001248,-0.00000273,0.00030025,-0.00007308,0.00
 006665,-0.00049746,0.00012031,0.00019585,0.00022125,0.00049565,0.00003
 201,0.00015694,-0.00048021,-0.00007976,-0.00019491,0.00000769,-0.00001
 040,0.00047248,0.00019842,-0.00011757,-0.00027688,0.00032433,0.0000845
 8,0.00105620,-0.00312687,0.00028420,-0.00151463,-0.00128433,-0.0009788
 6,-0.00039174,0.00096663,-0.00005715,0.00057074,-0.00025047,0.00014162
 ,-0.00023707,-0.00008505,0.00000573,0.00025821,0.00017365,-0.00005926,
 -0.00072132,0.00098492,-0.00011517,0.00118129,0.00017661,0.00065286,-0
 .00134035,0.00000298,-0.00044967,0.00092534,-0.00109864,0.00006237,0.0
 0699962,-0.00123022,0.00311458,-0.00241729,-0.00260517,-0.00127914,-0.
 00134481,0.00153477,-0.00050457,-0.00183585,-0.00102549,-0.00039970,-0
 .00015891,0.00735445,0.00110649,-0.00524893,0.00664066,0.00863071,0.04
 055066,-0.05926750,-0.00550881,-0.01508353,0.00741646,-0.00113815,-0.0
 0024921,0.00004591,0.00017227,-0.00004394,0.00001579,0.00003797,-0.000
 01787,0.00004486,0.00000917,-0.00002627,0.00002096,0.00001082,-0.00001
 803,-0.00002514,0.00002473,0.00000590,0.00000091,0.00002847,-0.0000739
 8,0.00001536,0.00004559,0.00003658,-0.00004986,0.00004278,0.00004283,-
 0.00015044,-0.00005943,0.00002864,0.00008484,-0.00015583,0.00051794,0.
 00023681,-0.00286887,0.00159097,0.00022754,0.00040022,-0.04027816,0.09
 909961,-0.00032669,0.00027111,-0.00002557,0.00011016,-0.00000621,-0.00
 003758,-0.00006500,0.00003788,0.00006247,0.00028833,-0.00006649,-0.000
 03939,-0.00010736,-0.00015729,0.00004187,0.00013128,0.00011111,0.00013
 263,-0.00001441,0.00003691,0.00006737,0.00004358,0.00003087,0.00000856
 ,0.00002756,-0.00002442,-0.00000927,-0.00002993,-0.00002673,-0.0000009
 8,0.00000229,0.00001291,-0.00000109,-0.00000263,0.00000386,-0.00000723
 ,0.00121328,-0.00221787,-0.00064348,0.00231493,0.00256988,-0.00150282,
 -0.00004516,0.00022747,0.00013013,-0.00019306,0.00014905,-0.00002742,-
 0.00000008,-0.00002744,0.00000057,0.00000316,0.00000008,-0.00000166,-0
 .00002334,0.00048227,0.00069023,-0.00000785,-0.00036180,0.00004111,0.0
 0034550,0.00016244,-0.00012355,-0.00019809,0.00007935,-0.00003465,-0.0
 0111164,-0.00116626,0.00006592,0.00091295,0.00113872,0.00005415,0.0002
 8063,-0.00038217,0.00006762,0.00012592,0.00017120,0.00023822,0.0002690
 6,-0.00391954,0.00226020,-0.01001470,0.00500210,-0.00088081,0.01555096
 ,-0.02907804,0.00857114,0.00082822,0.00122029,0.00157990,-0.00000812,-
 0.00001953,-0.00015348,-0.00000187,-0.00000578,-0.00001041,0.00000639,
 0.00000877,-0.00001399,0.00000395,0.00000139,-0.00000378,0.00000128,0.
 00000469,-0.00000364,-0.00000234,0.00000463,-0.00000391,-0.00000183,0.
 00000252,0.00000984,-0.00000331,-0.00000495,-0.00000521,-0.00000338,0.
 00002109,0.00000508,0.00002738,-0.00002893,-0.00005555,0.00093399,-0.0
 0054653,-0.00115971,0.00083279,0.00051329,-0.00005826,-0.01590621,0.03
 209312,0.02066566,-0.00131245,0.00073935,0.00245273,0.00025026,0.00075
 807,-0.00013946,-0.00063785,0.00013469,0.00000030,0.00108580,0.0002052
 0,-0.00047912,0.00011162,-0.00030349,-0.00006698,-0.00001889,0.0005987
 9,0.00017899,0.00003976,-0.00021273,0.00001048,-0.00027168,0.00011029,
 0.00009270,-0.00000408,0.00003108,0.00001413,-0.00007141,0.00008141,0.
 00002903,0.00006179,-0.00011696,-0.00000456,0.00008269,0.00012496,-0.0
 0003053,-0.00417747,0.01450016,0.02802407,-0.00147553,-0.00205591,0.00
 079162,-0.00098979,0.00054360,-0.00075792,0.00076323,-0.00011497,-0.00
 024704,0.00011972,-0.00022621,-0.00007558,0.00009824,0.00001834,0.0000
 0582,-0.00037377,-0.00087859,0.00024836,-0.00030834,0.00013775,0.00040
 709,-0.00000155,0.00000779,0.00000305,-0.00006069,0.00007498,0.0000094
 9,-0.00444204,-0.00035848,-0.01523074,0.00017677,0.00247323,-0.0003540
 5,-0.00060418,-0.00008734,0.00028602,0.00007672,0.00002747,-0.00005866
 ,0.00040360,-0.00066737,0.00016724,-0.00251579,-0.00264222,-0.00008340
 ,-0.01054177,-0.01576806,-0.01430941,-0.04976308,-0.02226562,-0.060710
 86,-0.00018748,0.00011748,-0.00004722,-0.00001708,0.00000391,0.0000038
 4,0.00000587,-0.00001479,-0.00000108,0.00000187,-0.00000522,0.00001296
 ,0.00001247,-0.00000409,0.00000331,0.00001044,-0.00000070,0.00001277,0
 .00000841,0.00000476,-0.00000140,0.00000169,0.00002829,-0.00002084,0.0
 0002551,0.00002184,-0.00006599,-0.00016464,0.00010613,-0.00003190,0.00
 008968,0.00000734,-0.00020364,-0.00070526,0.00016100,-0.00015542,-0.00
 047979,0.00010202,-0.00012498,0.07479209,-0.00223450,0.00021462,0.0018
 6042,0.00001536,0.00088237,-0.00057523,-0.00055321,-0.00012636,-0.0001
 2618,0.00080897,-0.00033527,0.00030972,-0.00016278,-0.00016396,-0.0000
 2516,0.00018835,0.00029250,0.00002573,-0.00019803,-0.00008086,-0.00004
 093,-0.00002974,0.00026223,0.00007300,0.00010018,-0.00027160,-0.000108
 34,-0.00025775,0.00039599,0.00005322,0.00013261,-0.00010163,-0.0000050
 8,0.00000648,0.00018241,0.00002312,0.00302993,-0.00454614,-0.01153098,
 0.00104888,0.00058953,-0.00029990,-0.00023222,-0.00042722,0.00033126,0
 .00048007,0.00062882,0.00013209,-0.00025217,-0.00056931,-0.00015339,0.
 00039770,-0.00000143,-0.00000297,0.00061787,0.00051959,0.00095873,0.00
 045939,0.00012853,-0.00062934,0.00018527,0.00012121,0.00006174,-0.0001
 0242,0.00009998,-0.00002726,0.00764459,0.00454944,0.02437039,0.0007806
 2,-0.00322514,0.00148914,0.00093925,0.00012070,-0.00084138,0.00026212,
 -0.00038572,0.00027326,-0.00079944,-0.00111620,0.00066585,-0.00411643,
 -0.00146730,-0.00041816,-0.01106594,-0.01397450,-0.01988745,-0.0215983
 5,-0.07534093,-0.07831994,0.00007223,-0.00003322,-0.00005216,-0.000005
 98,-0.00000700,0.00000044,0.00000669,0.00000089,0.00000074,0.00000245,
 -0.00000191,-0.00000405,0.00000566,0.00000161,-0.00000121,0.00000793,0
 .00000069,0.00001684,-0.00001424,0.00000118,-0.00000140,-0.00001410,-0
 .00000250,0.00002116,-0.00006693,0.00000887,0.00009308,0.00022771,-0.0
 0018449,0.00007181,0.00012060,0.00012156,-0.00027288,-0.00081697,0.000
 31256,-0.00022933,-0.00040757,0.00003521,-0.00001619,0.02507736,0.0934
 6049,-0.00133719,-0.00112812,0.00216246,0.00011587,0.00109246,-0.00045
 853,-0.00009351,-0.00018865,0.00004199,0.00075244,-0.00031874,0.000444
 50,-0.00034798,-0.00013033,-0.00004588,0.00000612,0.00016604,-0.000030
 13,-0.00015388,0.00003178,-0.00003167,0.00003338,0.00018702,0.00006843
 ,0.00019318,-0.00018341,-0.00015385,-0.00011338,0.00027733,0.00005798,
 0.00003012,-0.00006674,-0.00001071,0.00000874,0.00006447,0.00002452,0.
 00399144,-0.00933490,-0.01471116,0.00119638,0.00130735,-0.00058694,-0.
 00000688,-0.00042788,0.00028432,0.00098672,0.00061453,-0.00053561,-0.0
 0008432,-0.00030047,0.00011254,0.00023527,-0.00009287,0.,-0.00132642,-
 0.00132589,0.00121197,-0.00052664,0.00039269,0.00014597,-0.00005787,-0
 .00006343,-0.00001048,-0.00001440,0.00004643,-0.00002134,-0.00820568,0
 .00074305,-0.01695422,0.00056436,0.00224676,-0.00108356,-0.00056213,-0
 .00012883,0.00029157,0.00011679,0.00010145,-0.00010979,0.00074794,0.00
 042606,-0.00025834,0.00311580,-0.00100540,0.00080808,-0.00106056,0.002
 74899,0.00940027,-0.05780015,-0.07830666,-0.24671496,0.00011836,-0.000
 04511,0.00002237,-0.00000698,-0.00000248,-0.00000078,-0.00000392,0.000
 00992,-0.00000246,-0.00000503,-0.00000448,-0.00000234,-0.00000657,-0.0
 0000032,-0.00000497,0.00000128,-0.00000272,-0.00000503,0.00000865,-0.0
 0000187,0.00000038,0.00000193,0.00000575,-0.00000598,0.00004393,0.0000
 1342,-0.00005091,-0.00014917,0.00013541,-0.00000501,-0.00004971,-0.000
 08109,0.00019719,0.00013717,-0.00002754,-0.00007794,-0.00021531,0.0008
 7314,-0.00026955,0.05999717,0.08268849,0.26668471,-0.00023016,0.002135
 67,0.00159911,0.00037560,0.00026862,-0.00009715,-0.00002220,0.00027902
 ,0.00004129,0.00008787,0.00077361,0.00016442,0.00000950,-0.00016918,-0
 .00012976,-0.00375281,0.00195952,0.00319399,-0.00013241,-0.00107585,-0
 .00024073,-0.00040191,0.00016315,0.00002533,0.00000256,0.00007816,0.00
 005925,0.00004579,-0.00008253,-0.00008097,0.00004868,0.00007110,-0.000
 01507,-0.00002132,0.00001748,-0.00000802,0.01062409,0.00660419,0.00026
 057,-0.18103093,-0.13978130,-0.00971258,-0.01779963,-0.02226419,-0.001
 80275,0.00012513,0.00004097,0.00009144,-0.00004079,-0.00002948,0.00004
 043,-0.00000738,0.00004031,-0.00000999,0.00010800,-0.00001753,-0.00004
 487,0.00010044,-0.00006873,0.00001399,-0.00008375,0.00003445,0.0000016
 7,0.00006757,-0.00007076,-0.00001092,-0.00007377,0.00000181,0.00019792
 ,-0.00013539,-0.00028876,-0.00005012,-0.00010626,0.00012136,-0.0000348
 1,-0.00014954,-0.00010266,-0.00004644,0.00021256,0.00072969,-0.0003776
 3,0.00046487,-0.00057266,0.00048987,-0.00083672,0.00056601,0.00116147,
 -0.00070332,0.00011507,-0.00010181,0.00072455,0.00053414,-0.00135095,-
 0.00002629,0.00001763,0.00003565,-0.00005696,-0.00010148,-0.00000628,0
 .00000224,0.00000812,-0.00000118,0.00001180,-0.00000162,0.00002103,0.0
 0000026,0.00000500,0.00000340,-0.00000733,0.00000595,-0.00000799,-0.00
 000071,-0.00000763,0.00000587,0.00000164,-0.00001486,-0.00000496,0.000
 00285,0.00000945,-0.00001548,-0.00000757,-0.00000830,0.00003528,-0.000
 16703,0.00000182,0.00009511,-0.00134429,-0.00051933,0.00057417,0.00024
 264,-0.00027796,-0.00014880,0.19566093,0.00244756,-0.00380178,-0.00253
 623,-0.00093463,0.00014180,-0.00011306,-0.00002521,-0.00045645,0.00003
 539,0.00081323,-0.00005467,0.00009347,-0.00006358,-0.00007736,0.000009
 25,0.00197860,0.00098211,-0.00196781,0.00015602,0.00044872,0.00008505,
 0.00013924,-0.00000421,0.00009627,-0.00001249,-0.00006160,-0.00003530,
 -0.00012101,0.00004981,0.00006511,0.00006371,-0.00004613,-0.00001005,-
 0.00002691,0.00006059,0.00002326,-0.01849296,-0.01937850,-0.00224200,-
 0.14110881,-0.20908197,-0.02018520,0.00708822,0.00814654,-0.00014570,-
 0.00019292,-0.00000384,-0.00004545,0.00000598,-0.00001892,0.00003387,0
 .00001811,-0.00005657,0.00001064,-0.00007510,0.00018349,-0.00000214,0.
 00016391,-0.00004788,0.00006623,0.00003613,-0.00000027,0.00000575,-0.0
 0003679,0.00002284,-0.00000595,-0.00002394,-0.00022437,0.00022836,0.00
 004768,-0.00020882,0.00002268,0.00001937,0.00012505,0.00000428,-0.0000
 8469,-0.00008511,-0.00002425,0.00007961,-0.00014817,0.00010890,-0.0000
 0851,0.00042158,0.00026857,0.00110761,-0.00066886,-0.00010676,-0.00152
 406,0.00107180,0.00123165,0.00030766,0.00052843,0.00128689,-0.00001721
 ,-0.00000327,-0.00003021,0.00002787,0.00004300,-0.00000949,-0.00000512
 ,-0.00000121,0.00000381,-0.00002460,-0.00000416,-0.00001931,0.00000100
 ,-0.00000644,0.00000057,0.00000909,-0.00000972,-0.00001081,0.00000502,
 0.00000257,-0.00000194,0.00000181,0.00000233,-0.00000200,0.00000612,-0
 .00000302,-0.00000073,0.00003910,0.00000454,-0.00008796,0.00008561,0.0
 0003349,-0.00003212,-0.00089826,-0.00015083,0.00026855,0.00007703,-0.0
 0002798,-0.00007453,0.15013539,0.22151478,0.00084770,-0.00393766,0.003
 59000,-0.00043759,0.00021692,0.00080836,-0.00024940,-0.00029996,-0.000
 09583,0.00134024,-0.00016089,-0.00122345,-0.00042197,-0.00047506,-0.00
 018485,0.00322965,-0.00163782,0.00666466,-0.00032796,-0.00003584,0.000
 63603,0.00002258,0.00050630,-0.00038548,0.00040190,-0.00026490,0.00000
 675,-0.00004059,0.00008524,-0.00022972,-0.00004467,-0.00002897,0.00001
 420,-0.00002715,-0.00004017,-0.00001044,-0.00732078,-0.00327878,0.0028
 7750,-0.00657859,-0.02105486,-0.03915311,0.00446644,0.00500613,0.00402
 276,-0.00017977,-0.00000044,-0.00001653,0.00002946,0.00000302,-0.00000
 131,-0.00001698,-0.00009765,0.00000092,0.00000072,-0.00012860,0.000028
 35,-0.00009605,0.00008166,-0.00008383,0.00013480,-0.00004224,0.0000228
 4,-0.00010125,0.00013825,-0.00000873,-0.00084207,0.00033586,-0.0000191
 0,0.00017810,0.00009255,-0.00000182,0.00017782,-0.00011100,-0.00001141
 ,0.00018484,0.00010279,0.00006766,-0.00042158,-0.00041997,-0.00032857,
 0.00035331,-0.00012632,-0.00016566,-0.00091821,-0.00039761,-0.00033666
 ,0.00064866,0.00033055,-0.00152903,-0.00106861,0.00164319,-0.00433276,
 0.00002738,-0.00003199,0.00008820,-0.00000162,0.00005528,-0.00007044,0
 .00000076,-0.00000610,-0.00000773,0.00000661,-0.00000010,0.00007455,0.
 00000007,-0.00000514,-0.00000444,0.00000975,-0.00000910,0.00000823,-0.
 00000152,0.00000649,-0.00000376,-0.00000603,0.00002151,0.00001465,-0.0
 0000622,-0.00000979,0.00002335,-0.00003129,0.00001301,0.00019494,-0.00
 000276,-0.00002502,0.00002758,0.00037445,0.00242324,-0.00060104,0.0002
 4679,-0.00003128,-0.00012654,0.00508550,0.02317049,0.03033611,-0.00038
 136,0.00028043,-0.00010702,0.00006690,-0.00012816,-0.00009950,0.000016
 47,0.00006760,0.00001898,0.00022701,-0.00003210,0.00006573,-0.00010489
 ,-0.00012107,0.00006014,-0.00005457,0.00017240,0.00000300,-0.00005227,
 0.00003123,0.00001066,0.00005713,0.00004862,-0.00000262,-0.00001162,-0
 .00008135,-0.00002806,-0.00007131,-0.00001703,0.00000445,0.00007511,0.
 00003349,-0.00002825,-0.00003550,0.00005962,0.00001414,0.00116675,-0.0
 0111320,-0.00057431,-0.00034394,0.00106835,0.00100738,-0.00008178,-0.0
 0010609,0.00015333,-0.00007646,0.00020727,0.00006153,-0.00014070,-0.00
 000043,-0.00002275,0.00007329,0.00001729,-0.00000026,0.00060482,0.0000
 2750,0.00137534,0.00020788,-0.00026825,0.00007041,0.00012092,-0.000096
 49,-0.00024270,0.00010690,-0.00002560,0.00002977,-0.00251373,-0.003134
 02,0.00103602,0.00001030,-0.00109188,-0.00042187,-0.00002017,0.0005025
 7,-0.00007964,-0.00035193,-0.00032492,0.00010836,-0.00082526,-0.000544
 32,-0.00170571,-0.00910423,0.01078000,-0.00545252,-0.01341241,-0.03013
 668,-0.00672832,0.00621592,-0.00428010,0.00780340,-0.00005124,0.000000
 54,0.00003151,-0.00001051,0.00000385,0.00000698,-0.00000298,0.00000547
 ,0.00000374,-0.00000470,0.00000326,0.00000095,-0.00000189,-0.00000346,
 0.00000203,-0.00000525,-0.00000200,0.00000013,-0.00001590,-0.00000358,
 0.00001621,-0.00000674,-0.00005348,0.00000043,0.00000618,-0.00000291,-
 0.00000081,0.00007481,-0.00002891,-0.00003109,0.00062519,-0.00021216,-
 0.00067301,0.00056404,0.00140734,0.00043598,-0.02351205,0.01899644,0.0
 0336420,0.00066372,0.00058846,-0.00012656,-0.00178112,-0.00118388,0.00
 137514,0.04209113,0.00058693,-0.00053068,0.00018840,0.00004536,0.00033
 145,0.00016314,-0.00012746,-0.00027908,-0.00003223,-0.00067867,-0.0000
 3353,-0.00004099,0.00036235,0.00039408,-0.00015921,-0.00013069,-0.0002
 9811,-0.00029326,0.00024172,-0.00012667,-0.00013596,-0.00021379,-0.000
 21965,-0.00001913,-0.00008545,0.00020679,0.00006690,0.00010895,0.00010
 911,-0.00002743,-0.00018223,-0.00013191,0.00005637,0.00010002,-0.00013
 052,-0.00000903,-0.00271128,0.00175822,0.00137612,-0.00095026,-0.00156
 068,0.00157420,0.00029295,-0.00042347,-0.00008291,0.00019910,-0.000299
 14,-0.00008981,0.00028550,0.00006906,0.00000521,-0.00015784,-0.0001207
 2,0.00004178,0.00019435,-0.00084755,-0.00167337,-0.00124059,0.00006907
 ,-0.00052624,0.00029813,0.00022610,0.00060929,-0.00046373,0.00022265,-
 0.00007993,-0.00141324,0.00431520,-0.00362749,0.00094069,0.00356015,0.
 00043331,0.00044390,-0.00162324,0.00052573,0.00139915,0.00107205,-0.00
 010144,0.00134454,-0.00194918,0.00082534,0.01480334,-0.00752878,-0.010
 41982,-0.03358436,0.04654304,0.01455896,0.00177011,-0.00625121,-0.0012
 1122,0.00016740,-0.00005845,0.00016584,0.00001456,0.00000265,-0.000008
 98,-0.00000019,-0.00003010,0.00001305,0.00000490,-0.00001268,0.0000028
 2,0.00000097,0.00000181,-0.00000499,0.00000091,-0.00001304,-0.00000503
 ,0.00003447,-0.00001024,-0.00003829,-0.00000079,0.00004519,-0.00001074
 ,-0.00000467,0.00002774,0.00003381,-0.00009542,0.00001060,0.00013507,-
 0.00237388,0.00104757,0.00306962,-0.00213550,-0.00095669,-0.00091125,0
 .01403382,-0.05613554,-0.00656937,-0.00055156,-0.00054029,-0.00093005,
 0.00073712,0.00084864,-0.00157524,0.00869036,0.01924999,-0.00011427,0.
 00009013,0.00000759,-0.00011506,0.00000849,0.00006532,0.00006210,0.000
 02309,-0.00000625,-0.00014191,-0.00000806,-0.00010396,-0.00005590,0.00
 005344,0.00000923,0.00005467,-0.00008317,-0.00000810,-0.00005309,0.000
 02007,0.00001116,0.00002600,0.00004363,0.00000851,0.00003123,-0.000036
 86,0.00000012,-0.00000275,0.00001683,-0.00000702,0.00002769,0.00001479
 ,-0.00000619,-0.00001389,0.00002272,-0.00000414,-0.00063773,-0.0007110
 0,0.00074699,0.00004108,-0.00040002,-0.00035241,0.00014583,0.00016768,
 0.00001606,0.00009621,-0.00017938,-0.00003618,-0.00000369,-0.00001882,
 -0.00000089,0.00004992,0.00004370,-0.00000892,-0.00081299,0.00030586,-
 0.00054418,0.00047403,0.00031446,0.00025723,-0.00044021,-0.00006078,-0
 .00005339,0.00023420,-0.00020043,0.00002701,0.00365910,0.00091857,0.00
 088600,-0.00058830,-0.00123232,-0.00053581,-0.00033779,0.00057481,-0.0
 0024680,-0.00048565,-0.00029196,-0.00017540,-0.00325527,0.00178038,0.0
 0066028,-0.00354029,0.01223743,-0.00285054,-0.00280596,0.01493481,-0.0
 2852705,-0.00759595,0.00348496,-0.00210828,0.00000422,0.00000542,-0.00
 002021,0.00000272,-0.00000071,0.00000095,-0.00000105,0.00000415,0.0000
 0177,-0.00000280,0.00000053,0.00000119,0.00000031,-0.00000206,0.000002
 28,0.00000692,0.00000308,0.00000396,-0.00000329,0.00000817,0.00000605,
 0.00001294,0.00002823,0.00000091,-0.00000175,-0.00001520,-0.00000794,-
 0.00000795,0.00000539,-0.00000510,-0.00077406,0.00102110,-0.00054112,0
 .00096177,-0.00096680,-0.00119251,0.01533027,-0.03731272,-0.02901863,0
 .00020280,0.00007993,0.00030941,0.00110252,0.00056996,-0.00057538,-0.0
 0073495,0.00473848,0.06391434\\0.00000026,0.00000049,0.00000056,-0.000
 00013,0.00000066,-0.00000060,-0.00000024,0.00000101,-0.00000110,0.0000
 0036,0.00000066,0.00000070,0.00000003,0.00000099,-0.00000028,0.0000006
 3,0.00000048,0.00000163,0.00000060,0.00000061,0.00000146,0.00000029,0.
 00000088,0.00000047,-0.00000003,0.00000106,-0.00000048,-0.00000064,0.0
 0000101,-0.00000217,-0.00000070,0.00000118,-0.00000239,-0.00000041,0.0
 0000122,-0.00000161,0.00000061,0.00000014,0.00000148,0.00000088,0.,0.0
 0000235,0.00000089,0.00000009,0.00000249,-0.00000042,0.00000026,-0.000
 00124,-0.00000081,0.00000030,-0.00000240,-0.00000090,0.00000073,-0.000
 00282,-0.00000031,-0.00000035,-0.00000080,-0.00000065,-0.00000097,-0.0
 0000151,-0.00000107,-0.00000080,-0.00000267,-0.00000112,-0.00000016,-0
 .00000307,0.00000016,-0.00000057,0.00000030,0.,-0.00000132,0.00000064,
 -0.00000032,-0.00000191,-0.00000011,-0.00000066,-0.00000177,-0.0000011
 8,0.00000038,-0.00000146,0.00000179,0.00000054,-0.00000070,0.00000247,
 0.00000105,0.00000010,0.00000208,0.00000036,0.00000033,0.00000135,0.00
 000115,-0.00000012,0.00000329,0.00000083,0.00000047,0.00000216,0.00000
 028,0.00000094,0.00000043,-0.00000048,0.00000131,-0.00000185,-0.000000
 99,0.00000125,-0.00000323,-0.00000122,0.00000070,-0.00000369,-0.000001
 41,-0.00000005,-0.00000394,-0.00000130,-0.00000121,-0.00000320,-0.0000
 0093,-0.00000221,-0.00000177,-0.00000030,-0.00000255,0.00000017,0.0000
 0040,-0.00000208,0.00000190,0.00000108,-0.00000090,0.00000332,0.000001
 15,0.00000087,0.00000398,0.00000043,0.00000118,0.00000088,0.00000114,-
 0.00000025,0.00000310,0.00000153,0.00000048,0.00000310\\\@


 ONE OF THE BENEFITS OF A COLLEGE EDUCATION
 IS TO SHOW THE BOY ITS LITTLE AVAIL 
                                    EMERSON IN 'CULTURE'
 Job cpu time:       1 days  2 hours 58 minutes 37.9 seconds.
 Elapsed time:       0 days  1 hours 20 minutes 55.2 seconds.
 File lengths (MBytes):  RWF=   4007 Int=      0 D2E=      0 Chk=     49 Scr=      1
 Normal termination of Gaussian 16 at Wed Aug  7 22:29:54 2019.
