 Entering Gaussian System, Link 0=/share/apps/gaussian16/g16/g16
 Initial command:
 /share/apps/gaussian16/g16/l1.exe "/home/amen01//scratch/914/Gau-12077.inp" -scrdir="/home/amen01//scratch/914/"
 Entering Link 1 = /share/apps/gaussian16/g16/l1.exe PID=     12078.
  
 Copyright (c) 1988-2017, Gaussian, Inc.  All Rights Reserved.
  
 This is part of the Gaussian(R) 16 program.  It is based on
 the Gaussian(R) 09 system (copyright 2009, Gaussian, Inc.),
 the Gaussian(R) 03 system (copyright 2003, Gaussian, Inc.),
 the Gaussian(R) 98 system (copyright 1998, Gaussian, Inc.),
 the Gaussian(R) 94 system (copyright 1995, Gaussian, Inc.),
 the Gaussian 92(TM) system (copyright 1992, Gaussian, Inc.),
 the Gaussian 90(TM) system (copyright 1990, Gaussian, Inc.),
 the Gaussian 88(TM) system (copyright 1988, Gaussian, Inc.),
 the Gaussian 86(TM) system (copyright 1986, Carnegie Mellon
 University), and the Gaussian 82(TM) system (copyright 1983,
 Carnegie Mellon University). Gaussian is a federally registered
 trademark of Gaussian, Inc.
  
 This software contains proprietary and confidential information,
 including trade secrets, belonging to Gaussian, Inc.
  
 This software is provided under written license and may be
 used, copied, transmitted, or stored only in accord with that
 written license.
  
 The following legend is applicable only to US Government
 contracts under FAR:
  
                    RESTRICTED RIGHTS LEGEND
  
 Use, reproduction and disclosure by the US Government is
 subject to restrictions as set forth in subparagraphs (a)
 and (c) of the Commercial Computer Software - Restricted
 Rights clause in FAR 52.227-19.
  
 Gaussian, Inc.
 340 Quinnipiac St., Bldg. 40, Wallingford CT 06492
  
  
 ---------------------------------------------------------------
 Warning -- This program may not be used in any manner that
 competes with the business of Gaussian, Inc. or will provide
 assistance to any competitor of Gaussian, Inc.  The licensee
 of this program is prohibited from giving any competitor of
 Gaussian, Inc. access to this program.  By using this program,
 the user acknowledges that Gaussian, Inc. is engaged in the
 business of creating and licensing software in the field of
 computational chemistry and represents and warrants to the
 licensee that it is not a competitor of Gaussian, Inc. and that
 it will not use this program in any manner prohibited above.
 ---------------------------------------------------------------
  

 Cite this work as:
 Gaussian 16, Revision B.01,
 M. J. Frisch, G. W. Trucks, H. B. Schlegel, G. E. Scuseria, 
 M. A. Robb, J. R. Cheeseman, G. Scalmani, V. Barone, 
 G. A. Petersson, H. Nakatsuji, X. Li, M. Caricato, A. V. Marenich, 
 J. Bloino, B. G. Janesko, R. Gomperts, B. Mennucci, H. P. Hratchian, 
 J. V. Ortiz, A. F. Izmaylov, J. L. Sonnenberg, D. Williams-Young, 
 F. Ding, F. Lipparini, F. Egidi, J. Goings, B. Peng, A. Petrone, 
 T. Henderson, D. Ranasinghe, V. G. Zakrzewski, J. Gao, N. Rega, 
 G. Zheng, W. Liang, M. Hada, M. Ehara, K. Toyota, R. Fukuda, 
 J. Hasegawa, M. Ishida, T. Nakajima, Y. Honda, O. Kitao, H. Nakai, 
 T. Vreven, K. Throssell, J. A. Montgomery, Jr., J. E. Peralta, 
 F. Ogliaro, M. J. Bearpark, J. J. Heyd, E. N. Brothers, K. N. Kudin, 
 V. N. Staroverov, T. A. Keith, R. Kobayashi, J. Normand, 
 K. Raghavachari, A. P. Rendell, J. C. Burant, S. S. Iyengar, 
 J. Tomasi, M. Cossi, J. M. Millam, M. Klene, C. Adamo, R. Cammi, 
 J. W. Ochterski, R. L. Martin, K. Morokuma, O. Farkas, 
 J. B. Foresman, and D. J. Fox, Gaussian, Inc., Wallingford CT, 2016.
 
 ******************************************
 Gaussian 16:  ES64L-G16RevB.01 20-Dec-2017
                14-Aug-2019 
 ******************************************
 %nprocshared=20
 Will use up to   20 processors via shared memory.
 %mem=180GB
 %chk=7-memb2-carbTSguess-4b.chk
 ---------------------------------------------------------------
 # opt=(ts,calcfc,noeigen) freq b3lyp/6-311+g(d,p) int=grid=fine
 ---------------------------------------------------------------
 1/5=1,10=4,11=1,18=20,26=3,38=1/1,3;
 2/9=110,12=2,17=6,18=5,40=1/2;
 3/5=4,6=6,7=111,11=2,25=1,30=1,71=2,74=-5,75=-4,140=1/1,2,3;
 4//1;
 5/5=2,38=5/2;
 8/6=4,10=90,11=11/1;
 11/6=1,8=1,9=11,15=111,16=1/1,2,10;
 10/6=1,13=1/2;
 6/7=2,8=2,9=2,10=2,28=1/1;
 7/10=1,18=20,25=1/1,2,3,16;
 1/5=1,10=4,11=1,18=20,26=3/3(2);
 2/9=110/2;
 99//99;
 2/9=110/2;
 3/5=4,6=6,7=111,11=2,25=1,30=1,71=1,74=-5,75=-4/1,2,3;
 4/5=5,16=3,69=1/1;
 5/5=2,38=5/2;
 7//1,2,3,16;
 1/5=1,11=1,18=20,26=3/3(-5);
 2/9=110/2;
 6/7=2,8=2,9=2,10=2,19=2,28=1/1;
 99/9=1/99;
 ----------------------
 7-memb2-carbTSguess-4b
 ----------------------
 Symbolic Z-matrix:
 Charge =  0 Multiplicity = 1
 C                    -0.7029   -0.8816    0. 
 C                    -0.5605    0.5758    0. 
 C                    -1.8639    1.0931    0. 
 C                    -2.0565   -1.1628    0. 
 C                    -2.7772    0.0392    0. 
 C                    -2.7154   -2.4229    0. 
 C                    -4.1839   -2.3128    0. 
 C                    -4.8482   -1.1116    0. 
 C                    -4.1423    0.175     0. 
 C                    -2.2674    2.4244    0. 
 C                    -3.696     2.6139    0. 
 C                    -4.5888    1.541     0. 
 C                     0.2538   -1.9023    0. 
 C                    -0.3654   -3.3272    0. 
 C                    -1.8798   -3.4966    0. 
 C                     0.5272    1.429     0. 
 C                     0.1549    2.8542    0. 
 C                    -1.177     3.32      0. 
 C                     1.9212    0.9734    0. 
 C                     2.8816    2.0403    0. 
 C                     2.494     3.4257    0. 
 C                     1.2054    3.824     0. 
 C                     2.4005   -0.4246    0. 
 C                     3.8301   -0.585     0. 
 C                     4.714     0.5034    0. 
 C                     4.2602    1.7916    0. 
 C                     4.5017   -1.8784    0. 
 C                     3.8463   -3.0336    0. 
 C                     2.3686   -3.0427    0. 
 C                     1.6313   -1.7048    0. 
 H                     0.57226  -3.69595   0.98714 
 H                    -0.45552  -4.49857  -0.14901 
 H                    -2.2447   -4.5193    0. 
 H                    -4.7678   -3.2277    0. 
 H                    -5.9338   -1.1212    0. 
 H                    -5.6522    1.7597    0. 
 H                    -4.0995    3.6211    0. 
 H                    -1.3331    4.3942    0. 
 H                     0.9476    4.8774    0. 
 H                     3.293     4.1589    0. 
 H                     4.9507    2.6272    0. 
 H                     5.7791    0.3008    0. 
 H                     5.5864   -1.859     0. 
 H                     4.3679   -3.9851    0. 
 H                     1.57016  -3.58315   0.95011 
 H                     2.29406  -4.336    -0.20494 
 
 Add virtual bond connecting atoms H45        and H31        Dist= 1.90D+00.
 Add virtual bond connecting atoms H46        and C29        Dist= 2.48D+00.
 Add virtual bond connecting atoms H31        and C14        Dist= 2.67D+00.
 Add virtual bond connecting atoms H45        and C29        Dist= 2.56D+00.

 GradGradGradGradGradGradGradGradGradGradGradGradGradGradGradGradGradGrad
 Berny optimization.
 Initialization pass.
                           ----------------------------
                           !    Initial Parameters    !
                           ! (Angstroms and Degrees)  !
 --------------------------                            --------------------------
 ! Name  Definition              Value          Derivative Info.                !
 --------------------------------------------------------------------------------
 ! R1    R(1,2)                  1.4643         calculate D2E/DX2 analytically  !
 ! R2    R(1,4)                  1.3825         calculate D2E/DX2 analytically  !
 ! R3    R(1,13)                 1.399          calculate D2E/DX2 analytically  !
 ! R4    R(2,3)                  1.4023         calculate D2E/DX2 analytically  !
 ! R5    R(2,16)                 1.3824         calculate D2E/DX2 analytically  !
 ! R6    R(3,5)                  1.3946         calculate D2E/DX2 analytically  !
 ! R7    R(3,10)                 1.3911         calculate D2E/DX2 analytically  !
 ! R8    R(4,5)                  1.4015         calculate D2E/DX2 analytically  !
 ! R9    R(4,6)                  1.422          calculate D2E/DX2 analytically  !
 ! R10   R(5,9)                  1.3718         calculate D2E/DX2 analytically  !
 ! R11   R(6,7)                  1.4726         calculate D2E/DX2 analytically  !
 ! R12   R(6,15)                 1.3605         calculate D2E/DX2 analytically  !
 ! R13   R(7,8)                  1.3727         calculate D2E/DX2 analytically  !
 ! R14   R(7,34)                 1.0853         calculate D2E/DX2 analytically  !
 ! R15   R(8,9)                  1.4675         calculate D2E/DX2 analytically  !
 ! R16   R(8,35)                 1.0856         calculate D2E/DX2 analytically  !
 ! R17   R(9,12)                 1.4371         calculate D2E/DX2 analytically  !
 ! R18   R(10,11)                1.4411         calculate D2E/DX2 analytically  !
 ! R19   R(10,18)                1.4111         calculate D2E/DX2 analytically  !
 ! R20   R(11,12)                1.3958         calculate D2E/DX2 analytically  !
 ! R21   R(11,37)                1.085          calculate D2E/DX2 analytically  !
 ! R22   R(12,36)                1.0857         calculate D2E/DX2 analytically  !
 ! R23   R(13,14)                1.5536         calculate D2E/DX2 analytically  !
 ! R24   R(13,30)                1.3916         calculate D2E/DX2 analytically  !
 ! R25   R(14,15)                1.5238         calculate D2E/DX2 analytically  !
 ! R26   R(14,31)                1.4105         calculate D2E/DX2 analytically  !
 ! R27   R(14,32)                1.1842         calculate D2E/DX2 analytically  !
 ! R28   R(15,33)                1.0858         calculate D2E/DX2 analytically  !
 ! R29   R(16,17)                1.473          calculate D2E/DX2 analytically  !
 ! R30   R(16,19)                1.4666         calculate D2E/DX2 analytically  !
 ! R31   R(17,18)                1.411          calculate D2E/DX2 analytically  !
 ! R32   R(17,22)                1.4297         calculate D2E/DX2 analytically  !
 ! R33   R(18,38)                1.0855         calculate D2E/DX2 analytically  !
 ! R34   R(19,20)                1.4355         calculate D2E/DX2 analytically  !
 ! R35   R(19,23)                1.4779         calculate D2E/DX2 analytically  !
 ! R36   R(20,21)                1.4386         calculate D2E/DX2 analytically  !
 ! R37   R(20,26)                1.4009         calculate D2E/DX2 analytically  !
 ! R38   R(21,22)                1.3488         calculate D2E/DX2 analytically  !
 ! R39   R(21,40)                1.0844         calculate D2E/DX2 analytically  !
 ! R40   R(22,39)                1.0845         calculate D2E/DX2 analytically  !
 ! R41   R(23,24)                1.4386         calculate D2E/DX2 analytically  !
 ! R42   R(23,30)                1.4935         calculate D2E/DX2 analytically  !
 ! R43   R(24,25)                1.4021         calculate D2E/DX2 analytically  !
 ! R44   R(24,27)                1.4574         calculate D2E/DX2 analytically  !
 ! R45   R(25,26)                1.3658         calculate D2E/DX2 analytically  !
 ! R46   R(25,42)                1.0842         calculate D2E/DX2 analytically  !
 ! R47   R(26,41)                1.084          calculate D2E/DX2 analytically  !
 ! R48   R(27,28)                1.3282         calculate D2E/DX2 analytically  !
 ! R49   R(27,43)                1.0849         calculate D2E/DX2 analytically  !
 ! R50   R(28,29)                1.4777         calculate D2E/DX2 analytically  !
 ! R51   R(28,44)                1.0851         calculate D2E/DX2 analytically  !
 ! R52   R(29,30)                1.5276         calculate D2E/DX2 analytically  !
 ! R53   R(29,45)                1.3536         calculate D2E/DX2 analytically  !
 ! R54   R(29,46)                1.3116         calculate D2E/DX2 analytically  !
 ! R55   R(31,45)                1.0049         calculate D2E/DX2 analytically  !
 ! A1    A(2,1,4)              107.3164         calculate D2E/DX2 analytically  !
 ! A2    A(2,1,13)             131.2732         calculate D2E/DX2 analytically  !
 ! A3    A(4,1,13)             121.4104         calculate D2E/DX2 analytically  !
 ! A4    A(1,2,3)              106.0668         calculate D2E/DX2 analytically  !
 ! A5    A(1,2,16)             133.6915         calculate D2E/DX2 analytically  !
 ! A6    A(3,2,16)             120.2417         calculate D2E/DX2 analytically  !
 ! A7    A(2,3,5)              109.2645         calculate D2E/DX2 analytically  !
 ! A8    A(2,3,10)             128.5088         calculate D2E/DX2 analytically  !
 ! A9    A(5,3,10)             122.2267         calculate D2E/DX2 analytically  !
 ! A10   A(1,4,5)              109.2104         calculate D2E/DX2 analytically  !
 ! A11   A(1,4,6)              129.3407         calculate D2E/DX2 analytically  !
 ! A12   A(5,4,6)              121.4489         calculate D2E/DX2 analytically  !
 ! A13   A(3,5,4)              108.1419         calculate D2E/DX2 analytically  !
 ! A14   A(3,5,9)              125.2308         calculate D2E/DX2 analytically  !
 ! A15   A(4,5,9)              126.6273         calculate D2E/DX2 analytically  !
 ! A16   A(4,6,7)              113.3171         calculate D2E/DX2 analytically  !
 ! A17   A(4,6,15)             114.5036         calculate D2E/DX2 analytically  !
 ! A18   A(7,6,15)             132.1793         calculate D2E/DX2 analytically  !
 ! A19   A(6,7,8)              123.2316         calculate D2E/DX2 analytically  !
 ! A20   A(6,7,34)             118.2588         calculate D2E/DX2 analytically  !
 ! A21   A(8,7,34)             118.5096         calculate D2E/DX2 analytically  !
 ! A22   A(7,8,9)              122.3045         calculate D2E/DX2 analytically  !
 ! A23   A(7,8,35)             118.4373         calculate D2E/DX2 analytically  !
 ! A24   A(9,8,35)             119.2583         calculate D2E/DX2 analytically  !
 ! A25   A(5,9,8)              113.0705         calculate D2E/DX2 analytically  !
 ! A26   A(5,9,12)             113.7819         calculate D2E/DX2 analytically  !
 ! A27   A(8,9,12)             133.1475         calculate D2E/DX2 analytically  !
 ! A28   A(3,10,11)            114.4174         calculate D2E/DX2 analytically  !
 ! A29   A(3,10,18)            112.5366         calculate D2E/DX2 analytically  !
 ! A30   A(11,10,18)           133.046          calculate D2E/DX2 analytically  !
 ! A31   A(10,11,12)           122.2091         calculate D2E/DX2 analytically  !
 ! A32   A(10,11,37)           119.3878         calculate D2E/DX2 analytically  !
 ! A33   A(12,11,37)           118.4031         calculate D2E/DX2 analytically  !
 ! A34   A(9,12,11)            122.1341         calculate D2E/DX2 analytically  !
 ! A35   A(9,12,36)            119.7223         calculate D2E/DX2 analytically  !
 ! A36   A(11,12,36)           118.1436         calculate D2E/DX2 analytically  !
 ! A37   A(1,13,14)            113.3661         calculate D2E/DX2 analytically  !
 ! A38   A(1,13,30)            124.987          calculate D2E/DX2 analytically  !
 ! A39   A(14,13,30)           121.6469         calculate D2E/DX2 analytically  !
 ! A40   A(13,14,15)           119.8702         calculate D2E/DX2 analytically  !
 ! A41   A(13,14,31)            88.5575         calculate D2E/DX2 analytically  !
 ! A42   A(13,14,32)           159.6367         calculate D2E/DX2 analytically  !
 ! A43   A(15,14,31)           129.166          calculate D2E/DX2 analytically  !
 ! A44   A(15,14,32)            79.3047         calculate D2E/DX2 analytically  !
 ! A45   A(31,14,32)            83.1115         calculate D2E/DX2 analytically  !
 ! A46   A(6,15,14)            121.5091         calculate D2E/DX2 analytically  !
 ! A47   A(6,15,33)            122.472          calculate D2E/DX2 analytically  !
 ! A48   A(14,15,33)           116.019          calculate D2E/DX2 analytically  !
 ! A49   A(2,16,17)            113.4709         calculate D2E/DX2 analytically  !
 ! A50   A(2,16,19)            123.7902         calculate D2E/DX2 analytically  !
 ! A51   A(17,16,19)           122.7389         calculate D2E/DX2 analytically  !
 ! A52   A(16,17,18)           123.9161         calculate D2E/DX2 analytically  !
 ! A53   A(16,17,22)           118.0725         calculate D2E/DX2 analytically  !
 ! A54   A(18,17,22)           118.0114         calculate D2E/DX2 analytically  !
 ! A55   A(10,18,17)           121.326          calculate D2E/DX2 analytically  !
 ! A56   A(10,18,38)           121.1298         calculate D2E/DX2 analytically  !
 ! A57   A(17,18,38)           117.5443         calculate D2E/DX2 analytically  !
 ! A58   A(16,19,20)           113.8939         calculate D2E/DX2 analytically  !
 ! A59   A(16,19,23)           127.023          calculate D2E/DX2 analytically  !
 ! A60   A(20,19,23)           119.083          calculate D2E/DX2 analytically  !
 ! A61   A(19,20,21)           122.3769         calculate D2E/DX2 analytically  !
 ! A62   A(19,20,26)           121.7667         calculate D2E/DX2 analytically  !
 ! A63   A(21,20,26)           115.8565         calculate D2E/DX2 analytically  !
 ! A64   A(20,21,22)           122.8064         calculate D2E/DX2 analytically  !
 ! A65   A(20,21,40)           116.9107         calculate D2E/DX2 analytically  !
 ! A66   A(22,21,40)           120.2829         calculate D2E/DX2 analytically  !
 ! A67   A(17,22,21)           120.1113         calculate D2E/DX2 analytically  !
 ! A68   A(17,22,39)           118.9608         calculate D2E/DX2 analytically  !
 ! A69   A(21,22,39)           120.9279         calculate D2E/DX2 analytically  !
 ! A70   A(19,23,24)           115.3259         calculate D2E/DX2 analytically  !
 ! A71   A(19,23,30)           130.0766         calculate D2E/DX2 analytically  !
 ! A72   A(24,23,30)           114.5975         calculate D2E/DX2 analytically  !
 ! A73   A(23,24,25)           122.6786         calculate D2E/DX2 analytically  !
 ! A74   A(23,24,27)           123.8424         calculate D2E/DX2 analytically  !
 ! A75   A(25,24,27)           113.479          calculate D2E/DX2 analytically  !
 ! A76   A(24,25,26)           121.5136         calculate D2E/DX2 analytically  !
 ! A77   A(24,25,42)           118.3104         calculate D2E/DX2 analytically  !
 ! A78   A(26,25,42)           120.176          calculate D2E/DX2 analytically  !
 ! A79   A(20,26,25)           119.6323         calculate D2E/DX2 analytically  !
 ! A80   A(20,26,41)           119.3425         calculate D2E/DX2 analytically  !
 ! A81   A(25,26,41)           121.0252         calculate D2E/DX2 analytically  !
 ! A82   A(24,27,28)           122.991          calculate D2E/DX2 analytically  !
 ! A83   A(24,27,43)           116.416          calculate D2E/DX2 analytically  !
 ! A84   A(28,27,43)           120.5929         calculate D2E/DX2 analytically  !
 ! A85   A(27,28,29)           119.9211         calculate D2E/DX2 analytically  !
 ! A86   A(27,28,44)           121.7007         calculate D2E/DX2 analytically  !
 ! A87   A(29,28,44)           118.3781         calculate D2E/DX2 analytically  !
 ! A88   A(28,29,30)           118.5058         calculate D2E/DX2 analytically  !
 ! A89   A(28,29,45)           126.3204         calculate D2E/DX2 analytically  !
 ! A90   A(28,29,46)            93.6065         calculate D2E/DX2 analytically  !
 ! A91   A(30,29,45)            93.726          calculate D2E/DX2 analytically  !
 ! A92   A(30,29,46)           146.7401         calculate D2E/DX2 analytically  !
 ! A93   A(45,29,46)            71.4852         calculate D2E/DX2 analytically  !
 ! A94   A(13,30,23)           129.1585         calculate D2E/DX2 analytically  !
 ! A95   A(13,30,29)           110.6994         calculate D2E/DX2 analytically  !
 ! A96   A(23,30,29)           120.1421         calculate D2E/DX2 analytically  !
 ! A97   A(14,31,45)           127.2263         calculate D2E/DX2 analytically  !
 ! A98   A(29,45,31)           131.026          calculate D2E/DX2 analytically  !
 ! D1    D(4,1,2,3)              0.0            calculate D2E/DX2 analytically  !
 ! D2    D(4,1,2,16)           180.0            calculate D2E/DX2 analytically  !
 ! D3    D(13,1,2,3)           180.0            calculate D2E/DX2 analytically  !
 ! D4    D(13,1,2,16)            0.0            calculate D2E/DX2 analytically  !
 ! D5    D(2,1,4,5)              0.0            calculate D2E/DX2 analytically  !
 ! D6    D(2,1,4,6)            180.0            calculate D2E/DX2 analytically  !
 ! D7    D(13,1,4,5)           180.0            calculate D2E/DX2 analytically  !
 ! D8    D(13,1,4,6)             0.0            calculate D2E/DX2 analytically  !
 ! D9    D(2,1,13,14)          180.0            calculate D2E/DX2 analytically  !
 ! D10   D(2,1,13,30)            0.0            calculate D2E/DX2 analytically  !
 ! D11   D(4,1,13,14)            0.0            calculate D2E/DX2 analytically  !
 ! D12   D(4,1,13,30)          180.0            calculate D2E/DX2 analytically  !
 ! D13   D(1,2,3,5)              0.0            calculate D2E/DX2 analytically  !
 ! D14   D(1,2,3,10)           180.0            calculate D2E/DX2 analytically  !
 ! D15   D(16,2,3,5)           180.0            calculate D2E/DX2 analytically  !
 ! D16   D(16,2,3,10)            0.0            calculate D2E/DX2 analytically  !
 ! D17   D(1,2,16,17)          180.0            calculate D2E/DX2 analytically  !
 ! D18   D(1,2,16,19)            0.0            calculate D2E/DX2 analytically  !
 ! D19   D(3,2,16,17)            0.0            calculate D2E/DX2 analytically  !
 ! D20   D(3,2,16,19)          180.0            calculate D2E/DX2 analytically  !
 ! D21   D(2,3,5,4)              0.0            calculate D2E/DX2 analytically  !
 ! D22   D(2,3,5,9)            180.0            calculate D2E/DX2 analytically  !
 ! D23   D(10,3,5,4)           180.0            calculate D2E/DX2 analytically  !
 ! D24   D(10,3,5,9)             0.0            calculate D2E/DX2 analytically  !
 ! D25   D(2,3,10,11)          180.0            calculate D2E/DX2 analytically  !
 ! D26   D(2,3,10,18)            0.0            calculate D2E/DX2 analytically  !
 ! D27   D(5,3,10,11)            0.0            calculate D2E/DX2 analytically  !
 ! D28   D(5,3,10,18)          180.0            calculate D2E/DX2 analytically  !
 ! D29   D(1,4,5,3)              0.0            calculate D2E/DX2 analytically  !
 ! D30   D(1,4,5,9)            180.0            calculate D2E/DX2 analytically  !
 ! D31   D(6,4,5,3)            180.0            calculate D2E/DX2 analytically  !
 ! D32   D(6,4,5,9)              0.0            calculate D2E/DX2 analytically  !
 ! D33   D(1,4,6,7)            180.0            calculate D2E/DX2 analytically  !
 ! D34   D(1,4,6,15)             0.0            calculate D2E/DX2 analytically  !
 ! D35   D(5,4,6,7)              0.0            calculate D2E/DX2 analytically  !
 ! D36   D(5,4,6,15)           180.0            calculate D2E/DX2 analytically  !
 ! D37   D(3,5,9,8)            180.0            calculate D2E/DX2 analytically  !
 ! D38   D(3,5,9,12)             0.0            calculate D2E/DX2 analytically  !
 ! D39   D(4,5,9,8)              0.0            calculate D2E/DX2 analytically  !
 ! D40   D(4,5,9,12)           180.0            calculate D2E/DX2 analytically  !
 ! D41   D(4,6,7,8)              0.0            calculate D2E/DX2 analytically  !
 ! D42   D(4,6,7,34)           180.0            calculate D2E/DX2 analytically  !
 ! D43   D(15,6,7,8)           180.0            calculate D2E/DX2 analytically  !
 ! D44   D(15,6,7,34)            0.0            calculate D2E/DX2 analytically  !
 ! D45   D(4,6,15,14)            0.0            calculate D2E/DX2 analytically  !
 ! D46   D(4,6,15,33)          180.0            calculate D2E/DX2 analytically  !
 ! D47   D(7,6,15,14)          180.0            calculate D2E/DX2 analytically  !
 ! D48   D(7,6,15,33)            0.0            calculate D2E/DX2 analytically  !
 ! D49   D(6,7,8,9)              0.0            calculate D2E/DX2 analytically  !
 ! D50   D(6,7,8,35)           180.0            calculate D2E/DX2 analytically  !
 ! D51   D(34,7,8,9)           180.0            calculate D2E/DX2 analytically  !
 ! D52   D(34,7,8,35)            0.0            calculate D2E/DX2 analytically  !
 ! D53   D(7,8,9,5)              0.0            calculate D2E/DX2 analytically  !
 ! D54   D(7,8,9,12)           180.0            calculate D2E/DX2 analytically  !
 ! D55   D(35,8,9,5)           180.0            calculate D2E/DX2 analytically  !
 ! D56   D(35,8,9,12)            0.0            calculate D2E/DX2 analytically  !
 ! D57   D(5,9,12,11)            0.0            calculate D2E/DX2 analytically  !
 ! D58   D(5,9,12,36)          180.0            calculate D2E/DX2 analytically  !
 ! D59   D(8,9,12,11)          180.0            calculate D2E/DX2 analytically  !
 ! D60   D(8,9,12,36)            0.0            calculate D2E/DX2 analytically  !
 ! D61   D(3,10,11,12)           0.0            calculate D2E/DX2 analytically  !
 ! D62   D(3,10,11,37)         180.0            calculate D2E/DX2 analytically  !
 ! D63   D(18,10,11,12)        180.0            calculate D2E/DX2 analytically  !
 ! D64   D(18,10,11,37)          0.0            calculate D2E/DX2 analytically  !
 ! D65   D(3,10,18,17)           0.0            calculate D2E/DX2 analytically  !
 ! D66   D(3,10,18,38)         180.0            calculate D2E/DX2 analytically  !
 ! D67   D(11,10,18,17)        180.0            calculate D2E/DX2 analytically  !
 ! D68   D(11,10,18,38)          0.0            calculate D2E/DX2 analytically  !
 ! D69   D(10,11,12,9)           0.0            calculate D2E/DX2 analytically  !
 ! D70   D(10,11,12,36)        180.0            calculate D2E/DX2 analytically  !
 ! D71   D(37,11,12,9)         180.0            calculate D2E/DX2 analytically  !
 ! D72   D(37,11,12,36)          0.0            calculate D2E/DX2 analytically  !
 ! D73   D(1,13,14,15)           0.0            calculate D2E/DX2 analytically  !
 ! D74   D(1,13,14,31)        -135.5688         calculate D2E/DX2 analytically  !
 ! D75   D(1,13,14,32)         158.8014         calculate D2E/DX2 analytically  !
 ! D76   D(30,13,14,15)        180.0            calculate D2E/DX2 analytically  !
 ! D77   D(30,13,14,31)         44.4312         calculate D2E/DX2 analytically  !
 ! D78   D(30,13,14,32)        -21.1986         calculate D2E/DX2 analytically  !
 ! D79   D(1,13,30,23)           0.0            calculate D2E/DX2 analytically  !
 ! D80   D(1,13,30,29)         180.0            calculate D2E/DX2 analytically  !
 ! D81   D(14,13,30,23)        180.0            calculate D2E/DX2 analytically  !
 ! D82   D(14,13,30,29)          0.0            calculate D2E/DX2 analytically  !
 ! D83   D(13,14,15,6)           0.0            calculate D2E/DX2 analytically  !
 ! D84   D(13,14,15,33)        180.0            calculate D2E/DX2 analytically  !
 ! D85   D(31,14,15,6)         115.4933         calculate D2E/DX2 analytically  !
 ! D86   D(31,14,15,33)        -64.5067         calculate D2E/DX2 analytically  !
 ! D87   D(32,14,15,6)        -172.643          calculate D2E/DX2 analytically  !
 ! D88   D(32,14,15,33)          7.357          calculate D2E/DX2 analytically  !
 ! D89   D(13,14,31,45)        -52.5994         calculate D2E/DX2 analytically  !
 ! D90   D(15,14,31,45)        178.9342         calculate D2E/DX2 analytically  !
 ! D91   D(32,14,31,45)        108.7817         calculate D2E/DX2 analytically  !
 ! D92   D(2,16,17,18)           0.0            calculate D2E/DX2 analytically  !
 ! D93   D(2,16,17,22)         180.0            calculate D2E/DX2 analytically  !
 ! D94   D(19,16,17,18)        180.0            calculate D2E/DX2 analytically  !
 ! D95   D(19,16,17,22)          0.0            calculate D2E/DX2 analytically  !
 ! D96   D(2,16,19,20)         180.0            calculate D2E/DX2 analytically  !
 ! D97   D(2,16,19,23)           0.0            calculate D2E/DX2 analytically  !
 ! D98   D(17,16,19,20)          0.0            calculate D2E/DX2 analytically  !
 ! D99   D(17,16,19,23)        180.0            calculate D2E/DX2 analytically  !
 ! D100  D(16,17,18,10)          0.0            calculate D2E/DX2 analytically  !
 ! D101  D(16,17,18,38)        180.0            calculate D2E/DX2 analytically  !
 ! D102  D(22,17,18,10)        180.0            calculate D2E/DX2 analytically  !
 ! D103  D(22,17,18,38)          0.0            calculate D2E/DX2 analytically  !
 ! D104  D(16,17,22,21)          0.0            calculate D2E/DX2 analytically  !
 ! D105  D(16,17,22,39)        180.0            calculate D2E/DX2 analytically  !
 ! D106  D(18,17,22,21)        180.0            calculate D2E/DX2 analytically  !
 ! D107  D(18,17,22,39)          0.0            calculate D2E/DX2 analytically  !
 ! D108  D(16,19,20,21)          0.0            calculate D2E/DX2 analytically  !
 ! D109  D(16,19,20,26)        180.0            calculate D2E/DX2 analytically  !
 ! D110  D(23,19,20,21)        180.0            calculate D2E/DX2 analytically  !
 ! D111  D(23,19,20,26)          0.0            calculate D2E/DX2 analytically  !
 ! D112  D(16,19,23,24)        180.0            calculate D2E/DX2 analytically  !
 ! D113  D(16,19,23,30)          0.0            calculate D2E/DX2 analytically  !
 ! D114  D(20,19,23,24)          0.0            calculate D2E/DX2 analytically  !
 ! D115  D(20,19,23,30)        180.0            calculate D2E/DX2 analytically  !
 ! D116  D(19,20,21,22)          0.0            calculate D2E/DX2 analytically  !
 ! D117  D(19,20,21,40)        180.0            calculate D2E/DX2 analytically  !
 ! D118  D(26,20,21,22)        180.0            calculate D2E/DX2 analytically  !
 ! D119  D(26,20,21,40)          0.0            calculate D2E/DX2 analytically  !
 ! D120  D(19,20,26,25)          0.0            calculate D2E/DX2 analytically  !
 ! D121  D(19,20,26,41)        180.0            calculate D2E/DX2 analytically  !
 ! D122  D(21,20,26,25)        180.0            calculate D2E/DX2 analytically  !
 ! D123  D(21,20,26,41)          0.0            calculate D2E/DX2 analytically  !
 ! D124  D(20,21,22,17)          0.0            calculate D2E/DX2 analytically  !
 ! D125  D(20,21,22,39)        180.0            calculate D2E/DX2 analytically  !
 ! D126  D(40,21,22,17)        180.0            calculate D2E/DX2 analytically  !
 ! D127  D(40,21,22,39)          0.0            calculate D2E/DX2 analytically  !
 ! D128  D(19,23,24,25)          0.0            calculate D2E/DX2 analytically  !
 ! D129  D(19,23,24,27)        180.0            calculate D2E/DX2 analytically  !
 ! D130  D(30,23,24,25)        180.0            calculate D2E/DX2 analytically  !
 ! D131  D(30,23,24,27)          0.0            calculate D2E/DX2 analytically  !
 ! D132  D(19,23,30,13)          0.0            calculate D2E/DX2 analytically  !
 ! D133  D(19,23,30,29)        180.0            calculate D2E/DX2 analytically  !
 ! D134  D(24,23,30,13)        180.0            calculate D2E/DX2 analytically  !
 ! D135  D(24,23,30,29)          0.0            calculate D2E/DX2 analytically  !
 ! D136  D(23,24,25,26)          0.0            calculate D2E/DX2 analytically  !
 ! D137  D(23,24,25,42)        180.0            calculate D2E/DX2 analytically  !
 ! D138  D(27,24,25,26)        180.0            calculate D2E/DX2 analytically  !
 ! D139  D(27,24,25,42)          0.0            calculate D2E/DX2 analytically  !
 ! D140  D(23,24,27,28)          0.0            calculate D2E/DX2 analytically  !
 ! D141  D(23,24,27,43)        180.0            calculate D2E/DX2 analytically  !
 ! D142  D(25,24,27,28)        180.0            calculate D2E/DX2 analytically  !
 ! D143  D(25,24,27,43)          0.0            calculate D2E/DX2 analytically  !
 ! D144  D(24,25,26,20)          0.0            calculate D2E/DX2 analytically  !
 ! D145  D(24,25,26,41)        180.0            calculate D2E/DX2 analytically  !
 ! D146  D(42,25,26,20)        180.0            calculate D2E/DX2 analytically  !
 ! D147  D(42,25,26,41)          0.0            calculate D2E/DX2 analytically  !
 ! D148  D(24,27,28,29)          0.0            calculate D2E/DX2 analytically  !
 ! D149  D(24,27,28,44)        180.0            calculate D2E/DX2 analytically  !
 ! D150  D(43,27,28,29)        180.0            calculate D2E/DX2 analytically  !
 ! D151  D(43,27,28,44)          0.0            calculate D2E/DX2 analytically  !
 ! D152  D(27,28,29,30)          0.0            calculate D2E/DX2 analytically  !
 ! D153  D(27,28,29,45)       -119.4075         calculate D2E/DX2 analytically  !
 ! D154  D(27,28,29,46)        170.9923         calculate D2E/DX2 analytically  !
 ! D155  D(44,28,29,30)        180.0            calculate D2E/DX2 analytically  !
 ! D156  D(44,28,29,45)         60.5925         calculate D2E/DX2 analytically  !
 ! D157  D(44,28,29,46)         -9.0077         calculate D2E/DX2 analytically  !
 ! D158  D(28,29,30,13)        180.0            calculate D2E/DX2 analytically  !
 ! D159  D(28,29,30,23)          0.0            calculate D2E/DX2 analytically  !
 ! D160  D(45,29,30,13)        -44.6994         calculate D2E/DX2 analytically  !
 ! D161  D(45,29,30,23)        135.3006         calculate D2E/DX2 analytically  !
 ! D162  D(46,29,30,13)         16.5537         calculate D2E/DX2 analytically  !
 ! D163  D(46,29,30,23)       -163.4463         calculate D2E/DX2 analytically  !
 ! D164  D(28,29,45,31)       -174.3433         calculate D2E/DX2 analytically  !
 ! D165  D(30,29,45,31)         55.7564         calculate D2E/DX2 analytically  !
 ! D166  D(46,29,45,31)        -93.7735         calculate D2E/DX2 analytically  !
 ! D167  D(14,31,45,29)          1.145          calculate D2E/DX2 analytically  !
 --------------------------------------------------------------------------------
 Trust Radius=3.00D-01 FncErr=1.00D-07 GrdErr=1.00D-06 EigMax=2.50D+02 EigMin=1.00D-04
 Number of steps in this run=    276 maximum allowed number of steps=    276.
 Search for a saddle point of order  1.
 GradGradGradGradGradGradGradGradGradGradGradGradGradGradGradGradGradGrad

                          Input orientation:                          
 ---------------------------------------------------------------------
 Center     Atomic      Atomic             Coordinates (Angstroms)
 Number     Number       Type             X           Y           Z
 ---------------------------------------------------------------------
      1          6           0       -0.702900   -0.881600    0.000000
      2          6           0       -0.560500    0.575800    0.000000
      3          6           0       -1.863900    1.093100    0.000000
      4          6           0       -2.056500   -1.162800    0.000000
      5          6           0       -2.777200    0.039200    0.000000
      6          6           0       -2.715400   -2.422900    0.000000
      7          6           0       -4.183900   -2.312800    0.000000
      8          6           0       -4.848200   -1.111600    0.000000
      9          6           0       -4.142300    0.175000    0.000000
     10          6           0       -2.267400    2.424400    0.000000
     11          6           0       -3.696000    2.613900    0.000000
     12          6           0       -4.588800    1.541000    0.000000
     13          6           0        0.253800   -1.902300    0.000000
     14          6           0       -0.365400   -3.327200    0.000000
     15          6           0       -1.879800   -3.496600    0.000000
     16          6           0        0.527200    1.429000    0.000000
     17          6           0        0.154900    2.854200    0.000000
     18          6           0       -1.177000    3.320000    0.000000
     19          6           0        1.921200    0.973400    0.000000
     20          6           0        2.881600    2.040300    0.000000
     21          6           0        2.494000    3.425700    0.000000
     22          6           0        1.205400    3.824000    0.000000
     23          6           0        2.400500   -0.424600    0.000000
     24          6           0        3.830100   -0.585000    0.000000
     25          6           0        4.714000    0.503400    0.000000
     26          6           0        4.260200    1.791600    0.000000
     27          6           0        4.501700   -1.878400    0.000000
     28          6           0        3.846300   -3.033600    0.000000
     29          6           0        2.368600   -3.042700    0.000000
     30          6           0        1.631300   -1.704800    0.000000
     31          1           0        0.572260   -3.695950    0.987140
     32          1           0       -0.455520   -4.498570   -0.149010
     33          1           0       -2.244700   -4.519300    0.000000
     34          1           0       -4.767800   -3.227700    0.000000
     35          1           0       -5.933800   -1.121200    0.000000
     36          1           0       -5.652200    1.759700    0.000000
     37          1           0       -4.099500    3.621100    0.000000
     38          1           0       -1.333100    4.394200    0.000000
     39          1           0        0.947600    4.877400    0.000000
     40          1           0        3.293000    4.158900    0.000000
     41          1           0        4.950700    2.627200    0.000000
     42          1           0        5.779100    0.300800    0.000000
     43          1           0        5.586400   -1.859000    0.000000
     44          1           0        4.367900   -3.985100    0.000000
     45          1           0        1.570160   -3.583150    0.950110
     46          1           0        2.294060   -4.336000   -0.204940
 ---------------------------------------------------------------------
                    Distance matrix (angstroms):
                    1          2          3          4          5
     1  C    0.000000
     2  C    1.464340   0.000000
     3  C    2.290712   1.402302   0.000000
     4  C    1.382500   2.293632   2.264107   0.000000
     5  C    2.269492   2.280723   1.394569   1.401504   0.000000
     6  C    2.534909   3.692668   3.617638   1.421971   2.462875
     7  C    3.763734   4.633901   4.120990   2.418332   2.740567
     8  C    4.151676   4.607786   3.710357   2.792169   2.369258
     9  C    3.598038   3.604155   2.456423   2.477957   1.371838
    10  C    3.657499   2.516114   1.391105   3.593394   2.439073
    11  C    4.601866   3.739681   2.381055   4.117211   2.733729
    12  C    4.579215   4.142320   2.761466   3.704467   2.353146
    13  C    1.398965   2.608460   3.668389   2.425767   3.599498
    14  C    2.468778   3.907873   4.667393   2.746716   4.141187
    15  C    2.867633   4.280770   4.589728   2.340480   3.647905
    16  C    2.617636   1.382404   2.414578   3.659636   3.584774
    17  C    3.833017   2.388075   2.678997   4.585475   4.064657
    18  C    4.228264   2.812598   2.330432   4.568262   3.650245
    19  C    3.213553   2.513348   3.786992   4.515025   4.790375
    20  C    4.624515   3.740697   4.839107   5.885973   6.002201
    21  C    5.364047   4.177547   4.942906   6.462305   6.265296
    22  C    5.077822   3.697189   4.108335   5.958873   5.494162
    23  C    3.136868   3.125431   4.526425   4.517719   5.198431
    24  C    4.542693   4.541456   5.936131   5.914889   6.636719
    25  C    5.591156   5.274997   6.604280   6.972510   7.505569
    26  C    5.637230   4.971651   6.163806   6.973462   7.252303
    27  C    5.299195   5.625741   7.025004   6.597126   7.527255
    28  C    5.032527   5.696284   7.045285   6.192168   7.301565
    29  C    3.755591   4.655445   5.917677   4.807862   5.998113
    30  C    2.475106   3.163088   4.477127   3.727416   4.740929
    31  H    3.243616   4.528293   5.462996   3.781755   5.113186
    32  H    3.628481   5.077643   5.768233   3.703067   5.099388
    33  H    3.950950   5.366244   5.625304   3.361772   4.589497
    34  H    4.693357   5.671683   5.205953   3.408073   3.825588
    35  H    5.236385   5.634906   4.633272   3.877523   3.363131
    36  H    5.609994   5.227526   3.846501   4.633580   3.350484
    37  H    5.640142   4.668873   3.374714   5.201879   3.818178
    38  H    5.313306   3.895778   3.343503   5.603888   4.588186
    39  H    5.990846   4.558303   4.714388   6.746009   6.105925
    40  H    6.432251   5.261945   5.999396   7.545703   7.336161
    41  H    6.653936   5.880609   6.985144   7.966489   8.149735
    42  H    6.588960   6.345562   7.683957   7.971120   8.560298
    43  H    6.364794   6.611553   8.013855   7.674543   8.576303
    44  H    5.945143   6.714978   8.038871   7.017000   8.200454
    45  H    3.656212   4.768573   5.879013   4.462451   5.737915
    46  H    4.577843   5.684742   6.841473   5.388745   6.700899
                    6          7          8          9         10
     6  C    0.000000
     7  C    1.472622   0.000000
     8  C    2.503666   1.372653   0.000000
     9  C    2.963972   2.488148   1.467527   0.000000
    10  C    4.867959   5.110189   4.377651   2.928319   0.000000
    11  C    5.131367   4.950800   3.899604   2.479398   1.441114
    12  C    4.384305   3.875012   2.665253   1.437122   2.483806
    13  C    3.014494   4.456646   5.162907   4.862188   5.007672
    14  C    2.517987   3.950943   5.000438   5.150765   6.057929
    15  C    1.360536   2.590417   3.807837   4.312720   5.933673
    16  C    5.035036   6.016272   5.945551   4.834950   2.966582
    17  C    6.007196   6.747079   6.384245   5.063995   2.460135
    18  C    5.945383   6.385130   5.754719   4.322503   1.411053
    19  C    5.747427   6.933351   7.083220   6.115838   4.432806
    20  C    7.158670   8.298841   8.347711   7.267360   5.163306
    21  C    7.832239   8.804813   8.631048   7.389691   4.865545
    22  C    7.375394   8.167305   7.810648   6.474032   3.744225
    23  C    5.492325   6.849790   7.281183   6.570217   5.468646
    24  C    6.798636   8.198139   8.694262   8.008543   6.799705
    25  C    7.984937   9.332931   9.697623   8.862387   7.240869
    26  C    8.149908   9.388766   9.559891   8.556600   6.558201
    27  C    7.237611   8.696456   9.381291   8.884548   8.020898
    28  C    6.590058   8.062485   8.904404   8.608882   8.195553
    29  C    5.121641   6.593027   7.470699   7.262604   7.168101
    30  C    4.405618   5.846898   6.506597   6.071911   5.678922
    31  H    3.661121   5.050605   6.085614   6.179464   6.818856
    32  H    3.072079   4.324420   5.548820   5.954562   7.157697
    33  H    2.148593   2.937540   4.288430   5.063333   6.943737
    34  H    2.204552   1.085348   2.117627   3.459714   6.180472
    35  H    3.471674   2.117088   1.085642   2.211246   5.100369
    36  H    5.110669   4.329106   2.981741   2.188852   3.449449
    37  H    6.200457   5.934500   4.791555   3.446366   2.188306
    38  H    6.955832   7.287723   6.532210   5.068851   2.180144
    39  H    8.167738   8.833531   8.334232   6.929621   4.043938
    40  H    8.911844   9.888728   9.698315   8.435351   5.824649
    41  H    9.180011  10.384821  10.487949   9.417852   7.220948
    42  H    8.920486  10.300110  10.720745   9.922198   8.322009
    43  H    8.320929   9.780833  10.461333   9.939052   8.945931
    44  H    7.253524   8.713775   9.653678   9.472589   9.225448
    45  H    4.540365   5.968727   6.943098   6.903521   7.191678
    46  H    5.366250   6.789647   7.839045   7.862433   8.157936
                   11         12         13         14         15
    11  C    0.000000
    12  C    1.395782   0.000000
    13  C    5.999749   5.941977   0.000000
    14  C    6.810989   6.444880   1.553624   0.000000
    15  C    6.374699   5.719798   2.663464   1.523845   0.000000
    16  C    4.386275   5.117226   3.342500   4.839233   5.482261
    17  C    3.858390   4.922112   4.757528   6.203259   6.668783
    18  C    2.616092   3.847755   5.414758   6.696563   6.852734
    19  C    5.851852   6.534697   3.324135   4.870698   5.867581
    20  C    6.602563   7.487067   4.738083   6.273202   7.302615
    21  C    6.243006   7.329267   5.779799   7.333337   8.188307
    22  C    5.048570   6.227748   5.804830   7.321685   7.944158
    23  C    6.811739   7.260434   2.606131   4.009400   5.268601
    24  C    8.177722   8.683188   3.811194   5.012173   6.409397
    25  C    8.670773   9.360486   5.067620   6.361902   7.712211
    26  C    7.998581   8.852548   5.449416   6.899151   8.103373
    27  C    9.347890   9.712337   4.247967   5.078158   6.583473
    28  C    9.422343   9.595722   3.766417   4.221921   5.744788
    29  C    8.293160   8.331610   2.402684   2.748763   4.272579
    30  C    6.857937   7.016043   1.391586   2.572740   3.941874
    31  H    7.681582   7.418668   2.071966   1.410542   2.650808
    32  H    7.817298   7.320015   2.695544   1.184244   1.747776
    33  H    7.279342   6.497849   3.618175   2.225505   1.085849
    34  H    5.939112   4.772058   5.193568   4.403524   2.900492
    35  H    4.354161   2.982672   6.236707   5.989450   4.698664
    36  H    2.134567   1.085656   6.949178   7.336675   6.469907
    37  H    1.085018   2.136874   7.032721   7.888116   7.455784
    38  H    2.958507   4.329011   6.493394   7.781803   7.909716
    39  H    5.165893   6.464000   6.815108   8.308997   8.838443
    40  H    7.157733   8.305189   6.780478   8.332202   9.239293
    41  H    8.646710   9.601140   6.525124   7.982218   9.173694
    42  H    9.753356  10.441812   5.948327   7.135633   8.548625
    43  H   10.303872  10.728220   5.332776   6.130215   7.643682
    44  H   10.419850  10.524270   4.611277   4.778803   6.266769
    45  H    8.187709   8.067987   2.336829   2.171316   3.579445
    46  H    9.177360   9.052894   3.182382   2.851737   4.262359
                   16         17         18         19         20
    16  C    0.000000
    17  C    1.473025   0.000000
    18  C    2.545620   1.411002   0.000000
    19  C    1.466563   2.580160   3.886563   0.000000
    20  C    2.432465   2.845580   4.255569   1.435494   0.000000
    21  C    2.802697   2.407904   3.672521   2.518308   1.438599
    22  C    2.489173   1.429707   2.435127   2.939097   2.447699
    23  C    2.635353   3.974072   5.178855   1.477881   2.511412
    24  C    3.868507   5.033408   6.349809   2.464246   2.791389
    25  C    4.287893   5.129489   6.529710   2.832072   2.391600
    26  C    3.750569   4.240590   5.647933   2.477977   1.400853
    27  C    5.170643   6.425899   7.698766   3.846004   4.240393
    28  C    5.561585   6.949289   8.099492   4.445454   5.164795
    29  C    4.835996   6.298722   7.283902   4.040944   5.108822
    30  C    3.322610   4.792102   5.756315   2.693844   3.948294
    31  H    5.219347   6.637251   7.297802   4.959528   6.261953
    32  H    6.010327   7.379569   7.853202   5.967701   7.342710
    33  H    6.562446   7.754133   7.911675   6.893800   8.325101
    34  H    7.051374   7.824480   7.467678   7.898858   9.287903
    35  H    6.946081   7.271594   6.507796   8.129476   9.365167
    36  H    6.188243   5.909344   4.739404   7.614109   8.538412
    37  H    5.119732   4.322968   2.937970   6.577168   7.157841
    38  H    3.500447   2.141435   1.085483   4.721477   4.827478
    39  H    3.473931   2.172950   2.634278   4.023570   3.433583
    40  H    3.886130   3.398516   4.548038   3.468320   2.158174
    41  H    4.582907   4.801169   6.166740   3.451510   2.150727
    42  H    5.371712   6.176688   7.583066   3.916093   3.379551
    43  H    6.033776   7.191345   8.518546   4.632082   4.745575
    44  H    6.638031   8.032770   9.171172   5.529291   6.206008
    45  H    5.206930   6.659215   7.490199   4.667771   5.851989
    46  H    6.033160   7.504464   8.408602   5.326420   6.406591
                   21         22         23         24         25
    21  C    0.000000
    22  C    1.348752   0.000000
    23  C    3.851435   4.413487   0.000000
    24  C    4.227396   5.131114   1.438570   0.000000
    25  C    3.669910   4.830803   2.492683   1.402103   0.000000
    26  C    2.406189   3.669122   2.893100   2.415205   1.365794
    27  C    5.671361   6.586574   2.555108   1.457371   2.391243
    28  C    6.599339   7.348539   2.982821   2.448654   3.641878
    29  C    6.469615   6.964525   2.618294   2.859418   4.251556
    30  C    5.202526   5.545180   1.493513   2.467524   3.791990
    31  H    7.442139   7.610845   3.875389   4.611505   5.980217
    32  H    8.456709   8.487993   4.977578   5.805581   7.194848
    33  H    9.250854   9.028502   6.192290   7.237535   8.582017
    34  H    9.848932   9.241515   7.696876   8.994873  10.189487
    35  H    9.576122   8.684652   8.363361   9.778612  10.771025
    36  H    8.314814   7.161565   8.343689   9.767888  10.442049
    37  H    6.596395   5.308779   7.656219   8.976070   9.348681
    38  H    3.947745   2.601751   6.095950   7.172940   7.190671
    39  H    2.121034   1.084487   5.497465   6.176295   5.772144
    40  H    1.084428   2.114292   4.669585   4.774208   3.921979
    41  H    2.583211   3.931870   3.977060   3.402054   2.136950
    42  H    4.533970   5.773359   3.455596   2.140851   1.084198
    43  H    6.122989   7.175629   3.493918   2.169716   2.518336
    44  H    7.644047   8.425168   4.067902   3.442370   4.501824
    45  H    7.133034   7.476739   3.401266   3.872847   5.242741
    46  H    7.766979   8.234852   3.918211   4.058500   5.414601
                   26         27         28         29         30
    26  C    0.000000
    27  C    3.677937   0.000000
    28  C    4.842919   1.328170   0.000000
    29  C    5.191205   2.430167   1.477728   0.000000
    30  C    4.374463   2.875645   2.583009   1.527608   0.000000
    31  H    6.684950   4.440544   3.483173   2.151283   2.461847
    32  H    7.862980   5.609057   4.546867   3.180788   3.490297
    33  H    9.063177   7.244879   6.269576   4.843850   4.790072
    34  H   10.329480   9.367190   8.616287   7.138798   6.577819
    35  H   10.601983  10.462935   9.965321   8.521855   7.587577
    36  H    9.912451  10.785984  10.639419   9.348598   8.065490
    37  H    8.557550  10.209072  10.364399   9.286687   7.823508
    38  H    6.169160   8.566820   9.055297   8.307230   6.781259
    39  H    4.527193   7.633640   8.425342   8.046566   6.617613
    40  H    2.557261   6.157105   7.213751   7.260686   6.094606
    41  H    1.083982   4.527917   5.767526   6.230169   5.457531
    42  H    2.128272   2.525998   3.854081   4.776034   4.607242
    43  H    3.884030   1.084873   2.099436   3.428612   3.958105
    44  H    5.777704   2.110945   1.085089   2.210276   3.562127
    45  H    6.084978   3.521762   2.526960   1.353625   2.105860
    46  H    6.438570   3.309905   2.036589   1.311557   2.721115
                   31         32         33         34         35
    31  H    0.000000
    32  H    1.729557   0.000000
    33  H    3.096387   1.795494   0.000000
    34  H    5.450683   4.498119   2.834478   0.000000
    35  H    7.066300   6.437421   5.015630   2.407675   0.000000
    36  H    8.335614   8.135947   7.144011   5.065207   2.894630
    37  H    8.737220   8.901114   8.349036   6.881329   5.084689
    38  H    8.369909   8.937209   8.959994   8.360055   7.182345
    39  H    8.638151   9.481549   9.924150   9.917583   9.128903
    40  H    8.371113   9.435327  10.294527  10.933360  10.630771
    41  H    7.754186   8.945726  10.141314  11.345885  11.511857
    42  H    6.637743   7.869348   9.360274  11.121484  11.798903
    43  H    5.430509   6.595023   8.270630  10.444271  11.543802
    44  H    3.932548   4.852962   6.634143   9.167043  10.692378
    45  H    1.004938   2.479806   4.041317   6.418628   7.954453
    46  H    2.189821   2.754950   4.547081   7.151237   8.835984
                   36         37         38         39         40
    36  H    0.000000
    37  H    2.423982   0.000000
    38  H    5.059171   2.872395   0.000000
    39  H    7.299138   5.201106   2.331325   0.000000
    40  H    9.261359   7.412037   4.632080   2.452987   0.000000
    41  H   10.638329   9.104612   6.527513   4.592190   2.257006
    42  H   11.524019  10.421666   8.206053   6.654973   4.589731
    43  H   11.806825  11.128709   9.326414   8.179092   6.440093
    44  H   11.550114  11.382053  10.134795   9.499598   8.214630
    45  H    9.033894   9.216777   8.542233   8.536463   7.988130
    46  H   10.017116  10.209557   9.455934   9.313522   8.555887
                   41         42         43         44         45
    41  H    0.000000
    42  H    2.469491   0.000000
    43  H    4.531016   2.168379   0.000000
    44  H    6.637934   4.512253   2.450519   0.000000
    45  H    7.134368   5.805424   4.472760   2.981882   0.000000
    46  H    7.455595   5.804086   4.125171   2.113278   1.557227
                   46
    46  H    0.000000
 Stoichiometry    C30H16
 Framework group  C1[X(C30H16)]
 Deg. of freedom   132
 Full point group                 C1      NOp   1
 Largest Abelian subgroup         C1      NOp   1
 Largest concise Abelian subgroup C1      NOp   1
                         Standard orientation:                         
 ---------------------------------------------------------------------
 Center     Atomic      Atomic             Coordinates (Angstroms)
 Number     Number       Type             X           Y           Z
 ---------------------------------------------------------------------
      1          6           0       -0.701415   -0.876776   -0.012048
      2          6           0       -0.560378    0.580737   -0.004474
      3          6           0       -1.864261    1.096804   -0.000503
      4          6           0       -2.054751   -1.159245   -0.012253
      5          6           0       -2.776574    0.042060   -0.005213
      6          6           0       -2.712472   -2.419946   -0.018295
      7          6           0       -4.181073   -2.311228   -0.016322
      8          6           0       -4.846496   -1.110670   -0.009339
      9          6           0       -4.141800    0.176575   -0.003202
     10          6           0       -2.269005    2.427705    0.006921
     11          6           0       -3.697781    2.615859    0.009275
     12          6           0       -4.589577    1.542136    0.004446
     13          6           0        0.256239   -1.896562   -0.018352
     14          6           0       -0.361628   -3.322023   -0.025303
     15          6           0       -1.875868   -3.492845   -0.024765
     16          6           0        0.526523    1.434947   -0.000990
     17          6           0        0.152891    2.859777    0.006901
     18          6           0       -1.179444    3.324318    0.010625
     19          6           0        1.920948    0.980665   -0.004720
     20          6           0        2.880349    2.048452    0.000014
     21          6           0        2.491454    3.433468    0.007709
     22          6           0        1.202483    3.830550    0.011036
     23          6           0        2.401555   -0.416865   -0.012569
     24          6           0        3.831304   -0.575918   -0.014770
     25          6           0        4.714185    0.513297   -0.009850
     26          6           0        4.259181    1.801052   -0.002607
     27          6           0        4.504113   -1.868668   -0.022248
     28          6           0        3.849793   -3.024468   -0.027737
     29          6           0        2.372103   -3.034957   -0.026387
     30          6           0        1.633553   -1.697769   -0.018612
     31          1           0        0.577315   -3.695107    0.958985
     32          1           0       -0.450794   -4.492673   -0.180421
     33          1           0       -2.239812   -4.515873   -0.029829
     34          1           0       -4.764117   -3.226664   -0.020609
     35          1           0       -5.932086   -1.121291   -0.008362
     36          1           0       -5.653181    1.759833    0.006609
     37          1           0       -4.102223    3.622666    0.014985
     38          1           0       -1.336548    4.398355    0.016455
     39          1           0        0.943698    4.883693    0.016852
     40          1           0        3.289768    4.167408    0.010831
     41          1           0        4.948899    2.637289    0.001159
     42          1           0        5.779473    0.311701   -0.011930
     43          1           0        5.588793   -1.848249   -0.023172
     44          1           0        4.372283   -3.975464   -0.033264
     45          1           0        1.575074   -3.581175    0.921607
     46          1           0        2.298578   -4.327224   -0.238094
 ---------------------------------------------------------------------
 Rotational constants (GHZ):           0.2687660           0.1552313           0.0984730
 Standard basis: 6-311+G(d,p) (5D, 7F)
 There are   786 symmetry adapted cartesian basis functions of A   symmetry.
 There are   756 symmetry adapted basis functions of A   symmetry.
   756 basis functions,  1208 primitive gaussians,   786 cartesian basis functions
    98 alpha electrons       98 beta electrons
       nuclear repulsion energy      2607.5528687719 Hartrees.
 NAtoms=   46 NActive=   46 NUniq=   46 SFac= 1.00D+00 NAtFMM=   60 NAOKFM=F Big=F
 Integral buffers will be    131072 words long.
 Raffenetti 2 integral format.
 Two-electron integral symmetry is turned on.
 One-electron integrals computed using PRISM.
 NBasis=   756 RedAO= T EigKep=  1.02D-06  NBF=   756
 NBsUse=   731 1.00D-06 EigRej=  8.43D-07 NBFU=   731
 ExpMin= 4.38D-02 ExpMax= 4.56D+03 ExpMxC= 6.82D+02 IAcc=2 IRadAn=         4 AccDes= 0.00D+00
 Harris functional with IExCor=  402 and IRadAn=       4 diagonalized for initial guess.
 HarFok:  IExCor=  402 AccDes= 0.00D+00 IRadAn=         4 IDoV= 1 UseB2=F ITyADJ=14
 ICtDFT=  3500011 ScaDFX=  1.000000  1.000000  1.000000  1.000000
 FoFCou: FMM=F IPFlag=           0 FMFlag=      100000 FMFlg1=           0
         NFxFlg=           0 DoJE=T BraDBF=F KetDBF=T FulRan=T
         wScrn=  0.000000 ICntrl=       500 IOpCl=  0 I1Cent=   200000004 NGrid=           0
         NMat0=    1 NMatS0=      1 NMatT0=    0 NMatD0=    1 NMtDS0=    0 NMtDT0=    0
 Petite list used in FoFCou.
 Requested convergence on RMS density matrix=1.00D-08 within 128 cycles.
 Requested convergence on MAX density matrix=1.00D-06.
 Requested convergence on             energy=1.00D-06.
 No special actions if energy rises.
 SCF Done:  E(RB3LYP) =  -1152.87778435     A.U. after   17 cycles
            NFock= 17  Conv=0.94D-08     -V/T= 2.0049
 DoSCS=F DFT=T ScalE2(SS,OS)=  1.000000  1.000000
 Range of M.O.s used for correlation:     1   731
 NBasis=   756 NAE=    98 NBE=    98 NFC=     0 NFV=     0
 NROrb=    731 NOA=    98 NOB=    98 NVA=   633 NVB=   633

 **** Warning!!: The largest alpha MO coefficient is  0.12353982D+03


 **** Warning!!: The smallest alpha delta epsilon is  0.92377846D-01

 Symmetrizing basis deriv contribution to polar:
 IMax=3 JMax=2 DiffMx= 0.00D+00
 G2DrvN: will do    47 centers at a time, making    1 passes.
 Calling FoFCou, ICntrl=  3107 FMM=F I1Cent=   0 AccDes= 0.00D+00.
 End of G2Drv F.D. properties file   721 does not exist.
 End of G2Drv F.D. properties file   722 does not exist.
 End of G2Drv F.D. properties file   788 does not exist.
          IDoAtm=1111111111111111111111111111111111111111111111
          Differentiating once with respect to nuclear coordinates.
 CalDSu exits because no D1Ps are significant.
          There are   141 degrees of freedom in the 1st order CPHF.  IDoFFX=6 NUNeed=     0.
    135 vectors produced by pass  0 Test12= 6.20D-14 1.00D-09 XBig12= 2.84D-01 1.37D-01.
 AX will form   135 AO Fock derivatives at one time.
    135 vectors produced by pass  1 Test12= 6.20D-14 1.00D-09 XBig12= 1.00D-01 5.82D-02.
    135 vectors produced by pass  2 Test12= 6.20D-14 1.00D-09 XBig12= 1.07D-03 5.21D-03.
    135 vectors produced by pass  3 Test12= 6.20D-14 1.00D-09 XBig12= 8.17D-06 2.79D-04.
    135 vectors produced by pass  4 Test12= 6.20D-14 1.00D-09 XBig12= 2.49D-08 1.31D-05.
    135 vectors produced by pass  5 Test12= 6.20D-14 1.00D-09 XBig12= 9.83D-11 5.62D-07.
    106 vectors produced by pass  6 Test12= 6.20D-14 1.00D-09 XBig12= 1.94D-11 2.97D-07.
     75 vectors produced by pass  7 Test12= 6.20D-14 1.00D-09 XBig12= 2.36D-12 7.94D-08.
     27 vectors produced by pass  8 Test12= 6.20D-14 1.00D-09 XBig12= 5.39D-14 1.19D-08.
      1 vectors produced by pass  9 Test12= 6.20D-14 1.00D-09 XBig12= 3.42D-16 1.65D-09.
 InvSVY:  IOpt=1 It=  1 EMax= 5.55D-16
 Solved reduced A of dimension  1019 with   141 vectors.
 End of Minotr F.D. properties file   721 does not exist.
 End of Minotr F.D. properties file   722 does not exist.
 End of Minotr F.D. properties file   788 does not exist.

 **********************************************************************

            Population analysis using the SCF Density.

 **********************************************************************

 Orbital symmetries:
       Occupied  (A) (A) (A) (A) (A) (A) (A) (A) (A) (A) (A) (A)
                 (A) (A) (A) (A) (A) (A) (A) (A) (A) (A) (A) (A)
                 (A) (A) (A) (A) (A) (A) (A) (A) (A) (A) (A) (A)
                 (A) (A) (A) (A) (A) (A) (A) (A) (A) (A) (A) (A)
                 (A) (A) (A) (A) (A) (A) (A) (A) (A) (A) (A) (A)
                 (A) (A) (A) (A) (A) (A) (A) (A) (A) (A) (A) (A)
                 (A) (A) (A) (A) (A) (A) (A) (A) (A) (A) (A) (A)
                 (A) (A) (A) (A) (A) (A) (A) (A) (A) (A) (A) (A)
                 (A) (A)
       Virtual   (A) (A) (A) (A) (A) (A) (A) (A) (A) (A) (A) (A)
                 (A) (A) (A) (A) (A) (A) (A) (A) (A) (A) (A) (A)
                 (A) (A) (A) (A) (A) (A) (A) (A) (A) (A) (A) (A)
                 (A) (A) (A) (A) (A) (A) (A) (A) (A) (A) (A) (A)
                 (A) (A) (A) (A) (A) (A) (A) (A) (A) (A) (A) (A)
                 (A) (A) (A) (A) (A) (A) (A) (A) (A) (A) (A) (A)
                 (A) (A) (A) (A) (A) (A) (A) (A) (A) (A) (A) (A)
                 (A) (A) (A) (A) (A) (A) (A) (A) (A) (A) (A) (A)
                 (A) (A) (A) (A) (A) (A) (A) (A) (A) (A) (A) (A)
                 (A) (A) (A) (A) (A) (A) (A) (A) (A) (A) (A) (A)
                 (A) (A) (A) (A) (A) (A) (A) (A) (A) (A) (A) (A)
                 (A) (A) (A) (A) (A) (A) (A) (A) (A) (A) (A) (A)
                 (A) (A) (A) (A) (A) (A) (A) (A) (A) (A) (A) (A)
                 (A) (A) (A) (A) (A) (A) (A) (A) (A) (A) (A) (A)
                 (A) (A) (A) (A) (A) (A) (A) (A) (A) (A) (A) (A)
                 (A) (A) (A) (A) (A) (A) (A) (A) (A) (A) (A) (A)
                 (A) (A) (A) (A) (A) (A) (A) (A) (A) (A) (A) (A)
                 (A) (A) (A) (A) (A) (A) (A) (A) (A) (A) (A) (A)
                 (A) (A) (A) (A) (A) (A) (A) (A) (A) (A) (A) (A)
                 (A) (A) (A) (A) (A) (A) (A) (A) (A) (A) (A) (A)
                 (A) (A) (A) (A) (A) (A) (A) (A) (A) (A) (A) (A)
                 (A) (A) (A) (A) (A) (A) (A) (A) (A) (A) (A) (A)
                 (A) (A) (A) (A) (A) (A) (A) (A) (A) (A) (A) (A)
                 (A) (A) (A) (A) (A) (A) (A) (A) (A) (A) (A) (A)
                 (A) (A) (A) (A) (A) (A) (A) (A) (A) (A) (A) (A)
                 (A) (A) (A) (A) (A) (A) (A) (A) (A) (A) (A) (A)
                 (A) (A) (A) (A) (A) (A) (A) (A) (A) (A) (A) (A)
                 (A) (A) (A) (A) (A) (A) (A) (A) (A) (A) (A) (A)
                 (A) (A) (A) (A) (A) (A) (A) (A) (A) (A) (A) (A)
                 (A) (A) (A) (A) (A) (A) (A) (A) (A) (A) (A) (A)
                 (A) (A) (A) (A) (A) (A) (A) (A) (A) (A) (A) (A)
                 (A) (A) (A) (A) (A) (A) (A) (A) (A) (A) (A) (A)
                 (A) (A) (A) (A) (A) (A) (A) (A) (A) (A) (A) (A)
                 (A) (A) (A) (A) (A) (A) (A) (A) (A) (A) (A) (A)
                 (A) (A) (A) (A) (A) (A) (A) (A) (A) (A) (A) (A)
                 (A) (A) (A) (A) (A) (A) (A) (A) (A) (A) (A) (A)
                 (A) (A) (A) (A) (A) (A) (A) (A) (A) (A) (A) (A)
                 (A) (A) (A) (A) (A) (A) (A) (A) (A) (A) (A) (A)
                 (A) (A) (A) (A) (A) (A) (A) (A) (A) (A) (A) (A)
                 (A) (A) (A) (A) (A) (A) (A) (A) (A) (A) (A) (A)
                 (A) (A) (A) (A) (A) (A) (A) (A) (A) (A) (A) (A)
                 (A) (A) (A) (A) (A) (A) (A) (A) (A) (A) (A) (A)
                 (A) (A) (A) (A) (A) (A) (A) (A) (A) (A) (A) (A)
                 (A) (A) (A) (A) (A) (A) (A) (A) (A) (A) (A) (A)
                 (A) (A) (A) (A) (A) (A) (A) (A) (A) (A) (A) (A)
                 (A) (A) (A) (A) (A) (A) (A) (A) (A) (A) (A) (A)
                 (A) (A) (A) (A) (A) (A) (A) (A) (A) (A) (A) (A)
                 (A) (A) (A) (A) (A) (A) (A) (A) (A) (A) (A) (A)
                 (A) (A) (A) (A) (A) (A) (A) (A) (A) (A) (A) (A)
                 (A) (A) (A) (A) (A) (A) (A) (A) (A) (A) (A) (A)
                 (A) (A) (A) (A) (A) (A) (A) (A) (A) (A) (A) (A)
                 (A) (A) (A) (A) (A) (A) (A) (A) (A) (A) (A) (A)
                 (A) (A) (A) (A) (A) (A) (A) (A) (A)
 The electronic state is 1-A.
 Alpha  occ. eigenvalues --  -10.23069 -10.22506 -10.22428 -10.21629 -10.21546
 Alpha  occ. eigenvalues --  -10.21209 -10.20814 -10.19939 -10.19726 -10.19492
 Alpha  occ. eigenvalues --  -10.19321 -10.19164 -10.19089 -10.19058 -10.18986
 Alpha  occ. eigenvalues --  -10.18964 -10.18939 -10.18934 -10.18857 -10.18774
 Alpha  occ. eigenvalues --  -10.18518 -10.18380 -10.18170 -10.18169 -10.18129
 Alpha  occ. eigenvalues --  -10.18063 -10.17963 -10.16512 -10.16367 -10.16323
 Alpha  occ. eigenvalues --   -0.92238  -0.89122  -0.87425  -0.85266  -0.84647
 Alpha  occ. eigenvalues --   -0.82633  -0.80862  -0.80278  -0.79108  -0.76528
 Alpha  occ. eigenvalues --   -0.75541  -0.74870  -0.73126  -0.71591  -0.70664
 Alpha  occ. eigenvalues --   -0.67080  -0.66767  -0.64049  -0.63711  -0.62281
 Alpha  occ. eigenvalues --   -0.60585  -0.59874  -0.58583  -0.57027  -0.55601
 Alpha  occ. eigenvalues --   -0.53583  -0.52386  -0.51585  -0.51276  -0.50279
 Alpha  occ. eigenvalues --   -0.49848  -0.47846  -0.47166  -0.45501  -0.45436
 Alpha  occ. eigenvalues --   -0.45198  -0.44803  -0.44470  -0.43733  -0.42863
 Alpha  occ. eigenvalues --   -0.42486  -0.42445  -0.41158  -0.40885  -0.40235
 Alpha  occ. eigenvalues --   -0.40130  -0.39427  -0.38505  -0.37432  -0.36721
 Alpha  occ. eigenvalues --   -0.36383  -0.35892  -0.35436  -0.34724  -0.34252
 Alpha  occ. eigenvalues --   -0.33769  -0.33258  -0.32847  -0.31714  -0.31218
 Alpha  occ. eigenvalues --   -0.29990  -0.27840  -0.26213  -0.26057  -0.24412
 Alpha  occ. eigenvalues --   -0.22260  -0.20451  -0.18746
 Alpha virt. eigenvalues --   -0.09508  -0.06898  -0.06143  -0.03559  -0.02684
 Alpha virt. eigenvalues --   -0.02275  -0.01316   0.00153   0.00454   0.01073
 Alpha virt. eigenvalues --    0.01195   0.01786   0.02063   0.02343   0.02584
 Alpha virt. eigenvalues --    0.02866   0.03573   0.03656   0.04192   0.04517
 Alpha virt. eigenvalues --    0.04819   0.05007   0.05308   0.05573   0.05790
 Alpha virt. eigenvalues --    0.06325   0.06505   0.07318   0.07546   0.08295
 Alpha virt. eigenvalues --    0.08324   0.08592   0.08683   0.08965   0.09270
 Alpha virt. eigenvalues --    0.09556   0.10162   0.10567   0.10790   0.11158
 Alpha virt. eigenvalues --    0.11479   0.11637   0.11978   0.12191   0.12454
 Alpha virt. eigenvalues --    0.12761   0.12838   0.13321   0.13447   0.13778
 Alpha virt. eigenvalues --    0.14535   0.14811   0.15310   0.15766   0.15883
 Alpha virt. eigenvalues --    0.16040   0.16171   0.16243   0.16297   0.16582
 Alpha virt. eigenvalues --    0.16658   0.16974   0.17144   0.17491   0.17980
 Alpha virt. eigenvalues --    0.18396   0.18689   0.18773   0.18835   0.19172
 Alpha virt. eigenvalues --    0.19309   0.19403   0.20200   0.20256   0.20407
 Alpha virt. eigenvalues --    0.20570   0.20849   0.20953   0.20996   0.21150
 Alpha virt. eigenvalues --    0.21490   0.21753   0.21848   0.21992   0.22045
 Alpha virt. eigenvalues --    0.22515   0.22655   0.22993   0.23296   0.23332
 Alpha virt. eigenvalues --    0.23441   0.23994   0.24103   0.24360   0.24757
 Alpha virt. eigenvalues --    0.24880   0.25502   0.25618   0.25690   0.26101
 Alpha virt. eigenvalues --    0.26316   0.26719   0.27008   0.27199   0.27376
 Alpha virt. eigenvalues --    0.28139   0.28213   0.28657   0.28921   0.29259
 Alpha virt. eigenvalues --    0.29524   0.29556   0.29739   0.30093   0.30268
 Alpha virt. eigenvalues --    0.30897   0.31266   0.31281   0.31620   0.32107
 Alpha virt. eigenvalues --    0.32432   0.32797   0.33345   0.33586   0.33940
 Alpha virt. eigenvalues --    0.34597   0.34758   0.34939   0.35070   0.35737
 Alpha virt. eigenvalues --    0.36510   0.36797   0.37181   0.37852   0.38321
 Alpha virt. eigenvalues --    0.38867   0.39700   0.40059   0.40883   0.41120
 Alpha virt. eigenvalues --    0.41517   0.42134   0.42390   0.43126   0.43753
 Alpha virt. eigenvalues --    0.44185   0.44457   0.44943   0.45321   0.45800
 Alpha virt. eigenvalues --    0.46016   0.46925   0.47455   0.47789   0.48817
 Alpha virt. eigenvalues --    0.48918   0.49602   0.50609   0.50982   0.51628
 Alpha virt. eigenvalues --    0.51889   0.52360   0.52812   0.53233   0.53765
 Alpha virt. eigenvalues --    0.54171   0.54348   0.54795   0.55134   0.55576
 Alpha virt. eigenvalues --    0.55850   0.56392   0.56899   0.57033   0.57246
 Alpha virt. eigenvalues --    0.57602   0.58178   0.58498   0.59087   0.59308
 Alpha virt. eigenvalues --    0.59463   0.59848   0.60036   0.60313   0.60708
 Alpha virt. eigenvalues --    0.60869   0.61233   0.61850   0.62045   0.62520
 Alpha virt. eigenvalues --    0.62931   0.63642   0.64243   0.64308   0.64450
 Alpha virt. eigenvalues --    0.64785   0.64947   0.65260   0.65736   0.65925
 Alpha virt. eigenvalues --    0.66275   0.66530   0.67085   0.67349   0.68059
 Alpha virt. eigenvalues --    0.68686   0.68848   0.69107   0.69323   0.69958
 Alpha virt. eigenvalues --    0.70970   0.71732   0.71777   0.71968   0.72555
 Alpha virt. eigenvalues --    0.72803   0.73342   0.73431   0.73679   0.74258
 Alpha virt. eigenvalues --    0.74388   0.74708   0.75063   0.75338   0.75843
 Alpha virt. eigenvalues --    0.76028   0.76423   0.76512   0.77728   0.78138
 Alpha virt. eigenvalues --    0.78634   0.79664   0.80471   0.81634   0.81897
 Alpha virt. eigenvalues --    0.82998   0.83917   0.85159   0.85829   0.86620
 Alpha virt. eigenvalues --    0.87275   0.88209   0.88644   0.88975   0.90557
 Alpha virt. eigenvalues --    0.90859   0.91113   0.91665   0.91884   0.92321
 Alpha virt. eigenvalues --    0.93125   0.93486   0.93884   0.94225   0.94447
 Alpha virt. eigenvalues --    0.95175   0.95681   0.95756   0.96199   0.96563
 Alpha virt. eigenvalues --    0.96708   0.96769   0.97307   0.97556   0.98012
 Alpha virt. eigenvalues --    0.98591   0.99107   0.99465   1.00083   1.00463
 Alpha virt. eigenvalues --    1.00745   1.00985   1.01114   1.01766   1.02364
 Alpha virt. eigenvalues --    1.02974   1.03210   1.03548   1.04346   1.04622
 Alpha virt. eigenvalues --    1.05555   1.05820   1.05991   1.06806   1.07241
 Alpha virt. eigenvalues --    1.08422   1.08694   1.09432   1.10154   1.10289
 Alpha virt. eigenvalues --    1.11344   1.13497   1.13970   1.14211   1.14466
 Alpha virt. eigenvalues --    1.14896   1.15414   1.15751   1.16138   1.16680
 Alpha virt. eigenvalues --    1.17464   1.17656   1.20317   1.21930   1.22288
 Alpha virt. eigenvalues --    1.23787   1.24588   1.29253   1.30432   1.31040
 Alpha virt. eigenvalues --    1.33618   1.34639   1.35684   1.36575   1.37574
 Alpha virt. eigenvalues --    1.37966   1.39200   1.39922   1.40422   1.40552
 Alpha virt. eigenvalues --    1.41530   1.42259   1.43002   1.44066   1.44685
 Alpha virt. eigenvalues --    1.46110   1.46944   1.46979   1.47358   1.47730
 Alpha virt. eigenvalues --    1.47999   1.48489   1.48546   1.49009   1.49259
 Alpha virt. eigenvalues --    1.49969   1.50251   1.50694   1.52294   1.53127
 Alpha virt. eigenvalues --    1.53561   1.54232   1.54987   1.55426   1.56908
 Alpha virt. eigenvalues --    1.57433   1.57711   1.58439   1.58642   1.59132
 Alpha virt. eigenvalues --    1.60132   1.60839   1.61362   1.62702   1.63102
 Alpha virt. eigenvalues --    1.63797   1.64204   1.65755   1.66512   1.68082
 Alpha virt. eigenvalues --    1.68276   1.68760   1.69857   1.70729   1.71264
 Alpha virt. eigenvalues --    1.71900   1.72239   1.73150   1.73547   1.73718
 Alpha virt. eigenvalues --    1.74665   1.75055   1.76345   1.77099   1.77570
 Alpha virt. eigenvalues --    1.79030   1.79421   1.80492   1.81129   1.81898
 Alpha virt. eigenvalues --    1.82940   1.83191   1.83502   1.84170   1.84524
 Alpha virt. eigenvalues --    1.84924   1.85447   1.85883   1.86814   1.87341
 Alpha virt. eigenvalues --    1.87388   1.88252   1.89069   1.89141   1.89617
 Alpha virt. eigenvalues --    1.90330   1.90545   1.91727   1.92688   1.93178
 Alpha virt. eigenvalues --    1.94161   1.94525   1.94782   1.95446   1.96831
 Alpha virt. eigenvalues --    1.97265   1.97548   1.97855   1.99927   2.00528
 Alpha virt. eigenvalues --    2.00759   2.00852   2.02228   2.02977   2.03676
 Alpha virt. eigenvalues --    2.04380   2.04844   2.06239   2.06303   2.06521
 Alpha virt. eigenvalues --    2.07624   2.08854   2.09146   2.09772   2.10767
 Alpha virt. eigenvalues --    2.11247   2.12388   2.12650   2.14040   2.15059
 Alpha virt. eigenvalues --    2.15620   2.16088   2.17517   2.18322   2.19113
 Alpha virt. eigenvalues --    2.20731   2.21105   2.21421   2.23695   2.24608
 Alpha virt. eigenvalues --    2.24997   2.25483   2.26155   2.27850   2.28619
 Alpha virt. eigenvalues --    2.30083   2.31109   2.32153   2.32433   2.34460
 Alpha virt. eigenvalues --    2.35462   2.36820   2.37989   2.38987   2.39730
 Alpha virt. eigenvalues --    2.41421   2.41704   2.43160   2.44408   2.45637
 Alpha virt. eigenvalues --    2.46907   2.47814   2.48131   2.49446   2.50257
 Alpha virt. eigenvalues --    2.53685   2.54977   2.56513   2.57159   2.58828
 Alpha virt. eigenvalues --    2.59401   2.60125   2.60226   2.61799   2.63635
 Alpha virt. eigenvalues --    2.63902   2.64757   2.65255   2.66465   2.66971
 Alpha virt. eigenvalues --    2.68011   2.68540   2.69355   2.70298   2.71485
 Alpha virt. eigenvalues --    2.71939   2.72651   2.72995   2.73783   2.74355
 Alpha virt. eigenvalues --    2.74466   2.74820   2.75397   2.75787   2.76268
 Alpha virt. eigenvalues --    2.76728   2.77592   2.77772   2.78374   2.79107
 Alpha virt. eigenvalues --    2.79486   2.80306   2.80680   2.82098   2.82994
 Alpha virt. eigenvalues --    2.83501   2.84321   2.84950   2.85286   2.86524
 Alpha virt. eigenvalues --    2.86985   2.87347   2.87463   2.88692   2.90053
 Alpha virt. eigenvalues --    2.90486   2.91716   2.92471   2.93544   2.96172
 Alpha virt. eigenvalues --    2.96900   2.98071   2.98729   3.00341   3.01475
 Alpha virt. eigenvalues --    3.02556   3.03520   3.04051   3.05053   3.06662
 Alpha virt. eigenvalues --    3.09129   3.10246   3.11601   3.12075   3.13131
 Alpha virt. eigenvalues --    3.13890   3.14136   3.15835   3.17897   3.20060
 Alpha virt. eigenvalues --    3.20937   3.22186   3.22805   3.26221   3.26408
 Alpha virt. eigenvalues --    3.27779   3.30828   3.32260   3.33515   3.35874
 Alpha virt. eigenvalues --    3.36505   3.37148   3.39325   3.40875   3.42708
 Alpha virt. eigenvalues --    3.44263   3.44497   3.45204   3.47052   3.47453
 Alpha virt. eigenvalues --    3.47967   3.50049   3.51705   3.52945   3.53702
 Alpha virt. eigenvalues --    3.56002   3.57607   3.58851   3.60441   3.62110
 Alpha virt. eigenvalues --    3.64178   3.64719   3.68415   3.69742   3.73441
 Alpha virt. eigenvalues --    3.74510   3.82423   3.84376   3.85242   3.92066
 Alpha virt. eigenvalues --    3.94563   4.01017   4.05623   4.06363   4.06847
 Alpha virt. eigenvalues --    4.09117   4.11372   4.13353   4.20992   4.24038
 Alpha virt. eigenvalues --    4.30350   4.33099   4.46192   4.56921   4.68570
 Alpha virt. eigenvalues --    4.73037   4.77536   4.78703   4.81937   4.82847
 Alpha virt. eigenvalues --    4.88792   4.92702   4.96672  23.35369  23.59170
 Alpha virt. eigenvalues --   23.63892  23.72938  23.75529  23.77784  23.80809
 Alpha virt. eigenvalues --   23.81852  23.83009  23.83866  23.86773  23.89485
 Alpha virt. eigenvalues --   23.90557  23.91363  23.96480  23.97975  23.99778
 Alpha virt. eigenvalues --   24.02743  24.06193  24.07704  24.10107  24.11080
 Alpha virt. eigenvalues --   24.13501  24.14740  24.17496  24.18920  24.21331
 Alpha virt. eigenvalues --   24.22706  24.24382  24.28973
          Condensed to atoms (all electrons):
               1          2          3          4          5          6
     1  C    7.721708  -0.461317  -0.196630  -0.380675  -0.317486  -0.082644
     2  C   -0.461317   8.010628  -0.220769   0.045205  -0.107953   0.635028
     3  C   -0.196630  -0.220769   7.251363   0.354936   0.150518   0.184794
     4  C   -0.380675   0.045205   0.354936   7.804813  -0.236238  -0.629505
     5  C   -0.317486  -0.107953   0.150518  -0.236238   6.993266   0.122042
     6  C   -0.082644   0.635028   0.184794  -0.629505   0.122042  11.113127
     7  C   -0.872472   0.006108  -0.708336  -0.996738   1.136589  -1.579791
     8  C   -0.581890   0.179521  -0.499356   0.236282  -0.496967  -1.297998
     9  C    0.325707   0.078304   0.243538   0.526125   0.475195   0.230497
    10  C   -0.482970   0.544237   0.311413   0.427618  -0.399678  -0.123331
    11  C    0.053685  -1.222802   0.358913  -0.851689   1.070632   0.024298
    12  C   -0.102291  -0.299566   0.239488  -0.481165  -0.608131   0.164249
    13  C   -0.445710   0.682921   0.097092  -0.587486   0.256429   1.571462
    14  C    0.328936  -1.119454   0.097991   0.993157  -0.870966  -2.725583
    15  C    0.152967  -0.401271  -0.077981  -0.337551  -0.261917  -0.491408
    16  C    0.657823  -0.144838  -0.010277   0.053013  -0.143661  -0.134614
    17  C   -0.260812   0.526995   0.049686  -0.221477  -0.122980   0.109189
    18  C    0.000637   0.050541   0.435087   0.013993  -0.250112   0.018497
    19  C    0.758822   0.045485  -0.187298  -0.124435  -0.248104   0.051584
    20  C   -0.882089   0.535656  -0.085084   0.238716   0.168228  -0.148646
    21  C    0.149488  -0.529946  -0.324792  -0.039471   0.002441   0.020507
    22  C    0.454814  -0.601327  -1.258202  -0.244050  -0.062522   0.035328
    23  C    0.489910   0.299912  -0.014771  -0.090980   0.076211  -0.120269
    24  C   -1.088271  -0.043941   0.144049   0.612566  -0.010937  -0.317326
    25  C   -0.117043   0.024139  -0.040141   0.064209  -0.009283  -0.040533
    26  C   -0.161853   0.119430  -0.139231   0.028730   0.008243  -0.027146
    27  C    0.153359   0.079003  -0.000970  -0.013049   0.003637  -0.076483
    28  C    0.079746  -0.075081  -0.026988  -0.063311  -0.019456  -0.178939
    29  C   -0.128882  -0.574150  -0.041591  -0.038364  -0.108214  -0.526187
    30  C    1.205189   0.060447  -0.187141  -0.087331  -0.230214  -0.162067
    31  H   -0.028101  -0.020160  -0.003680   0.017967  -0.007889  -0.048654
    32  H    0.088412  -0.015028   0.003968  -0.048949   0.005399  -0.049312
    33  H    0.008243   0.002812   0.004879   0.059773  -0.014409   0.008860
    34  H   -0.017322   0.002705   0.001579   0.025800   0.000113  -0.110040
    35  H   -0.001908   0.001898  -0.017760  -0.001719   0.035004  -0.030703
    36  H    0.006284  -0.002329   0.007219  -0.019709   0.036527   0.014911
    37  H    0.002602  -0.013972   0.015927  -0.001647  -0.005642   0.001527
[...]
 -0.01177983,-0.00136230,-0.00263721,0.00028791,-0.00303039,0.00078992,
 0.00034479,0.00048020,0.00004968,-0.32074498,0.00653741,-0.05632192,-0
 .01259124,0.00284638,-0.00312034,0.00124416,-0.00312024,-0.00243757,0.
 00046095,0.00005128,0.00028399,-0.00012793,-0.00001769,0.00000394,0.00
 001895,0.00005653,0.00004638,-0.00000755,-0.00000508,0.00000219,-0.000
 00359,-0.00000583,-0.00000092,-0.00000817,0.00000095,0.00000115,-0.000
 00756,0.00000191,-0.00000008,-0.00000116,0.00000565,-0.00000069,-0.000
 00683,0.00000910,0.00000349,0.00000039,0.00000570,-0.00000136,0.000005
 29,0.00002359,-0.00000507,-0.00002536,0.00006362,-0.00001453,0.0011265
 7,0.00022324,0.00004663,0.34122737,-0.00016997,0.00000408,0.00002006,-
 0.00003555,-0.00002151,-0.00001692,0.00000782,0.00003463,0.00000313,0.
 00012601,0.00004441,-0.00000211,-0.00004379,0.00001740,0.00000518,0.00
 001573,-0.00013261,-0.00002518,-0.00003138,0.00004500,0.00001054,-0.00
 002220,-0.00006050,0.00000284,0.00005441,0.00002041,-0.00000536,-0.000
 00284,0.00000779,0.00000312,-0.00000881,0.00001100,-0.00000077,0.00000
 653,0.00000891,-0.00000129,0.00018058,0.00012714,-0.00003113,0.0000441
 0,-0.00014887,0.00015867,-0.00016710,0.00014804,0.00000023,-0.00008864
 ,-0.00038819,0.00001495,0.00013571,-0.00003639,-0.00001207,-0.00002492
 ,-0.00004731,0.00000447,0.00135358,0.00025157,0.00006579,0.00014114,0.
 00004853,0.00000682,-0.00011003,0.00003722,-0.00001321,0.00003062,-0.0
 0000110,0.00000477,0.00057386,-0.00441543,0.00060194,0.02631538,0.0006
 3258,0.00535273,0.00299676,-0.00006005,0.00035915,-0.00039492,0.000128
 20,-0.00009158,0.00540552,-0.05705303,0.00188827,-0.02874241,0.0046760
 0,-0.00502045,-0.00172401,-0.00430691,-0.00093572,-0.00026169,-0.00066
 180,-0.00003004,-0.00021722,0.00006434,-0.00023981,0.00000886,0.000058
 42,0.00006768,-0.00000446,-0.00000507,0.00000388,-0.00000355,-0.000001
 58,0.00000022,-0.00000156,0.00000181,-0.00000102,-0.00000117,0.0000013
 2,0.00000010,-0.00000046,0.00000121,-0.00000020,0.00001383,-0.00000231
 ,-0.00000189,-0.00000525,0.00000190,0.00000018,0.00000430,-0.00002630,
 0.00000450,-0.00000208,-0.00000821,0.00002596,-0.00074112,-0.00098029,
 0.00001723,-0.00413774,0.06092669,-0.00000359,-0.00007145,-0.00001118,
 0.00001060,0.00000488,-0.00000820,-0.00000298,-0.00000597,0.00000133,0
 .00003819,-0.00004291,0.00001933,0.00000064,0.00001657,0.00000493,-0.0
 0009787,0.00000885,0.00000288,0.00004898,-0.00000009,0.00004753,-0.000
 02604,0.00001921,0.00000034,-0.00000995,-0.00003137,-0.00000425,0.0000
 1523,0.00002510,0.00000968,-0.00000073,-0.00000550,0.00000230,0.000004
 05,0.00001059,-0.00000283,-0.00001331,-0.00009351,-0.00052727,-0.00041
 356,0.00005519,0.00014658,0.00004724,0.00009268,-0.00022467,-0.0000160
 8,0.00009053,-0.00003494,-0.00001559,-0.00003152,0.00010576,-0.0000263
 4,0.00000900,-0.00002499,-0.00015901,-0.00011985,-0.00003301,-0.000020
 93,-0.00005012,0.00009430,0.00001231,0.00000063,0.00000951,0.00000002,
 -0.00000734,-0.00001986,-0.00056763,0.00048180,0.00365217,-0.00282712,
 -0.00055387,0.00206054,0.00004549,-0.00055146,-0.00220137,0.00025087,0
 .00004227,-0.00004970,-0.05557244,0.00286232,-0.04845984,-0.00445289,-
 0.00046133,0.00395355,-0.00127361,-0.00033334,0.00943566,0.00034819,0.
 00060880,-0.00036819,0.00006707,0.00006752,-0.00020343,0.00004358,-0.0
 0013700,0.00009141,-0.00000772,-0.00000938,-0.00000163,-0.00000452,-0.
 00000353,0.00000222,-0.00000266,0.00000212,-0.00000717,-0.00000255,0.0
 0000007,0.00000085,-0.00000099,0.00000301,0.00000126,-0.00000442,0.000
 00360,-0.00001746,-0.00000029,0.00000366,0.00000026,0.00000118,0.00000
 720,0.00001161,-0.00001885,0.00002549,0.00008131,0.00020456,0.00020139
 ,0.00035784,0.06274236,-0.00188429,0.03739022,-0.00043472,-0.00036735,
 -0.00001210,0.00004101,-0.00004693,0.00000013,-0.00002497,0.00005798,0
 .00000149,-0.00006103,0.00016586,0.00005023,-0.00002067,-0.00005535,0.
 00001216,-0.00003681,-0.00000211,-0.00003098,0.00005845,-0.00000410,-0
 .00000432,-0.00001794,0.00004207,0.00000464,-0.00003414,-0.00000171,-0
 .00000242,0.00000358,-0.00001376,-0.00000078,-0.00001019,0.00001842,0.
 00000098,0.00000576,-0.00000107,-0.00000281,-0.00049895,0.00181156,0.0
 0004293,0.00004624,0.00007330,0.00014334,0.00000595,-0.00005954,-0.000
 00859,-0.00001207,-0.00004124,-0.00000007,-0.00001010,0.00000538,-0.00
 000075,0.00000110,0.00001644,-0.00000075,0.00010135,0.00010356,0.00024
 224,-0.00007578,0.00003821,-0.00003448,0.00005175,0.00000206,-0.000020
 15,-0.00001960,-0.00003015,0.00000522,-0.00038980,-0.00048406,-0.00006
 066,-0.00108703,-0.00259748,-0.00214175,0.00050319,-0.00043214,0.00016
 990,-0.00011980,-0.00015100,0.00014094,0.01134747,-0.01672431,0.000679
 75,-0.11236884,0.11224847,-0.01178219,-0.00970423,0.02885260,-0.001521
 95,-0.00403087,-0.00268665,-0.00159300,-0.00033710,-0.00001088,-0.0000
 6999,0.00004382,-0.00001087,-0.00008478,-0.00003396,-0.00001306,0.0000
 1433,-0.00000959,-0.00000549,0.00000096,-0.00000537,0.00000245,-0.0000
 0031,-0.00000493,0.00000431,0.00000070,-0.00000158,0.00000344,0.000000
 12,-0.00000006,0.00000439,-0.00000247,0.00000138,0.00000390,0.00000036
 ,0.00000207,0.00000567,-0.00000043,0.00001909,-0.00007630,-0.00000107,
 -0.00002820,0.00000488,-0.00004050,0.00060659,0.00036410,0.00125805,0.
 11543630,0.00002517,0.00001952,0.00001454,-0.00000070,-0.00000082,0.00
 000980,0.00001085,-0.00001756,0.00000123,-0.00002158,-0.00003573,0.000
 00142,0.00000433,0.00000795,-0.00000128,-0.00001527,0.00007358,0.00001
 515,0.00000800,-0.00002093,-0.00000532,0.00000643,0.00001693,-0.000001
 05,0.00001414,-0.00002871,-0.00000384,0.00002761,0.00000725,-0.0000038
 9,-0.00002335,-0.00000837,0.00000330,0.00000535,0.00002777,-0.00000125
 ,-0.00008205,-0.00011851,-0.00000780,-0.00005549,0.00006026,-0.0001224
 8,0.00011165,-0.00004845,0.00001280,-0.00001392,-0.00002606,0.00000068
 ,0.00004935,0.00000568,0.00000105,-0.00002431,-0.00000245,0.00000009,0
 .00011644,0.00009626,0.00002411,-0.00012683,0.00006158,-0.00001282,0.0
 0003154,-0.00000485,-0.00000007,-0.00001763,-0.00001422,0.00000124,-0.
 00032389,0.00009174,-0.00000732,-0.00408999,-0.00134365,-0.00133312,0.
 00100383,-0.00079005,0.00031275,-0.00036514,-0.00034860,0.00003989,0.0
 1499718,-0.01975420,0.00222305,0.11040677,-0.27850469,0.01294559,-0.00
 191967,0.00296308,-0.00033465,-0.00060221,0.00148622,-0.00025239,0.000
 24690,-0.00001768,0.00011597,0.00001603,-0.00002350,-0.00002047,0.0000
 0958,0.00000810,-0.00000298,0.00000525,0.00000520,0.00000003,0.0000062
 5,-0.00000070,0.00000091,0.00000585,-0.00000084,-0.00000031,0.00000197
 ,-0.00000529,0.00000008,0.00000205,-0.00000644,-0.00000080,0.00000556,
 -0.00000721,-0.00000003,-0.00000525,0.00000085,-0.00000077,0.00004669,
 -0.00013336,0.00000264,-0.00005565,0.00000383,-0.00003429,-0.00028553,
 0.00094733,0.00017733,-0.11946811,0.29498293,-0.00003646,-0.00027076,0
 .00024360,-0.00002931,-0.00002464,-0.00002528,0.00001948,0.00000338,-0
 .00000549,-0.00012489,-0.00000559,-0.00001515,-0.00002042,-0.00003567,
 -0.00006276,-0.00016305,0.00022105,0.00015482,0.00014671,-0.00006433,-
 0.00000269,-0.00000600,0.00014385,-0.00001957,-0.00003457,-0.00011463,
 0.00001596,0.00008759,0.00005000,-0.00000870,-0.00008234,-0.00002426,0
 .00000557,0.00002175,0.00009071,0.00000847,-0.00037472,0.00058006,0.00
 004626,-0.00054154,0.00014904,-0.00083183,0.00038045,-0.00010613,-0.00
 006829,0.00007529,-0.00006871,-0.00000246,0.00010485,0.00007168,0.0000
 2068,-0.00010315,-0.00001074,0.00000649,0.00012869,0.00041856,-0.00091
 894,-0.00045957,0.00003202,0.00005497,0.00011305,-0.00011537,0.0000894
 4,-0.00015048,-0.00005256,-0.00001197,-0.00080078,-0.00109418,-0.00080
 421,-0.00168674,-0.00175771,0.00935113,0.00048340,0.00032603,0.0001489
 1,0.00038162,-0.00051084,-0.00055017,0.00283793,-0.00166112,0.00547651
 ,-0.01569853,0.01172618,-0.03899885,0.00145786,0.00513895,0.00141636,-
 0.00216593,0.00037263,0.00340764,0.00124697,0.00001704,0.00034139,-0.0
 0019032,-0.00002278,0.00013620,-0.00000896,-0.00000007,-0.00004861,-0.
 00000143,-0.00000315,-0.00000208,-0.00000234,0.00000279,0.00000003,-0.
 00000130,0.00000296,0.00000183,-0.00000066,0.00000070,0.00000174,0.000
 00069,0.00000054,0.00000796,-0.00000113,0.00000075,-0.00000115,0.00000
 079,0.00000195,-0.00000049,0.00001453,-0.00004040,0.00000820,-0.000041
 39,0.00002372,0.00014133,0.00130074,0.00021169,-0.00534625,0.01431645,
 -0.01409790,0.02636828,0.01059938,-0.00568762,-0.00021950,0.00069935,0
 .00026468,0.00025767,-0.00028483,0.00066844,0.00007773,-0.01103265,-0.
 00770898,0.00034508,-0.00000415,-0.00114857,-0.00011726,-0.00984521,0.
 01980453,0.00534324,0.00682623,-0.00292879,0.00015021,-0.00030538,0.00
 692552,-0.00027000,-0.00184214,-0.00615870,0.00024917,0.00305075,0.000
 05873,-0.00033953,-0.00343696,-0.00187156,0.00026170,0.00061602,0.0043
 4857,-0.00007818,-0.02814114,-0.00682608,-0.00135301,-0.06900278,0.030
 02009,-0.06432244,0.03267989,-0.00574999,-0.00474892,-0.00088781,0.000
 91696,-0.00006613,0.00155718,-0.00042819,-0.00008104,-0.00184558,-0.00
 034813,0.00010363,0.00079574,0.00197304,0.00010752,-0.00439461,-0.0001
 9945,-0.00070162,0.00081214,-0.00083482,0.00005269,-0.00111310,-0.0005
 0747,0.00004671,-0.00004992,-0.00021693,0.00267615,0.00116966,-0.01218
 040,0.00065473,0.00263386,0.00798715,-0.00028782,0.00398221,-0.0053242
 4,0.00101473,0.00189166,0.01921240,0.00338285,-0.03421265,-0.01395713,
 0.00311512,0.03227975,0.05253160,-0.05140020,0.02770971,-0.02426977,0.
 00618524,0.02862348,-0.01306626,0.03660318,0.00112073,-0.00226134,0.01
 157344,0.00018921,-0.00018790,-0.00131762,-0.00000710,-0.00010774,-0.0
 0001141,-0.00002335,0.00011593,-0.00009972,0.00002607,0.00004668,0.000
 00815,-0.00003231,-0.00000979,0.00003100,-0.00001541,-0.00000839,-0.00
 000117,-0.00000034,0.00000438,0.00000615,0.00001175,0.00000789,-0.0000
 0427,0.00008845,-0.00006156,0.00000835,-0.00005423,0.00005797,-0.00008
 453,0.00019883,0.00025191,-0.00064511,0.00041482,-0.00005549,-0.001660
 34,0.01495984,0.00169354,-0.00038330,0.00054980,0.00018392,-0.00040163
 ,0.00025243,-0.00040427,-0.00045655,0.00002704,-0.00121293,-0.00297259
 ,-0.00052600,-0.00038601,0.00112936,0.00012610,-0.00369470,0.00529507,
 0.00170904,0.00162270,-0.00095034,0.00003492,-0.00028433,0.00152630,-0
 .00002318,0.00005619,-0.00192781,0.00000516,0.00109994,0.00031754,-0.0
 0017976,-0.00077458,-0.00094901,0.00006243,-0.00013253,0.00142154,-0.0
 0003691,-0.00638198,-0.01019980,0.00555337,-0.01694747,0.00833504,-0.0
 1752898,0.00979843,-0.00044634,-0.00102196,-0.00038934,0.00059204,-0.0
 0002259,0.00069662,-0.00024870,0.00002846,-0.00090085,-0.00000497,0.00
 003054,0.00077714,0.00057760,-0.00005674,-0.00205114,-0.00022925,-0.00
 030917,0.00013764,-0.00051797,-0.00002487,-0.00044420,0.00002340,-0.00
 001320,0.00131470,-0.00053929,0.00159405,0.00010358,-0.00550026,0.0002
 3855,0.00088580,0.00383644,-0.00016767,0.00198513,-0.00230402,0.000502
 91,0.00126631,0.00801974,0.00157497,-0.01306040,-0.00344005,-0.0031178
 4,0.02327372,-0.00022111,-0.02200024,0.00879238,-0.02256871,0.01483708
 ,0.02254039,-0.01812976,0.00823621,-0.00077195,0.00066223,0.00280716,-
 0.00008105,-0.00010318,-0.00048381,0.00000289,-0.00000667,0.00001716,0
 .00003627,0.00002113,-0.00003146,0.00003759,-0.00002023,0.00000271,-0.
 00003161,-0.00000802,0.00004048,-0.00001431,-0.00002195,-0.00000850,-0
 .00001476,-0.00000270,0.00001439,0.00000132,0.00001311,0.00001297,0.00
 003914,-0.00000759,-0.00001325,-0.00002241,0.00001390,-0.00005244,0.00
 001078,0.00009878,-0.00008261,0.00007730,-0.00007617,-0.00049435,-0.02
 831251,0.03925271,-0.00506609,0.00157749,-0.00056419,-0.00016762,0.000
 09930,-0.00024780,0.00022432,0.00046719,-0.00002028,0.00312106,0.00404
 572,0.00012116,0.00001698,-0.00071043,0.00005862,0.00509455,-0.0071094
 4,-0.00151968,-0.00235351,0.00121642,-0.00013445,0.00043789,-0.0021892
 6,0.00000499,0.00042523,0.00247285,-0.00006626,-0.00123807,-0.00041655
 ,0.00018336,0.00082967,0.00111239,-0.00006845,0.00016935,-0.00157477,0
 .00002096,0.01040840,0.00768139,0.00105309,0.01755718,-0.00948343,0.01
 406839,-0.01314079,0.00085484,0.00283718,0.00032094,-0.00057711,-0.000
 03462,-0.00067429,0.00037337,0.00002608,0.00098024,-0.00000290,-0.0000
 4263,-0.00081177,-0.00095507,-0.00002924,0.00216583,0.00031234,0.00029
 362,-0.00019566,0.00046417,-0.00001833,0.00044367,0.00005869,0.0000055
 0,0.00008467,0.00060055,-0.00193798,-0.00078964,0.00574029,-0.00039035
 ,-0.00098064,-0.00395546,0.00017040,-0.00228120,0.00231054,-0.00044490
 ,-0.00141495,-0.00936990,-0.00159988,0.01180660,0.00148197,0.00634867,
 -0.02331571,-0.02073605,0.00050171,-0.01327923,0.01358308,-0.00432742,
 -0.03290325,-0.00032870,-0.02417834,-0.00186029,0.00147485,-0.00795450
 ,0.00006569,0.00017040,0.00028700,0.00000158,0.00001402,-0.00001141,-0
 .00004565,-0.00004386,0.00005172,-0.00004920,0.00003013,-0.00000420,0.
 00003796,0.00000862,-0.00003441,0.00001988,0.00002340,0.00000032,0.000
 01023,-0.00000287,-0.00001052,0.00000270,-0.00001088,0.00000122,-0.000
 03325,0.00002169,-0.00000766,0.00000764,-0.00003395,0.00001257,-0.0001
 4701,-0.00028659,-0.00028646,0.00028826,0.00015683,0.00072336,0.037003
 68,0.00734214,0.04353240,0.00252541,-0.00161517,-0.00066655,0.00018573
 ,0.00029741,0.00003324,0.00012147,0.00011730,-0.00001875,-0.00226140,-
 0.00107391,0.00027973,0.00020637,-0.00056170,-0.00001543,-0.00097595,0
 .00284937,-0.00049205,0.00089364,-0.00041051,-0.00014961,0.00002291,0.
 00099940,0.00006076,-0.00043842,-0.00082229,0.00001737,0.00038007,-0.0
 0000597,-0.00003327,-0.00045581,-0.00021228,0.00003672,0.00010055,0.00
 052651,-0.00001956,-0.00564027,0.00019990,0.00058556,-0.00741381,0.005
 35140,0.00306383,0.00425087,-0.00127027,-0.00042365,-0.00008454,0.0000
 8456,0.00003845,0.00014521,-0.00015441,0.00002799,-0.00019521,-0.00006
 279,0.00001014,0.00052737,0.00039010,-0.00045391,-0.00052656,0.0000045
 6,0.00001284,0.00013461,0.00001475,0.00001702,-0.00006791,-0.00009639,
 0.00000811,-0.00103004,0.00154884,-0.00115421,-0.00002226,-0.00109878,
 -0.00014520,0.00036816,0.00084720,0.00018098,0.00049189,-0.00060451,0.
 00003759,-0.00472242,0.00452261,-0.00233621,-0.01396467,-0.02643174,-0
 .01993209,-0.06946024,-0.04791012,-0.06184230,0.01085837,0.00386814,0.
 00893819,0.00272116,-0.00009234,0.00396864,-0.00080517,-0.00239016,-0.
 00154766,0.00007773,-0.00004119,0.00029640,-0.00000205,-0.00001091,-0.
 00000666,0.00000555,0.00001003,0.00001381,0.00000614,0.00000565,0.0000
 0427,0.00000034,-0.00000420,-0.00000024,-0.00000517,-0.00000057,-0.000
 00510,0.00000454,0.00000093,-0.00000511,-0.00000583,0.00001342,0.00001
 340,0.00001449,-0.00002879,-0.00001007,0.00005914,0.00006562,0.0000360
 5,-0.00095303,-0.00108790,0.00104819,0.00068845,0.00038732,0.00126751,
 -0.00640507,-0.00012007,0.00922361,0.09064562,0.00139936,-0.00101396,-
 0.00006880,0.00008155,0.00018229,0.00000018,0.00004089,-0.00004005,-0.
 00000269,-0.00106944,-0.00076285,-0.00005488,0.00001503,-0.00009102,-0
 .00010244,-0.00108976,0.00177767,-0.00016874,0.00064046,-0.00026514,-0
 .00017131,-0.00005046,0.00069142,0.00002841,-0.00024059,-0.00067714,0.
 00002942,0.00040940,0.00017771,-0.00000660,-0.00036529,-0.00022227,0.0
 0003013,0.00007077,0.00044904,0.00000809,-0.00431951,-0.00117147,0.001
 82198,-0.00379121,0.00292008,0.00118088,0.00300922,-0.00030353,0.00047
 453,-0.00038263,0.00021532,-0.00009177,0.00029848,-0.00009522,0.000011
 66,-0.00035141,-0.00006735,0.00001107,-0.00074294,-0.00023681,-0.00013
 190,-0.00036053,-0.00035678,0.00009712,0.00000819,-0.00020346,0.000068
 54,-0.00019079,-0.00008109,-0.00000607,0.00432242,-0.00224286,-0.00159
 984,0.00021004,-0.00183205,0.00024235,0.00031046,0.00149996,0.00006590
 ,0.00068588,-0.00082289,0.00014072,0.00114601,0.00370265,-0.00130600,-
 0.00426486,0.00176290,0.00077524,-0.05149340,-0.17580166,-0.11982345,-
 0.00627132,-0.02279283,-0.01342165,0.00172287,0.00151257,0.00160440,0.
 00192353,-0.00078666,-0.00100234,0.00001670,-0.00004641,0.00016111,-0.
 00000090,-0.00000987,-0.00001361,0.00000368,0.00001486,0.00001974,0.00
 000489,0.00000303,0.00000397,-0.00000333,-0.00000187,-0.00001082,0.000
 00107,-0.00000658,0.00000270,0.00000374,-0.00000425,-0.00000587,0.0000
 1167,-0.00004587,-0.00000019,-0.00000012,-0.00001733,-0.00000089,-0.00
 004214,-0.00001274,-0.00002783,0.00009378,0.00001274,-0.00034340,-0.00
 062275,0.00047300,0.00098961,-0.00477866,0.00150202,0.00409253,0.06400
 195,0.19311474,-0.00170368,0.00121562,-0.00056237,-0.00013536,-0.00009
 030,-0.00007693,0.00001123,-0.00006395,0.00002603,0.00151057,0.0009023
 4,0.00000182,0.00000056,0.00020743,0.00006823,0.00075928,-0.00231345,-
 0.00099206,-0.00080914,0.00044430,0.00002349,-0.00001258,-0.00089561,0
 .00006703,0.00027646,0.00082677,-0.00002774,-0.00049505,-0.00005068,0.
 00006485,0.00051751,0.00027874,-0.00003481,-0.00008615,-0.00061067,0.0
 0000126,0.00367149,0.00010262,0.00051966,0.00251329,-0.00265793,0.0082
 3103,-0.00353140,0.00164833,0.00060139,0.00024748,-0.00017185,0.000051
 83,-0.00028204,0.00009094,-0.00001264,0.00033511,0.00007209,-0.0000113
 8,-0.00004213,0.00002286,0.00012008,0.00076376,0.00012988,-0.00004463,
 -0.00011776,0.00019361,-0.00001971,0.00020423,0.00007750,0.00000094,-0
 .00105522,0.00136051,0.00130174,0.00016647,0.00255255,-0.00035894,-0.0
 0048458,-0.00171902,-0.00016095,-0.00077966,0.00104272,-0.00016339,-0.
 00176641,-0.00258079,0.00091568,0.00391889,-0.00169838,-0.00013206,-0.
 07082643,-0.13449527,-0.12569475,-0.00125730,0.00920774,0.00414517,-0.
 01194379,0.00038140,-0.00915584,0.00172324,-0.00045753,0.00007835,0.00
 004312,-0.00002302,0.00030534,0.00000188,0.00000998,-0.00000236,-0.000
 00343,-0.00000461,0.00000425,-0.00000345,-0.00000596,-0.00000618,0.000
 00416,0.00000140,-0.00001055,0.00000297,0.00000191,0.00000078,0.000001
 12,-0.00000101,-0.00000103,-0.00000410,0.00000882,-0.00000998,-0.00001
 676,0.00001146,0.00001630,0.00002322,0.00000235,0.00002089,0.00002729,
 -0.00023446,0.00034933,0.00004414,0.00018434,-0.00045219,0.01855173,0.
 00059548,-0.02636836,0.06003720,0.12650079,0.14738338\\-0.00000315,-0.
 00000703,-0.00000155,0.00000043,0.00000110,0.00000328,-0.00000205,-0.0
 0000059,-0.00000137,-0.00000459,-0.00000356,0.00000046,0.00000059,0.00
 000082,-0.00000218,0.00000338,0.00000862,0.00000151,0.00000199,-0.0000
 0292,0.00000326,-0.00000217,0.00000299,0.00000186,0.00000620,-0.000000
 29,-0.00000090,0.00000175,-0.00000459,-0.00000156,0.00000160,0.0000034
 4,-0.00000396,-0.00000276,-0.00000142,-0.00000157,-0.00000147,0.000015
 23,-0.00000099,-0.00004228,-0.00005330,-0.00000937,0.00006013,0.000014
 68,-0.00000767,-0.00000179,-0.00000178,-0.00000387,0.00000174,-0.00000
 122,-0.00000395,-0.00000141,0.00000111,-0.00000598,-0.00000012,0.00000
 011,0.00000130,0.00000010,-0.00000141,-0.00000270,0.00000092,0.0000006
 9,-0.00000364,0.00000068,0.00000007,-0.00000432,-0.00000220,0.00000144
 ,-0.00000068,0.00000046,0.00000077,0.00000170,0.00000049,-0.00000089,-
 0.00000184,0.00000014,0.00000027,-0.00000306,0.00000128,-0.00000339,0.
 00000464,0.00000740,0.00000433,0.00000995,-0.00002090,-0.00000091,-0.0
 0003599,0.00001017,-0.00002255,0.00001262,0.00001187,-0.00000023,0.000
 00340,-0.00002286,0.00003365,0.00003314,-0.00000259,0.00000134,0.00000
 577,0.00000002,0.00000029,0.00000328,-0.00000013,0.00000128,0.00000121
 ,0.,0.00000037,-0.00000199,0.00000054,0.00000076,-0.00000401,-0.000000
 03,0.00000003,-0.00000476,0.00000030,-0.00000043,-0.00000514,0.0000004
 3,-0.00000053,-0.00000440,0.00000011,-0.00000029,-0.00000292,0.0000000
 9,-0.00000020,-0.00000068,0.00000022,0.00000040,0.00000190,0.00000062,
 -0.00000049,0.00000389,-0.00000609,0.00000233,0.00000060,0.00000294,0.
 00001192,0.00002726\\\@


 MY GROUP MEETINGS AREN'T VERY STRUCTURED.
     -- PROF. M. S. GORDON, OCT. 5, 1984
 Job cpu time:       0 days 21 hours 59 minutes 59.5 seconds.
 Elapsed time:       0 days  1 hours  6 minutes 11.0 seconds.
 File lengths (MBytes):  RWF=   2268 Int=      0 D2E=      0 Chk=     57 Scr=      1
 Normal termination of Gaussian 16 at Thu Aug 15 00:05:27 2019.
