 Entering Gaussian System, Link 0=/share/apps/gaussian16/g16/g16
 Initial command:
 /share/apps/gaussian16/g16/l1.exe "/home/amen01//scratch/898/Gau-6846.inp" -scrdir="/home/amen01//scratch/898/"
 Entering Link 1 = /share/apps/gaussian16/g16/l1.exe PID=      6847.
  
 Copyright (c) 1988-2017, Gaussian, Inc.  All Rights Reserved.
  
 This is part of the Gaussian(R) 16 program.  It is based on
 the Gaussian(R) 09 system (copyright 2009, Gaussian, Inc.),
 the Gaussian(R) 03 system (copyright 2003, Gaussian, Inc.),
 the Gaussian(R) 98 system (copyright 1998, Gaussian, Inc.),
 the Gaussian(R) 94 system (copyright 1995, Gaussian, Inc.),
 the Gaussian 92(TM) system (copyright 1992, Gaussian, Inc.),
 the Gaussian 90(TM) system (copyright 1990, Gaussian, Inc.),
 the Gaussian 88(TM) system (copyright 1988, Gaussian, Inc.),
 the Gaussian 86(TM) system (copyright 1986, Carnegie Mellon
 University), and the Gaussian 82(TM) system (copyright 1983,
 Carnegie Mellon University). Gaussian is a federally registered
 trademark of Gaussian, Inc.
  
 This software contains proprietary and confidential information,
 including trade secrets, belonging to Gaussian, Inc.
  
 This software is provided under written license and may be
 used, copied, transmitted, or stored only in accord with that
 written license.
  
 The following legend is applicable only to US Government
 contracts under FAR:
  
                    RESTRICTED RIGHTS LEGEND
  
 Use, reproduction and disclosure by the US Government is
 subject to restrictions as set forth in subparagraphs (a)
 and (c) of the Commercial Computer Software - Restricted
 Rights clause in FAR 52.227-19.
  
 Gaussian, Inc.
 340 Quinnipiac St., Bldg. 40, Wallingford CT 06492
  
  
 ---------------------------------------------------------------
 Warning -- This program may not be used in any manner that
 competes with the business of Gaussian, Inc. or will provide
 assistance to any competitor of Gaussian, Inc.  The licensee
 of this program is prohibited from giving any competitor of
 Gaussian, Inc. access to this program.  By using this program,
 the user acknowledges that Gaussian, Inc. is engaged in the
 business of creating and licensing software in the field of
 computational chemistry and represents and warrants to the
 licensee that it is not a competitor of Gaussian, Inc. and that
 it will not use this program in any manner prohibited above.
 ---------------------------------------------------------------
  

 Cite this work as:
 Gaussian 16, Revision B.01,
 M. J. Frisch, G. W. Trucks, H. B. Schlegel, G. E. Scuseria, 
 M. A. Robb, J. R. Cheeseman, G. Scalmani, V. Barone, 
 G. A. Petersson, H. Nakatsuji, X. Li, M. Caricato, A. V. Marenich, 
 J. Bloino, B. G. Janesko, R. Gomperts, B. Mennucci, H. P. Hratchian, 
 J. V. Ortiz, A. F. Izmaylov, J. L. Sonnenberg, D. Williams-Young, 
 F. Ding, F. Lipparini, F. Egidi, J. Goings, B. Peng, A. Petrone, 
 T. Henderson, D. Ranasinghe, V. G. Zakrzewski, J. Gao, N. Rega, 
 G. Zheng, W. Liang, M. Hada, M. Ehara, K. Toyota, R. Fukuda, 
 J. Hasegawa, M. Ishida, T. Nakajima, Y. Honda, O. Kitao, H. Nakai, 
 T. Vreven, K. Throssell, J. A. Montgomery, Jr., J. E. Peralta, 
 F. Ogliaro, M. J. Bearpark, J. J. Heyd, E. N. Brothers, K. N. Kudin, 
 V. N. Staroverov, T. A. Keith, R. Kobayashi, J. Normand, 
 K. Raghavachari, A. P. Rendell, J. C. Burant, S. S. Iyengar, 
 J. Tomasi, M. Cossi, J. M. Millam, M. Klene, C. Adamo, R. Cammi, 
 J. W. Ochterski, R. L. Martin, K. Morokuma, O. Farkas, 
 J. B. Foresman, and D. J. Fox, Gaussian, Inc., Wallingford CT, 2016.
 
 ******************************************
 Gaussian 16:  ES64L-G16RevB.01 20-Dec-2017
                 8-Aug-2019 
 ******************************************
 %nprocshared=20
 Will use up to   20 processors via shared memory.
 %mem=160GB
 %chk=7-memb2-carbTSguess-4a.chk
 ---------------------------------------------------------------
 # opt=(ts,calcfc,noeigen) freq b3lyp/6-311+g(d,p) int=grid=fine
 ---------------------------------------------------------------
 1/5=1,10=4,11=1,18=20,26=3,38=1/1,3;
 2/9=110,12=2,17=6,18=5,40=1/2;
 3/5=4,6=6,7=111,11=2,25=1,30=1,71=2,74=-5,75=-4,140=1/1,2,3;
 4//1;
 5/5=2,38=5/2;
 8/6=4,10=90,11=11/1;
 11/6=1,8=1,9=11,15=111,16=1/1,2,10;
 10/6=1,13=1/2;
 6/7=2,8=2,9=2,10=2,28=1/1;
 7/10=1,18=20,25=1/1,2,3,16;
 1/5=1,10=4,11=1,18=20,26=3/3(2);
 2/9=110/2;
 99//99;
 2/9=110/2;
 3/5=4,6=6,7=111,11=2,25=1,30=1,71=1,74=-5,75=-4/1,2,3;
 4/5=5,16=3,69=1/1;
 5/5=2,38=5/2;
 7//1,2,3,16;
 1/5=1,11=1,18=20,26=3/3(-5);
 2/9=110/2;
 6/7=2,8=2,9=2,10=2,19=2,28=1/1;
 99/9=1/99;
 ----------------------
 7-memb2-carbTSguess-4a
 ----------------------
 Symbolic Z-matrix:
 Charge =  0 Multiplicity = 1
 C                     0.74749  -0.92255  -0.01559 
 C                     0.49934   0.5058   -0.16621 
 C                     1.75772   1.09127  -0.44146 
 C                     2.0858   -1.15491  -0.24546 
 C                     2.73349   0.08523  -0.48391 
 C                     2.82632  -2.2872    0.21562 
 C                     4.27927  -2.08284   0.25658 
 C                     4.86675  -0.87767  -0.01898 
 C                     4.07654   0.31452  -0.33338 
 C                     2.10053   2.4361   -0.33602 
 C                     3.51905   2.71783  -0.34586 
 C                     4.46165   1.70617  -0.32949 
 C                    -0.01919  -1.92841   0.72319 
 C                     0.56804  -3.32082   0.3912 
 C                     2.07705  -3.35583   0.62475 
 C                    -0.60629   1.32945   0.07371 
 C                    -0.28735   2.76078   0.12817 
 C                     1.01243   3.2795   -0.05345 
 C                    -1.99055   0.86839   0.19742 
 C                    -2.97108   1.88445   0.34708 
 C                    -2.61442   3.26109   0.52764 
 C                    -1.3365    3.68678   0.41476 
 C                    -2.46286  -0.51923   0.01822 
 C                    -3.86714  -0.69961  -0.26988 
 C                    -4.78823   0.37916  -0.14008 
 C                    -4.36245   1.60976   0.22844 
 C                    -4.40386  -1.95679  -0.63207 
 C                    -3.62303  -3.08154  -0.65125 
 C                    -2.29036  -2.96989  -0.22952 
 C                    -1.73071  -1.75287   0.08956 
 H                     0.08972  -4.09207   0.99826 
 H                     2.52966  -4.26439   1.00838 
 H                     4.90935  -2.92358   0.52889 
 H                     5.94674  -0.79278   0.05068 
 H                     5.51215   1.97048  -0.26178 
 H                     3.8542    3.74886  -0.29948 
 H                     1.15302   4.34878   0.06981 
 H                    -1.0911    4.73864   0.51251 
 H                    -3.41597   3.96871   0.70863 
 H                    -5.06444   2.42445   0.36655 
 H                    -5.83974   0.18124  -0.31656 
 H                    -5.45985  -2.01007  -0.87324 
 H                    -4.03113  -4.04709  -0.92649 
 H                    -1.70551  -3.87252  -0.13499 
 H                     0.38425  -3.56905  -0.66723 
 H                     0.68386  -1.84634   1.97368 
 
 Add virtual bond connecting atoms H46        and C13        Dist= 2.72D+00.

 GradGradGradGradGradGradGradGradGradGradGradGradGradGradGradGradGradGrad
 Berny optimization.
 Initialization pass.
                           ----------------------------
                           !    Initial Parameters    !
                           ! (Angstroms and Degrees)  !
 --------------------------                            --------------------------
 ! Name  Definition              Value          Derivative Info.                !
 --------------------------------------------------------------------------------
 ! R1    R(1,2)                  1.4576         calculate D2E/DX2 analytically  !
 ! R2    R(1,4)                  1.3776         calculate D2E/DX2 analytically  !
 ! R3    R(1,13)                 1.4647         calculate D2E/DX2 analytically  !
 ! R4    R(2,3)                  1.4149         calculate D2E/DX2 analytically  !
 ! R5    R(2,16)                 1.3994         calculate D2E/DX2 analytically  !
 ! R6    R(3,5)                  1.4022         calculate D2E/DX2 analytically  !
 ! R7    R(3,10)                 1.3918         calculate D2E/DX2 analytically  !
 ! R8    R(4,5)                  1.4193         calculate D2E/DX2 analytically  !
 ! R9    R(4,6)                  1.4293         calculate D2E/DX2 analytically  !
 ! R10   R(5,9)                  1.3708         calculate D2E/DX2 analytically  !
 ! R11   R(6,7)                  1.4678         calculate D2E/DX2 analytically  !
 ! R12   R(6,15)                 1.3678         calculate D2E/DX2 analytically  !
 ! R13   R(7,8)                  1.3688         calculate D2E/DX2 analytically  !
 ! R14   R(7,33)                 1.0854         calculate D2E/DX2 analytically  !
 ! R15   R(8,9)                  1.4644         calculate D2E/DX2 analytically  !
 ! R16   R(8,34)                 1.0856         calculate D2E/DX2 analytically  !
 ! R17   R(9,12)                 1.444          calculate D2E/DX2 analytically  !
 ! R18   R(10,11)                1.4463         calculate D2E/DX2 analytically  !
 ! R19   R(10,18)                1.4054         calculate D2E/DX2 analytically  !
 ! R20   R(11,12)                1.3828         calculate D2E/DX2 analytically  !
 ! R21   R(11,36)                1.0851         calculate D2E/DX2 analytically  !
 ! R22   R(12,35)                1.0854         calculate D2E/DX2 analytically  !
 ! R23   R(13,14)                1.5472         calculate D2E/DX2 analytically  !
 ! R24   R(13,30)                1.8335         calculate D2E/DX2 analytically  !
 ! R25   R(13,46)                1.4369         calculate D2E/DX2 analytically  !
 ! R26   R(14,15)                1.5274         calculate D2E/DX2 analytically  !
 ! R27   R(14,31)                1.0919         calculate D2E/DX2 analytically  !
 ! R28   R(14,45)                1.1026         calculate D2E/DX2 analytically  !
 ! R29   R(15,32)                1.0851         calculate D2E/DX2 analytically  !
 ! R30   R(16,17)                1.4674         calculate D2E/DX2 analytically  !
 ! R31   R(16,19)                1.4643         calculate D2E/DX2 analytically  !
 ! R32   R(17,18)                1.4112         calculate D2E/DX2 analytically  !
 ! R33   R(17,22)                1.4284         calculate D2E/DX2 analytically  !
 ! R34   R(18,37)                1.0855         calculate D2E/DX2 analytically  !
 ! R35   R(19,20)                1.4199         calculate D2E/DX2 analytically  !
 ! R36   R(19,23)                1.4767         calculate D2E/DX2 analytically  !
 ! R37   R(20,21)                1.4335         calculate D2E/DX2 analytically  !
 ! R38   R(20,26)                1.4232         calculate D2E/DX2 analytically  !
 ! R39   R(21,22)                1.3517         calculate D2E/DX2 analytically  !
 ! R40   R(21,39)                1.0844         calculate D2E/DX2 analytically  !
 ! R41   R(22,38)                1.0845         calculate D2E/DX2 analytically  !
 ! R42   R(23,24)                1.4448         calculate D2E/DX2 analytically  !
 ! R43   R(23,30)                1.4363         calculate D2E/DX2 analytically  !
 ! R44   R(24,25)                1.4244         calculate D2E/DX2 analytically  !
 ! R45   R(24,27)                1.4141         calculate D2E/DX2 analytically  !
 ! R46   R(25,26)                1.3533         calculate D2E/DX2 analytically  !
 ! R47   R(25,41)                1.0844         calculate D2E/DX2 analytically  !
 ! R48   R(26,40)                1.0842         calculate D2E/DX2 analytically  !
 ! R49   R(27,28)                1.3694         calculate D2E/DX2 analytically  !
 ! R50   R(27,42)                1.0845         calculate D2E/DX2 analytically  !
 ! R51   R(28,29)                1.4023         calculate D2E/DX2 analytically  !
 ! R52   R(28,43)                1.0838         calculate D2E/DX2 analytically  !
 ! R53   R(29,30)                1.377          calculate D2E/DX2 analytically  !
 ! R54   R(29,44)                1.0797         calculate D2E/DX2 analytically  !
 ! A1    A(2,1,4)              108.2661         calculate D2E/DX2 analytically  !
 ! A2    A(2,1,13)             129.4927         calculate D2E/DX2 analytically  !
 ! A3    A(4,1,13)             118.4786         calculate D2E/DX2 analytically  !
 ! A4    A(1,2,3)              105.913          calculate D2E/DX2 analytically  !
 ! A5    A(1,2,16)             133.9133         calculate D2E/DX2 analytically  !
 ! A6    A(3,2,16)             119.5023         calculate D2E/DX2 analytically  !
 ! A7    A(2,3,5)              109.1421         calculate D2E/DX2 analytically  !
 ! A8    A(2,3,10)             127.1648         calculate D2E/DX2 analytically  !
 ! A9    A(5,3,10)             121.6116         calculate D2E/DX2 analytically  !
 ! A10   A(1,4,5)              108.9041         calculate D2E/DX2 analytically  !
 ! A11   A(1,4,6)              125.6671         calculate D2E/DX2 analytically  !
 ! A12   A(5,4,6)              120.6612         calculate D2E/DX2 analytically  !
 ! A13   A(3,5,4)              107.7144         calculate D2E/DX2 analytically  !
 ! A14   A(3,5,9)              123.9513         calculate D2E/DX2 analytically  !
 ! A15   A(4,5,9)              125.0883         calculate D2E/DX2 analytically  !
 ! A16   A(4,6,7)              114.3016         calculate D2E/DX2 analytically  !
 ! A17   A(4,6,15)             115.5694         calculate D2E/DX2 analytically  !
 ! A18   A(7,6,15)             129.9927         calculate D2E/DX2 analytically  !
 ! A19   A(6,7,8)              122.8082         calculate D2E/DX2 analytically  !
 ! A20   A(6,7,33)             118.2808         calculate D2E/DX2 analytically  !
 ! A21   A(8,7,33)             118.907          calculate D2E/DX2 analytically  !
 ! A22   A(7,8,9)              121.8983         calculate D2E/DX2 analytically  !
 ! A23   A(7,8,34)             118.8776         calculate D2E/DX2 analytically  !
 ! A24   A(9,8,34)             119.1402         calculate D2E/DX2 analytically  !
 ! A25   A(5,9,8)              114.5878         calculate D2E/DX2 analytically  !
 ! A26   A(5,9,12)             115.0129         calculate D2E/DX2 analytically  !
 ! A27   A(8,9,12)             129.7998         calculate D2E/DX2 analytically  !
 ! A28   A(3,10,11)            115.4214         calculate D2E/DX2 analytically  !
 ! A29   A(3,10,18)            113.8531         calculate D2E/DX2 analytically  !
 ! A30   A(11,10,18)           130.0796         calculate D2E/DX2 analytically  !
 ! A31   A(10,11,12)           121.7345         calculate D2E/DX2 analytically  !
 ! A32   A(10,11,36)           119.191          calculate D2E/DX2 analytically  !
 ! A33   A(12,11,36)           118.9523         calculate D2E/DX2 analytically  !
 ! A34   A(9,12,11)            121.5508         calculate D2E/DX2 analytically  !
 ! A35   A(9,12,35)            119.5388         calculate D2E/DX2 analytically  !
 ! A36   A(11,12,35)           118.8378         calculate D2E/DX2 analytically  !
 ! A37   A(1,13,14)            108.1269         calculate D2E/DX2 analytically  !
 ! A38   A(1,13,30)            104.3925         calculate D2E/DX2 analytically  !
 ! A39   A(1,13,46)             98.2573         calculate D2E/DX2 analytically  !
 ! A40   A(14,13,30)           111.4881         calculate D2E/DX2 analytically  !
 ! A41   A(14,13,46)            93.0057         calculate D2E/DX2 analytically  !
 ! A42   A(30,13,46)           138.7655         calculate D2E/DX2 analytically  !
 ! A43   A(13,14,15)           111.2721         calculate D2E/DX2 analytically  !
 ! A44   A(13,14,31)           110.4947         calculate D2E/DX2 analytically  !
 ! A45   A(13,14,45)           110.202          calculate D2E/DX2 analytically  !
 ! A46   A(15,14,31)           109.366          calculate D2E/DX2 analytically  !
 ! A47   A(15,14,45)           107.8378         calculate D2E/DX2 analytically  !
 ! A48   A(31,14,45)           107.558          calculate D2E/DX2 analytically  !
 ! A49   A(6,15,14)            118.5269         calculate D2E/DX2 analytically  !
 ! A50   A(6,15,32)            122.1018         calculate D2E/DX2 analytically  !
 ! A51   A(14,15,32)           119.0346         calculate D2E/DX2 analytically  !
 ! A52   A(2,16,17)            114.1251         calculate D2E/DX2 analytically  !
 ! A53   A(2,16,19)            125.1738         calculate D2E/DX2 analytically  !
 ! A54   A(17,16,19)           120.6276         calculate D2E/DX2 analytically  !
 ! A55   A(16,17,18)           123.6372         calculate D2E/DX2 analytically  !
 ! A56   A(16,17,22)           118.6943         calculate D2E/DX2 analytically  !
 ! A57   A(18,17,22)           117.6475         calculate D2E/DX2 analytically  !
 ! A58   A(10,18,17)           121.2244         calculate D2E/DX2 analytically  !
 ! A59   A(10,18,37)           120.9112         calculate D2E/DX2 analytically  !
 ! A60   A(17,18,37)           117.8236         calculate D2E/DX2 analytically  !
 ! A61   A(16,19,20)           115.8752         calculate D2E/DX2 analytically  !
 ! A62   A(16,19,23)           126.0144         calculate D2E/DX2 analytically  !
 ! A63   A(20,19,23)           117.6663         calculate D2E/DX2 analytically  !
 ! A64   A(19,20,21)           121.9139         calculate D2E/DX2 analytically  !
 ! A65   A(19,20,26)           121.8848         calculate D2E/DX2 analytically  !
 ! A66   A(21,20,26)           116.0463         calculate D2E/DX2 analytically  !
 ! A67   A(20,21,22)           121.813          calculate D2E/DX2 analytically  !
 ! A68   A(20,21,39)           117.6301         calculate D2E/DX2 analytically  !
 ! A69   A(22,21,39)           120.4811         calculate D2E/DX2 analytically  !
 ! A70   A(17,22,21)           120.4643         calculate D2E/DX2 analytically  !
 ! A71   A(17,22,38)           118.7278         calculate D2E/DX2 analytically  !
 ! A72   A(21,22,38)           120.7868         calculate D2E/DX2 analytically  !
 ! A73   A(19,23,24)           116.8959         calculate D2E/DX2 analytically  !
 ! A74   A(19,23,30)           129.6435         calculate D2E/DX2 analytically  !
 ! A75   A(24,23,30)           113.4604         calculate D2E/DX2 analytically  !
 ! A76   A(23,24,25)           121.0488         calculate D2E/DX2 analytically  !
 ! A77   A(23,24,27)           122.0693         calculate D2E/DX2 analytically  !
 ! A78   A(25,24,27)           116.8207         calculate D2E/DX2 analytically  !
 ! A79   A(24,25,26)           120.6661         calculate D2E/DX2 analytically  !
 ! A80   A(24,25,41)           118.2913         calculate D2E/DX2 analytically  !
 ! A81   A(26,25,41)           121.0202         calculate D2E/DX2 analytically  !
 ! A82   A(20,26,25)           120.3841         calculate D2E/DX2 analytically  !
 ! A83   A(20,26,40)           118.5106         calculate D2E/DX2 analytically  !
 ! A84   A(25,26,40)           120.9474         calculate D2E/DX2 analytically  !
 ! A85   A(24,27,28)           121.1566         calculate D2E/DX2 analytically  !
 ! A86   A(24,27,42)           118.0472         calculate D2E/DX2 analytically  !
 ! A87   A(28,27,42)           120.7817         calculate D2E/DX2 analytically  !
 ! A88   A(27,28,29)           118.1842         calculate D2E/DX2 analytically  !
 ! A89   A(27,28,43)           121.3727         calculate D2E/DX2 analytically  !
 ! A90   A(29,28,43)           120.3437         calculate D2E/DX2 analytically  !
 ! A91   A(28,29,30)           121.7572         calculate D2E/DX2 analytically  !
 ! A92   A(28,29,44)           118.331          calculate D2E/DX2 analytically  !
 ! A93   A(30,29,44)           119.8965         calculate D2E/DX2 analytically  !
 ! A94   A(13,30,23)           125.1163         calculate D2E/DX2 analytically  !
 ! A95   A(13,30,29)           112.0155         calculate D2E/DX2 analytically  !
 ! A96   A(23,30,29)           122.7119         calculate D2E/DX2 analytically  !
 ! D1    D(4,1,2,3)             -2.1715         calculate D2E/DX2 analytically  !
 ! D2    D(4,1,2,16)          -172.3445         calculate D2E/DX2 analytically  !
 ! D3    D(13,1,2,3)           155.151          calculate D2E/DX2 analytically  !
 ! D4    D(13,1,2,16)          -15.022          calculate D2E/DX2 analytically  !
 ! D5    D(2,1,4,5)              2.5512         calculate D2E/DX2 analytically  !
 ! D6    D(2,1,4,6)            157.9565         calculate D2E/DX2 analytically  !
 ! D7    D(13,1,4,5)          -157.6643         calculate D2E/DX2 analytically  !
 ! D8    D(13,1,4,6)            -2.2589         calculate D2E/DX2 analytically  !
 ! D9    D(2,1,13,14)          172.1284         calculate D2E/DX2 analytically  !
 ! D10   D(2,1,13,30)           53.3166         calculate D2E/DX2 analytically  !
 ! D11   D(2,1,13,46)          -91.9447         calculate D2E/DX2 analytically  !
 ! D12   D(4,1,13,14)          -32.4865         calculate D2E/DX2 analytically  !
 ! D13   D(4,1,13,30)         -151.2983         calculate D2E/DX2 analytically  !
 ! D14   D(4,1,13,46)           63.4405         calculate D2E/DX2 analytically  !
 ! D15   D(1,2,3,5)              0.9655         calculate D2E/DX2 analytically  !
 ! D16   D(1,2,3,10)          -162.6462         calculate D2E/DX2 analytically  !
 ! D17   D(16,2,3,5)           172.8442         calculate D2E/DX2 analytically  !
 ! D18   D(16,2,3,10)            9.2326         calculate D2E/DX2 analytically  !
 ! D19   D(1,2,16,17)          163.8524         calculate D2E/DX2 analytically  !
 ! D20   D(1,2,16,19)          -19.2633         calculate D2E/DX2 analytically  !
 ! D21   D(3,2,16,17)           -5.2773         calculate D2E/DX2 analytically  !
 ! D22   D(3,2,16,19)          171.6069         calculate D2E/DX2 analytically  !
 ! D23   D(2,3,5,4)              0.547          calculate D2E/DX2 analytically  !
 ! D24   D(2,3,5,9)           -159.9343         calculate D2E/DX2 analytically  !
 ! D25   D(10,3,5,4)           165.2384         calculate D2E/DX2 analytically  !
 ! D26   D(10,3,5,9)             4.7571         calculate D2E/DX2 analytically  !
 ! D27   D(2,3,10,11)          164.9001         calculate D2E/DX2 analytically  !
 ! D28   D(2,3,10,18)           -6.832          calculate D2E/DX2 analytically  !
 ! D29   D(5,3,10,11)            3.1394         calculate D2E/DX2 analytically  !
 ! D30   D(5,3,10,18)         -168.5928         calculate D2E/DX2 analytically  !
 ! D31   D(1,4,5,3)             -1.9509         calculate D2E/DX2 analytically  !
 ! D32   D(1,4,5,9)            158.251          calculate D2E/DX2 analytically  !
 ! D33   D(6,4,5,3)           -158.8047         calculate D2E/DX2 analytically  !
 ! D34   D(6,4,5,9)              1.3971         calculate D2E/DX2 analytically  !
 ! D35   D(1,4,6,7)           -159.4925         calculate D2E/DX2 analytically  !
 ! D36   D(1,4,6,15)            16.6946         calculate D2E/DX2 analytically  !
 ! D37   D(5,4,6,7)             -6.7339         calculate D2E/DX2 analytically  !
 ! D38   D(5,4,6,15)           169.4532         calculate D2E/DX2 analytically  !
 ! D39   D(3,5,9,8)            162.8447         calculate D2E/DX2 analytically  !
 ! D40   D(3,5,9,12)            -9.1629         calculate D2E/DX2 analytically  !
 ! D41   D(4,5,9,8)              5.7345         calculate D2E/DX2 analytically  !
 ! D42   D(4,5,9,12)          -166.2731         calculate D2E/DX2 analytically  !
 ! D43   D(4,6,7,8)              5.0379         calculate D2E/DX2 analytically  !
 ! D44   D(4,6,7,33)          -175.6975         calculate D2E/DX2 analytically  !
 ! D45   D(15,6,7,8)          -170.4714         calculate D2E/DX2 analytically  !
 ! D46   D(15,6,7,33)            8.7932         calculate D2E/DX2 analytically  !
 ! D47   D(4,6,15,14)            7.6691         calculate D2E/DX2 analytically  !
 ! D48   D(4,6,15,32)         -179.0611         calculate D2E/DX2 analytically  !
 ! D49   D(7,6,15,14)         -176.8682         calculate D2E/DX2 analytically  !
 ! D50   D(7,6,15,32)           -3.5984         calculate D2E/DX2 analytically  !
 ! D51   D(6,7,8,9)              2.0947         calculate D2E/DX2 analytically  !
 ! D52   D(6,7,8,34)           178.7321         calculate D2E/DX2 analytically  !
 ! D53   D(33,7,8,9)          -177.1655         calculate D2E/DX2 analytically  !
 ! D54   D(33,7,8,34)           -0.5281         calculate D2E/DX2 analytically  !
 ! D55   D(7,8,9,5)             -7.4056         calculate D2E/DX2 analytically  !
 ! D56   D(7,8,9,12)           163.155          calculate D2E/DX2 analytically  !
 ! D57   D(34,8,9,5)           175.9655         calculate D2E/DX2 analytically  !
 ! D58   D(34,8,9,12)          -13.4739         calculate D2E/DX2 analytically  !
 ! D59   D(5,9,12,11)            5.9978         calculate D2E/DX2 analytically  !
 ! D60   D(5,9,12,35)         -177.1366         calculate D2E/DX2 analytically  !
 ! D61   D(8,9,12,11)         -164.5301         calculate D2E/DX2 analytically  !
 ! D62   D(8,9,12,35)           12.3355         calculate D2E/DX2 analytically  !
 ! D63   D(3,10,11,12)          -6.0363         calculate D2E/DX2 analytically  !
 ! D64   D(3,10,11,36)         178.0268         calculate D2E/DX2 analytically  !
 ! D65   D(18,10,11,12)        164.0663         calculate D2E/DX2 analytically  !
 ! D66   D(18,10,11,36)        -11.8706         calculate D2E/DX2 analytically  !
 ! D67   D(3,10,18,17)           1.3192         calculate D2E/DX2 analytically  !
 ! D68   D(3,10,18,37)         178.9454         calculate D2E/DX2 analytically  !
 ! D69   D(11,10,18,17)       -168.9081         calculate D2E/DX2 analytically  !
 ! D70   D(11,10,18,37)          8.7181         calculate D2E/DX2 analytically  !
 ! D71   D(10,11,12,9)           1.475          calculate D2E/DX2 analytically  !
 ! D72   D(10,11,12,35)       -175.4119         calculate D2E/DX2 analytically  !
 ! D73   D(36,11,12,9)         177.4213         calculate D2E/DX2 analytically  !
 ! D74   D(36,11,12,35)          0.5343         calculate D2E/DX2 analytically  !
 ! D75   D(1,13,14,15)          52.6614         calculate D2E/DX2 analytically  !
 ! D76   D(1,13,14,31)         174.3574         calculate D2E/DX2 analytically  !
 ! D77   D(1,13,14,45)         -66.9111         calculate D2E/DX2 analytically  !
 ! D78   D(30,13,14,15)        166.8635         calculate D2E/DX2 analytically  !
 ! D79   D(30,13,14,31)        -71.4405         calculate D2E/DX2 analytically  !
 ! D80   D(30,13,14,45)         47.291          calculate D2E/DX2 analytically  !
 ! D81   D(46,13,14,15)        -47.0402         calculate D2E/DX2 analytically  !
 ! D82   D(46,13,14,31)         74.6558         calculate D2E/DX2 analytically  !
 ! D83   D(46,13,14,45)       -166.6127         calculate D2E/DX2 analytically  !
 ! D84   D(1,13,30,23)         -51.7014         calculate D2E/DX2 analytically  !
 ! D85   D(1,13,30,29)         132.7564         calculate D2E/DX2 analytically  !
 ! D86   D(14,13,30,23)       -168.2028         calculate D2E/DX2 analytically  !
 ! D87   D(14,13,30,29)         16.2551         calculate D2E/DX2 analytically  !
 ! D88   D(46,13,30,23)         69.4783         calculate D2E/DX2 analytically  !
 ! D89   D(46,13,30,29)       -106.0639         calculate D2E/DX2 analytically  !
 ! D90   D(13,14,15,6)         -42.4326         calculate D2E/DX2 analytically  !
 ! D91   D(13,14,15,32)        144.0871         calculate D2E/DX2 analytically  !
 ! D92   D(31,14,15,6)        -164.783          calculate D2E/DX2 analytically  !
 ! D93   D(31,14,15,32)         21.7368         calculate D2E/DX2 analytically  !
 ! D94   D(45,14,15,6)          78.5363         calculate D2E/DX2 analytically  !
 ! D95   D(45,14,15,32)        -94.9439         calculate D2E/DX2 analytically  !
 ! D96   D(2,16,17,18)           0.4689         calculate D2E/DX2 analytically  !
 ! D97   D(2,16,17,22)        -177.8281         calculate D2E/DX2 analytically  !
 ! D98   D(19,16,17,18)       -176.5715         calculate D2E/DX2 analytically  !
 ! D99   D(19,16,17,22)          5.1315         calculate D2E/DX2 analytically  !
 ! D100  D(2,16,19,20)        -175.7145         calculate D2E/DX2 analytically  !
 ! D101  D(2,16,19,23)          -3.5825         calculate D2E/DX2 analytically  !
 ! D102  D(17,16,19,20)          0.9806         calculate D2E/DX2 analytically  !
 ! D103  D(17,16,19,23)        173.1127         calculate D2E/DX2 analytically  !
 ! D104  D(16,17,18,10)          1.5705         calculate D2E/DX2 analytically  !
 ! D105  D(16,17,18,37)       -176.1267         calculate D2E/DX2 analytically  !
 ! D106  D(22,17,18,10)        179.8841         calculate D2E/DX2 analytically  !
 ! D107  D(22,17,18,37)          2.1869         calculate D2E/DX2 analytically  !
 ! D108  D(16,17,22,21)         -5.1874         calculate D2E/DX2 analytically  !
 ! D109  D(16,17,22,38)        176.469          calculate D2E/DX2 analytically  !
 ! D110  D(18,17,22,21)        176.4132         calculate D2E/DX2 analytically  !
 ! D111  D(18,17,22,38)         -1.9305         calculate D2E/DX2 analytically  !
 ! D112  D(16,19,20,21)         -7.2385         calculate D2E/DX2 analytically  !
 ! D113  D(16,19,20,26)        168.0566         calculate D2E/DX2 analytically  !
 ! D114  D(23,19,20,21)        179.9434         calculate D2E/DX2 analytically  !
 ! D115  D(23,19,20,26)         -4.7614         calculate D2E/DX2 analytically  !
 ! D116  D(16,19,23,24)       -159.413          calculate D2E/DX2 analytically  !
 ! D117  D(16,19,23,30)         20.7643         calculate D2E/DX2 analytically  !
 ! D118  D(20,19,23,24)         12.5931         calculate D2E/DX2 analytically  !
 ! D119  D(20,19,23,30)       -167.2296         calculate D2E/DX2 analytically  !
 ! D120  D(19,20,21,22)          7.6011         calculate D2E/DX2 analytically  !
 ! D121  D(19,20,21,39)       -175.5518         calculate D2E/DX2 analytically  !
 ! D122  D(26,20,21,22)       -167.9529         calculate D2E/DX2 analytically  !
 ! D123  D(26,20,21,39)          8.8942         calculate D2E/DX2 analytically  !
 ! D124  D(19,20,26,25)         -5.3566         calculate D2E/DX2 analytically  !
 ! D125  D(19,20,26,40)        179.1664         calculate D2E/DX2 analytically  !
 ! D126  D(21,20,26,25)        170.1988         calculate D2E/DX2 analytically  !
 ! D127  D(21,20,26,40)         -5.2782         calculate D2E/DX2 analytically  !
 ! D128  D(20,21,22,17)         -0.9593         calculate D2E/DX2 analytically  !
 ! D129  D(20,21,22,38)        177.3499         calculate D2E/DX2 analytically  !
 ! D130  D(39,21,22,17)       -177.718          calculate D2E/DX2 analytically  !
 ! D131  D(39,21,22,38)          0.5912         calculate D2E/DX2 analytically  !
 ! D132  D(19,23,24,25)        -11.3153         calculate D2E/DX2 analytically  !
 ! D133  D(19,23,24,27)        171.618          calculate D2E/DX2 analytically  !
 ! D134  D(30,23,24,25)        168.5358         calculate D2E/DX2 analytically  !
 ! D135  D(30,23,24,27)         -8.5308         calculate D2E/DX2 analytically  !
 ! D136  D(19,23,30,13)         11.3541         calculate D2E/DX2 analytically  !
 ! D137  D(19,23,30,29)       -173.5588         calculate D2E/DX2 analytically  !
 ! D138  D(24,23,30,13)       -168.4735         calculate D2E/DX2 analytically  !
 ! D139  D(24,23,30,29)          6.6136         calculate D2E/DX2 analytically  !
 ! D140  D(23,24,25,26)          1.4993         calculate D2E/DX2 analytically  !
 ! D141  D(23,24,25,41)       -176.7958         calculate D2E/DX2 analytically  !
 ! D142  D(27,24,25,26)        178.714          calculate D2E/DX2 analytically  !
 ! D143  D(27,24,25,41)          0.419          calculate D2E/DX2 analytically  !
 ! D144  D(23,24,27,28)          3.7971         calculate D2E/DX2 analytically  !
 ! D145  D(23,24,27,42)       -177.5758         calculate D2E/DX2 analytically  !
 ! D146  D(25,24,27,28)       -173.3869         calculate D2E/DX2 analytically  !
 ! D147  D(25,24,27,42)          5.2401         calculate D2E/DX2 analytically  !
 ! D148  D(24,25,26,20)          7.0642         calculate D2E/DX2 analytically  !
 ! D149  D(24,25,26,40)       -177.5703         calculate D2E/DX2 analytically  !
 ! D150  D(41,25,26,20)       -174.6876         calculate D2E/DX2 analytically  !
 ! D151  D(41,25,26,40)          0.6779         calculate D2E/DX2 analytically  !
 ! D152  D(24,27,28,29)          3.5011         calculate D2E/DX2 analytically  !
 ! D153  D(24,27,28,43)        179.8856         calculate D2E/DX2 analytically  !
 ! D154  D(42,27,28,29)       -175.0885         calculate D2E/DX2 analytically  !
 ! D155  D(42,27,28,43)          1.2959         calculate D2E/DX2 analytically  !
 ! D156  D(27,28,29,30)         -5.5029         calculate D2E/DX2 analytically  !
 ! D157  D(27,28,29,44)        173.07           calculate D2E/DX2 analytically  !
 ! D158  D(43,28,29,30)        178.074          calculate D2E/DX2 analytically  !
 ! D159  D(43,28,29,44)         -3.3531         calculate D2E/DX2 analytically  !
 ! D160  D(28,29,30,13)        175.8115         calculate D2E/DX2 analytically  !
 ! D161  D(28,29,30,23)          0.1451         calculate D2E/DX2 analytically  !
 ! D162  D(44,29,30,13)         -2.7395         calculate D2E/DX2 analytically  !
 ! D163  D(44,29,30,23)       -178.4059         calculate D2E/DX2 analytically  !
 --------------------------------------------------------------------------------
 Trust Radius=3.00D-01 FncErr=1.00D-07 GrdErr=1.00D-06 EigMax=2.50D+02 EigMin=1.00D-04
 Number of steps in this run=    276 maximum allowed number of steps=    276.
 Search for a saddle point of order  1.
 GradGradGradGradGradGradGradGradGradGradGradGradGradGradGradGradGradGrad

                          Input orientation:                          
 ---------------------------------------------------------------------
 Center     Atomic      Atomic             Coordinates (Angstroms)
 Number     Number       Type             X           Y           Z
 ---------------------------------------------------------------------
      1          6           0        0.747489   -0.922554   -0.015592
      2          6           0        0.499340    0.505800   -0.166207
      3          6           0        1.757720    1.091270   -0.441462
      4          6           0        2.085802   -1.154911   -0.245459
      5          6           0        2.733491    0.085228   -0.483912
      6          6           0        2.826319   -2.287198    0.215615
      7          6           0        4.279273   -2.082835    0.256575
      8          6           0        4.866753   -0.877669   -0.018981
      9          6           0        4.076537    0.314523   -0.333376
     10          6           0        2.100525    2.436104   -0.336017
     11          6           0        3.519051    2.717827   -0.345859
     12          6           0        4.461648    1.706170   -0.329494
     13          6           0       -0.019194   -1.928409    0.723189
     14          6           0        0.568043   -3.320818    0.391195
     15          6           0        2.077045   -3.355828    0.624753
     16          6           0       -0.606289    1.329450    0.073707
     17          6           0       -0.287352    2.760780    0.128171
     18          6           0        1.012431    3.279501   -0.053449
     19          6           0       -1.990548    0.868393    0.197423
     20          6           0       -2.971078    1.884447    0.347083
     21          6           0       -2.614416    3.261091    0.527639
     22          6           0       -1.336495    3.686780    0.414761
     23          6           0       -2.462859   -0.519233    0.018217
     24          6           0       -3.867143   -0.699611   -0.269877
     25          6           0       -4.788225    0.379159   -0.140083
     26          6           0       -4.362451    1.609755    0.228439
     27          6           0       -4.403860   -1.956793   -0.632069
     28          6           0       -3.623027   -3.081543   -0.651246
     29          6           0       -2.290357   -2.969886   -0.229518
     30          6           0       -1.730706   -1.752871    0.089562
     31          1           0        0.089720   -4.092073    0.998260
     32          1           0        2.529655   -4.264388    1.008380
     33          1           0        4.909352   -2.923583    0.528889
     34          1           0        5.946736   -0.792780    0.050680
     35          1           0        5.512147    1.970483   -0.261780
     36          1           0        3.854198    3.748863   -0.299476
     37          1           0        1.153015    4.348784    0.069812
     38          1           0       -1.091102    4.738640    0.512512
     39          1           0       -3.415970    3.968708    0.708625
     40          1           0       -5.064437    2.424454    0.366547
     41          1           0       -5.839738    0.181239   -0.316559
     42          1           0       -5.459846   -2.010071   -0.873243
     43          1           0       -4.031129   -4.047091   -0.926493
     44          1           0       -1.705510   -3.872516   -0.134986
     45          1           0        0.384249   -3.569052   -0.667229
     46          1           0        0.683860   -1.846337    1.973684
 ---------------------------------------------------------------------
                    Distance matrix (angstroms):
                    1          2          3          4          5
     1  C    0.000000
     2  C    1.457552   0.000000
     3  C    2.292906   1.414942   0.000000
     4  C    1.377647   2.298065   2.278461   0.000000
     5  C    2.275775   2.295484   1.402160   1.419262   0.000000
     6  C    2.497448   3.655333   3.603845   1.429345   2.475149
     7  C    3.727442   4.600834   4.113445   2.434008   2.763740
     8  C    4.119510   4.583662   3.704227   2.803898   2.386239
     9  C    3.565657   3.586206   2.447842   2.475882   1.370770
    10  C    3.635101   2.513703   1.391838   3.592187   2.439085
    11  C    4.587266   3.747532   2.399399   4.130664   2.750771
    12  C    4.561107   4.143360   2.775223   3.719878   2.374410
    13  C    1.464699   2.642967   3.692194   2.442864   3.617886
    14  C    2.439128   3.867612   4.644908   2.720308   4.129906
    15  C    2.845801   4.245815   4.584263   2.366724   3.674361
    16  C    2.629108   1.399419   2.431186   3.677128   3.607375
    17  C    3.828644   2.406341   2.700753   4.593919   4.081509
    18  C    4.210569   2.823012   2.344006   4.566509   3.653865
    19  C    3.278676   2.542291   3.808853   4.572366   4.836746
    20  C    4.673171   3.769341   4.859266   5.929658   6.039027
    21  C    5.394478   4.215273   4.976229   6.495445   6.301544
    22  C    5.076825   3.718393   4.128433   5.965734   5.508500
    23  C    3.235760   3.139957   4.540739   4.600427   5.255431
    24  C    4.627007   4.530997   5.905572   5.970381   6.650575
    25  C    5.688065   5.289146   6.591459   7.043914   7.535305
    26  C    5.708207   5.001147   6.178518   7.031922   7.292737
    27  C    5.290188   5.506611   6.876924   6.550435   7.425199
    28  C    4.915964   5.486183   6.812402   6.038816   7.103644
    29  C    3.669583   4.457220   5.738017   4.737632   5.885362
    30  C    2.615709   3.184355   4.532134   3.877567   4.861742
    31  H    3.392109   4.760694   5.632235   3.762725   5.161027
    32  H    3.923326   5.315687   5.601875   3.382006   4.603004
    33  H    4.649912   5.629568   5.195518   3.420563   3.848777
    34  H    5.201289   5.604237   4.619492   3.889171   3.373667
    35  H    5.579627   5.223281   3.860184   4.637693   3.365183
    36  H    5.617327   4.668007   3.387946   5.213170   3.835651
    37  H    5.287603   3.905320   3.352382   5.591077   4.580658
    38  H    5.975653   4.572428   4.725374   6.738040   6.105294
    39  H    6.464002   5.299690   6.030706   7.578340   7.370172
    40  H    6.717662   5.909372   6.998006   8.019496   8.185532
    41  H    6.685843   6.349162   7.652785   8.037695   8.575400
    42  H    6.359974   6.507027   7.867529   7.619857   8.465969
    43  H    5.781666   6.467766   7.755565   6.800394   7.939271
    44  H    3.838455   4.902243   6.060286   4.666008   5.957367
    45  H    2.749641   4.107151   4.863743   2.983496   4.348138
    46  H    2.194229   3.185236   3.951663   2.714426   3.737875
                    6          7          8          9         10
     6  C    0.000000
     7  C    1.467827   0.000000
     8  C    2.491020   1.368755   0.000000
     9  C    2.938263   2.477190   1.464448   0.000000
    10  C    4.810474   5.051625   4.328235   2.899265   0.000000
    11  C    5.083838   4.897675   3.853666   2.467147   1.446264
    12  C    4.349532   3.838398   2.633772   1.443955   2.471386
    13  C    2.912611   4.326476   5.052460   4.787702   4.966296
    14  C    2.489781   3.914582   4.961464   5.103943   6.001624
    15  C    1.367763   2.570190   3.786573   4.288060   5.871125
    16  C    4.988294   5.962034   5.902047   4.808810   2.952863
    17  C    5.931667   6.658165   6.310686   5.024015   2.454148
    18  C    5.860949   6.286734   5.669131   4.272961   1.405387
    19  C    5.758497   6.929928   7.079417   6.115394   4.413519
    20  C    7.143509   8.265295   8.318346   7.252349   5.147048
    21  C    7.777047   8.726624   8.567148   7.361553   4.863864
    22  C    7.284030   8.052970   7.713794   6.421273   3.733760
    23  C    5.580329   6.925172   7.338465   6.601702   5.448300
    24  C    6.896272   8.279768   8.739313   8.008405   6.741672
    25  C    8.075720   9.404162   9.737191   8.867105   7.191960
    26  C    8.177091   9.397628   9.561731   8.556271   6.539994
    27  C    7.287196   8.729397   9.353323   8.784374   7.854439
    28  C    6.555646   8.016726   8.793929   8.421258   7.956309
    29  C    5.181176   6.647043   7.459619   7.164877   6.965337
    30  C    4.589975   6.021347   6.656142   6.178759   5.692711
    31  H    3.370324   4.705262   5.846984   6.089832   6.959937
    32  H    2.150759   2.895781   4.241151   5.015933   6.847492
    33  H    2.200489   1.085362   2.118429   3.452885   6.112595
    34  H    3.463739   2.118270   1.085552   2.207094   5.036722
    35  H    5.056622   4.268262   2.930436   2.192785   3.444050
    36  H    6.144582   5.873549   4.744338   3.441697   2.190899
    37  H    6.845251   7.153607   6.412140   4.998480   2.172744
    38  H    8.049642   8.685560   8.204965   6.855132   4.025935
    39  H    8.851304   9.800117   9.623943   8.400982   5.819954
    40  H    9.191652  10.374616  10.472878   9.407396   7.199334
    41  H    9.026457  10.385032  10.762843   9.917185   8.254246
    42  H    8.361994   9.804704  10.423567   9.830452   8.787280
    43  H    7.171208   8.620947   9.489000   9.225493   8.943023
    44  H    4.813899   6.258906   7.223379   7.141619   7.370550
    45  H    2.895906   4.270066   5.268454   5.369041   6.254375
    46  H    2.806296   3.991414   4.733458   4.637036   5.067638
                   11         12         13         14         15
    11  C    0.000000
    12  C    1.382826   0.000000
    13  C    5.937133   5.864832   0.000000
    14  C    6.761430   6.399231   1.547214   0.000000
    15  C    6.317496   5.676332   2.537998   1.527371   0.000000
    16  C    4.372877   5.097889   3.373448   4.806750   5.427316
    17  C    3.836047   4.886170   4.734390   6.147090   6.576463
    18  C    2.585368   3.801141   5.365607   6.630189   6.754328
    19  C    5.837058   6.527660   3.461902   4.912578   5.879793
    20  C    6.580005   7.465585   4.836625   6.294609   7.281561
    21  C    6.219128   7.295419   5.805543   7.312194   8.111896
    22  C    5.009365   6.172130   5.775877   7.261835   7.829092
    23  C    6.811340   7.281629   2.907621   4.144196   5.387475
    24  C    8.138828   8.669492   4.159668   5.194094   6.571851
    25  C    8.632644   9.346496   5.367845   6.531592   7.852836
    26  C    7.979706   8.842246   5.623812   6.974727   8.141326
    27  C    9.203614   9.597191   4.589425   5.256182   6.748261
    28  C    9.205174   9.401473   4.025718   4.325391   5.847583
    29  C    8.130980   8.213712   2.674043   2.945995   4.466870
    30  C    6.909174   7.105337   1.833459   2.798872   4.165917
    31  H    7.742203   7.382161   2.183797   1.091859   2.151982
    32  H    7.180821   6.416390   3.469116   2.262557   1.085130
    33  H    5.875681   4.729891   5.031768   4.361619   2.866703
    34  H    4.286637   2.931684   6.110175   5.952921   4.676888
    35  H    2.130264   1.085355   6.838659   7.271066   6.399645
    36  H    1.085131   2.131312   6.948412   7.826636   7.381674
    37  H    2.903606   4.253223   6.419044   7.698589   7.779642
    38  H    5.106270   6.382623   6.755954   8.229359   8.693110
    39  H    7.125388   8.261576   6.805460   8.313261   9.155822
    40  H    8.617996   9.578450   6.673012   8.045719   9.191251
    41  H    9.696498  10.413651   6.277772   7.336551   8.721947
    42  H   10.161287  10.608589   5.670622   6.297008   7.801268
    43  H   10.154136  10.275392   4.827617   4.839024   6.339874
    44  H    8.412677   8.318258   2.712873   2.397974   3.892543
    45  H    7.032433   6.675868   2.188090   1.102571   2.140150
    46  H    5.852365   5.674206   1.436927   2.166052   2.457467
                   16         17         18         19         20
    16  C    0.000000
    17  C    1.467444   0.000000
    18  C    2.537543   1.411203   0.000000
    19  C    1.464258   2.546920   3.859308   0.000000
    20  C    2.444378   2.831655   4.239687   1.419931   0.000000
    21  C    2.823095   2.413527   3.673149   2.494646   1.433512
    22  C    2.491289   1.428395   2.429516   2.901435   2.434101
    23  C    2.620603   3.937436   5.149093   1.476719   2.478733
    24  C    3.855944   4.994762   6.300033   2.489702   2.803735
    25  C    4.293873   5.099209   6.485915   2.860115   2.409408
    26  C    3.769783   4.235722   5.635323   2.485257   1.423183
    27  C    5.071396   6.307067   7.555778   3.807073   4.215060
    28  C    5.392877   6.772515   7.893523   4.357433   5.107128
    29  C    4.627345   6.081160   7.070661   3.873571   4.935625
    30  C    3.281047   4.738967   5.733238   2.636319   3.851613
    31  H    5.543657   6.918152   7.503172   5.438297   6.746207
    32  H    6.480647   7.619927   7.767864   6.887331   8.276687
    33  H    6.979812   7.712217   7.348698   7.880201   9.233168
    34  H    6.888144   7.176186   6.398569   8.110580   9.315729
    35  H    6.161066   5.866074   4.690882   7.597098   8.505482
    36  H    5.088101   4.279209   2.890756   6.534912   7.104821
    37  H    3.494502   2.144719   1.085506   4.691630   4.812274
    38  H    3.471335   2.169254   2.621879   3.985862   3.421709
    39  H    3.906803   3.403567   4.546042   3.450378   2.161663
    40  H    4.599986   4.794839   6.151083   3.449452   2.161976
    41  H    5.372121   6.138469   7.524671   3.943681   3.401551
    42  H    5.967087   7.107640   8.398929   4.633348   4.780213
    43  H    6.452683   7.840618   8.937486   5.439590   6.158640
    44  H    5.320929   6.788302   7.651483   4.761088   5.914108
    45  H    5.052274   6.414864   6.904637   5.106682   6.482877
    46  H    3.919186   5.057143   5.521906   4.204441   5.470206
                   21         22         23         24         25
    21  C    0.000000
    22  C    1.351678   0.000000
    23  C    3.817503   4.372241   0.000000
    24  C    4.229955   5.110121   1.444835   0.000000
    25  C    3.671080   4.812759   2.497898   1.424424   0.000000
    26  C    2.423233   3.674937   2.860985   2.413881   1.353314
    27  C    5.636785   6.508033   2.501387   1.414127   2.417945
    28  C    6.529630   7.223212   2.891298   2.424590   3.687198
    29  C    6.285171   6.755453   2.469176   2.764422   4.178929
    30  C    5.110056   5.463603   1.436315   2.408924   3.734530
    31  H    7.848749   7.930014   4.499037   5.364115   6.714320
    32  H    9.128275   8.861183   6.319162   7.433747   8.742589
    33  H    9.739470   9.095083   7.771176   9.089056  10.266383
    34  H    9.484444   8.558298   8.414105   9.819555  10.800427
    35  H    8.266189   7.092763   8.359295   9.751951  10.423281
    36  H    6.539496   5.239970   7.630385   8.911167   9.277488
    37  H    3.947938   2.599019   6.064223   7.127669   7.148448
    38  H    2.122231   1.084519   5.456306   6.155738   5.753232
    39  H    1.084420   2.118975   4.639687   4.791057   3.935512
    40  H    2.593938   3.936158   3.943962   3.405632   2.125135
    41  H    4.538817   5.753507   3.464974   2.160835   1.084433
    42  H    6.151755   7.149482   3.463990   2.148967   2.587860
    43  H    7.584926   8.298962   3.974636   3.415210   4.558873
    44  H    7.221740   7.588238   3.441156   3.841638   5.251657
    45  H    7.554506   7.535168   4.228150   5.144503   6.528456
    46  H    6.249439   6.093231   3.935339   5.201940   6.274118
                   26         27         28         29         30
    26  C    0.000000
    27  C    3.669122   0.000000
    28  C    4.829997   1.369354   0.000000
    29  C    5.047416   2.378087   1.402259   0.000000
    30  C    4.272309   2.776344   2.427971   1.377006   0.000000
    31  H    7.274977   5.235423   4.186470   2.903706   3.100250
    32  H    9.089279   7.489306   6.481433   5.142047   5.030171
    33  H   10.325103   9.434958   8.615054   7.239692   6.756770
    34  H   10.586931  10.438195   9.864659   8.524553   7.737338
    35  H    9.893337  10.671823  10.446342   9.235115   8.151425
    36  H    8.506926  10.042940  10.133463   9.105056   7.849304
    37  H    6.160179   8.433967   8.862294   8.093784   6.748810
    38  H    4.535674   7.557331   8.301821   7.836466   6.536642
    39  H    2.586709   6.155075   7.183186   7.091629   5.996651
    40  H    1.084247   4.541907   5.781831   6.095057   5.351685
    41  H    2.126043   2.594701   3.958733   4.747133   4.559590
    42  H    3.939685   1.084486   2.138046   3.373616   3.860004
    43  H    5.783040   2.143586   1.083786   2.162506   3.404080
    44  H    6.103008   3.346368   2.137530   1.079687   2.131655
    45  H    7.081908   5.052386   4.036853   2.775628   2.888647
    46  H    6.360480   5.717258   5.192809   3.868130   3.064112
                   31         32         33         34         35
    31  H    0.000000
    32  H    2.446033   0.000000
    33  H    4.981419   2.773198   0.000000
    34  H    6.788805   4.964443   2.417679   0.000000
    35  H    8.230735   7.027246   4.994037   2.814626   0.000000
    36  H    8.794071   8.226609   6.805959   5.012768   2.431636
    37  H    8.558077   8.772843   8.198057   7.029638   4.976776
    38  H    8.922544   9.716495   9.732183   8.963317   7.201744
    39  H    8.794882  10.159930  10.809578  10.524492   9.200319
    40  H    8.332438  10.140157  11.318318  11.475901  10.604952
    41  H    7.426198   9.569002  11.220412  11.832352  11.492158
    42  H    6.215701   8.512025  10.503368  11.508499  11.687743
    43  H    4.548417   6.843598   9.127574  10.540550  11.301644
    44  H    2.134315   4.404256   6.715475   8.250825   9.287157
    45  H    1.770354   2.809613   4.724816   6.258142   7.559509
    46  H    2.519481   3.191511   4.593765   5.701385   6.548112
                   36         37         38         39         40
    36  H    0.000000
    37  H    2.791535   0.000000
    38  H    5.108324   2.320352   0.000000
    39  H    7.343020   4.629056   2.456882   0.000000
    40  H    9.041001   6.515198   4.600451   2.284553   0.000000
    41  H   10.329600   8.149620   6.633763   4.612003   2.469765
    42  H   10.965671   9.222490   8.157901   6.513489   4.621519
    43  H   11.106234   9.917595   9.375690   8.203966   6.679863
    44  H    9.435191   8.706485   8.657295   8.069829   7.154422
    45  H    8.107260   7.989140   8.519753   8.552921   8.165720
    46  H    6.820892   6.498027   6.974771   7.226599   7.339309
                   41         42         43         44         45
    41  H    0.000000
    42  H    2.292609   0.000000
    43  H    4.639166   2.488678   0.000000
    44  H    5.792904   4.255439   2.462816   0.000000
    45  H    7.275003   6.051967   4.448742   2.177720   0.000000
    46  H    7.205110   6.773251   5.956968   3.776371   3.167323
                   46
    46  H    0.000000
 Stoichiometry    C30H16
 Framework group  C1[X(C30H16)]
 Deg. of freedom   132
 Full point group                 C1      NOp   1
 Largest Abelian subgroup         C1      NOp   1
 Largest concise Abelian subgroup C1      NOp   1
                         Standard orientation:                         
 ---------------------------------------------------------------------
 Center     Atomic      Atomic             Coordinates (Angstroms)
 Number     Number       Type             X           Y           Z
 ---------------------------------------------------------------------
      1          6           0        0.747489   -0.922554   -0.015592
      2          6           0        0.499340    0.505800   -0.166207
      3          6           0        1.757720    1.091270   -0.441462
      4          6           0        2.085802   -1.154911   -0.245459
      5          6           0        2.733491    0.085228   -0.483912
      6          6           0        2.826319   -2.287198    0.215615
      7          6           0        4.279273   -2.082835    0.256575
      8          6           0        4.866753   -0.877669   -0.018981
      9          6           0        4.076537    0.314523   -0.333376
     10          6           0        2.100525    2.436104   -0.336017
     11          6           0        3.519051    2.717827   -0.345859
     12          6           0        4.461648    1.706170   -0.329494
     13          6           0       -0.019194   -1.928409    0.723189
     14          6           0        0.568043   -3.320818    0.391195
     15          6           0        2.077045   -3.355828    0.624753
     16          6           0       -0.606289    1.329450    0.073707
     17          6           0       -0.287352    2.760780    0.128171
     18          6           0        1.012431    3.279501   -0.053449
     19          6           0       -1.990548    0.868393    0.197423
     20          6           0       -2.971078    1.884447    0.347083
     21          6           0       -2.614416    3.261091    0.527639
     22          6           0       -1.336495    3.686780    0.414761
     23          6           0       -2.462859   -0.519233    0.018217
     24          6           0       -3.867143   -0.699611   -0.269877
     25          6           0       -4.788225    0.379159   -0.140083
     26          6           0       -4.362451    1.609755    0.228439
     27          6           0       -4.403860   -1.956793   -0.632069
     28          6           0       -3.623027   -3.081543   -0.651246
     29          6           0       -2.290357   -2.969886   -0.229518
     30          6           0       -1.730706   -1.752871    0.089562
     31          1           0        0.089720   -4.092073    0.998260
     32          1           0        2.529655   -4.264388    1.008380
     33          1           0        4.909352   -2.923583    0.528889
     34          1           0        5.946736   -0.792780    0.050680
     35          1           0        5.512147    1.970483   -0.261780
     36          1           0        3.854198    3.748863   -0.299476
     37          1           0        1.153015    4.348784    0.069812
     38          1           0       -1.091102    4.738640    0.512512
     39          1           0       -3.415970    3.968708    0.708625
     40          1           0       -5.064437    2.424454    0.366547
     41          1           0       -5.839738    0.181239   -0.316559
     42          1           0       -5.459846   -2.010071   -0.873243
     43          1           0       -4.031129   -4.047091   -0.926493
     44          1           0       -1.705510   -3.872516   -0.134986
     45          1           0        0.384249   -3.569052   -0.667229
     46          1           0        0.683860   -1.846337    1.973684
 ---------------------------------------------------------------------
 Rotational constants (GHZ):           0.2750198           0.1533693           0.1006257
 Standard basis: 6-311+G(d,p) (5D, 7F)
 There are   786 symmetry adapted cartesian basis functions of A   symmetry.
 There are   756 symmetry adapted basis functions of A   symmetry.
   756 basis functions,  1208 primitive gaussians,   786 cartesian basis functions
    98 alpha electrons       98 beta electrons
       nuclear repulsion energy      2613.6351179813 Hartrees.
 NAtoms=   46 NActive=   46 NUniq=   46 SFac= 1.00D+00 NAtFMM=   60 NAOKFM=F Big=F
 Integral buffers will be    131072 words long.
 Raffenetti 2 integral format.
 Two-electron integral symmetry is turned on.
 One-electron integrals computed using PRISM.
 NBasis=   756 RedAO= T EigKep=  1.17D-06  NBF=   756
 NBsUse=   736 1.00D-06 EigRej=  9.96D-07 NBFU=   736
 ExpMin= 4.38D-02 ExpMax= 4.56D+03 ExpMxC= 6.82D+02 IAcc=2 IRadAn=         4 AccDes= 0.00D+00
 Harris functional with IExCor=  402 and IRadAn=       4 diagonalized for initial guess.
 HarFok:  IExCor=  402 AccDes= 0.00D+00 IRadAn=         4 IDoV= 1 UseB2=F ITyADJ=14
 ICtDFT=  3500011 ScaDFX=  1.000000  1.000000  1.000000  1.000000
 FoFCou: FMM=F IPFlag=           0 FMFlag=      100000 FMFlg1=           0
         NFxFlg=           0 DoJE=T BraDBF=F KetDBF=T FulRan=T
         wScrn=  0.000000 ICntrl=       500 IOpCl=  0 I1Cent=   200000004 NGrid=           0
         NMat0=    1 NMatS0=      1 NMatT0=    0 NMatD0=    1 NMtDS0=    0 NMtDT0=    0
 Petite list used in FoFCou.
 Requested convergence on RMS density matrix=1.00D-08 within 128 cycles.
 Requested convergence on MAX density matrix=1.00D-06.
 Requested convergence on             energy=1.00D-06.
 No special actions if energy rises.
 SCF Done:  E(RB3LYP) =  -1152.99562241     A.U. after   17 cycles
            NFock= 17  Conv=0.60D-08     -V/T= 2.0048
 DoSCS=F DFT=T ScalE2(SS,OS)=  1.000000  1.000000
 Range of M.O.s used for correlation:     1   736
 NBasis=   756 NAE=    98 NBE=    98 NFC=     0 NFV=     0
 NROrb=    736 NOA=    98 NOB=    98 NVA=   638 NVB=   638

 **** Warning!!: The largest alpha MO coefficient is  0.12692146D+03


 **** Warning!!: The smallest alpha delta epsilon is  0.85040281D-01

 Symmetrizing basis deriv contribution to polar:
 IMax=3 JMax=2 DiffMx= 0.00D+00
 G2DrvN: will do    47 centers at a time, making    1 passes.
 Calling FoFCou, ICntrl=  3107 FMM=F I1Cent=   0 AccDes= 0.00D+00.
 End of G2Drv F.D. properties file   721 does not exist.
 End of G2Drv F.D. properties file   722 does not exist.
 End of G2Drv F.D. properties file   788 does not exist.
          IDoAtm=1111111111111111111111111111111111111111111111
          Differentiating once with respect to nuclear coordinates.
 CalDSu exits because no D1Ps are significant.
          There are   141 degrees of freedom in the 1st order CPHF.  IDoFFX=6 NUNeed=     0.
    135 vectors produced by pass  0 Test12= 6.25D-14 1.00D-09 XBig12= 3.00D-01 1.77D-01.
 AX will form   135 AO Fock derivatives at one time.
    135 vectors produced by pass  1 Test12= 6.25D-14 1.00D-09 XBig12= 8.63D-02 6.44D-02.
    135 vectors produced by pass  2 Test12= 6.25D-14 1.00D-09 XBig12= 1.07D-03 6.01D-03.
    135 vectors produced by pass  3 Test12= 6.25D-14 1.00D-09 XBig12= 7.34D-06 2.25D-04.
    135 vectors produced by pass  4 Test12= 6.25D-14 1.00D-09 XBig12= 2.41D-08 1.50D-05.
    135 vectors produced by pass  5 Test12= 6.25D-14 1.00D-09 XBig12= 1.02D-10 7.21D-07.
    112 vectors produced by pass  6 Test12= 6.25D-14 1.00D-09 XBig12= 1.38D-11 2.97D-07.
     82 vectors produced by pass  7 Test12= 6.25D-14 1.00D-09 XBig12= 2.23D-12 1.01D-07.
     50 vectors produced by pass  8 Test12= 6.25D-14 1.00D-09 XBig12= 1.53D-13 2.32D-08.
      7 vectors produced by pass  9 Test12= 6.25D-14 1.00D-09 XBig12= 1.17D-15 2.11D-09.
      3 vectors produced by pass 10 Test12= 6.25D-14 1.00D-09 XBig12= 4.91D-16 1.34D-09.
      1 vectors produced by pass 11 Test12= 6.25D-14 1.00D-09 XBig12= 4.17D-16 1.04D-09.
 InvSVY:  IOpt=1 It=  1 EMax= 7.77D-16
 Solved reduced A of dimension  1065 with   141 vectors.
 End of Minotr F.D. properties file   721 does not exist.
 End of Minotr F.D. properties file   722 does not exist.
 End of Minotr F.D. properties file   788 does not exist.

 **********************************************************************

            Population analysis using the SCF Density.

 **********************************************************************

 Orbital symmetries:
       Occupied  (A) (A) (A) (A) (A) (A) (A) (A) (A) (A) (A) (A)
                 (A) (A) (A) (A) (A) (A) (A) (A) (A) (A) (A) (A)
                 (A) (A) (A) (A) (A) (A) (A) (A) (A) (A) (A) (A)
                 (A) (A) (A) (A) (A) (A) (A) (A) (A) (A) (A) (A)
                 (A) (A) (A) (A) (A) (A) (A) (A) (A) (A) (A) (A)
                 (A) (A) (A) (A) (A) (A) (A) (A) (A) (A) (A) (A)
                 (A) (A) (A) (A) (A) (A) (A) (A) (A) (A) (A) (A)
                 (A) (A) (A) (A) (A) (A) (A) (A) (A) (A) (A) (A)
                 (A) (A)
       Virtual   (A) (A) (A) (A) (A) (A) (A) (A) (A) (A) (A) (A)
                 (A) (A) (A) (A) (A) (A) (A) (A) (A) (A) (A) (A)
                 (A) (A) (A) (A) (A) (A) (A) (A) (A) (A) (A) (A)
                 (A) (A) (A) (A) (A) (A) (A) (A) (A) (A) (A) (A)
                 (A) (A) (A) (A) (A) (A) (A) (A) (A) (A) (A) (A)
                 (A) (A) (A) (A) (A) (A) (A) (A) (A) (A) (A) (A)
                 (A) (A) (A) (A) (A) (A) (A) (A) (A) (A) (A) (A)
                 (A) (A) (A) (A) (A) (A) (A) (A) (A) (A) (A) (A)
                 (A) (A) (A) (A) (A) (A) (A) (A) (A) (A) (A) (A)
                 (A) (A) (A) (A) (A) (A) (A) (A) (A) (A) (A) (A)
                 (A) (A) (A) (A) (A) (A) (A) (A) (A) (A) (A) (A)
                 (A) (A) (A) (A) (A) (A) (A) (A) (A) (A) (A) (A)
                 (A) (A) (A) (A) (A) (A) (A) (A) (A) (A) (A) (A)
                 (A) (A) (A) (A) (A) (A) (A) (A) (A) (A) (A) (A)
                 (A) (A) (A) (A) (A) (A) (A) (A) (A) (A) (A) (A)
                 (A) (A) (A) (A) (A) (A) (A) (A) (A) (A) (A) (A)
                 (A) (A) (A) (A) (A) (A) (A) (A) (A) (A) (A) (A)
                 (A) (A) (A) (A) (A) (A) (A) (A) (A) (A) (A) (A)
                 (A) (A) (A) (A) (A) (A) (A) (A) (A) (A) (A) (A)
                 (A) (A) (A) (A) (A) (A) (A) (A) (A) (A) (A) (A)
                 (A) (A) (A) (A) (A) (A) (A) (A) (A) (A) (A) (A)
                 (A) (A) (A) (A) (A) (A) (A) (A) (A) (A) (A) (A)
                 (A) (A) (A) (A) (A) (A) (A) (A) (A) (A) (A) (A)
                 (A) (A) (A) (A) (A) (A) (A) (A) (A) (A) (A) (A)
                 (A) (A) (A) (A) (A) (A) (A) (A) (A) (A) (A) (A)
                 (A) (A) (A) (A) (A) (A) (A) (A) (A) (A) (A) (A)
                 (A) (A) (A) (A) (A) (A) (A) (A) (A) (A) (A) (A)
                 (A) (A) (A) (A) (A) (A) (A) (A) (A) (A) (A) (A)
                 (A) (A) (A) (A) (A) (A) (A) (A) (A) (A) (A) (A)
                 (A) (A) (A) (A) (A) (A) (A) (A) (A) (A) (A) (A)
                 (A) (A) (A) (A) (A) (A) (A) (A) (A) (A) (A) (A)
                 (A) (A) (A) (A) (A) (A) (A) (A) (A) (A) (A) (A)
                 (A) (A) (A) (A) (A) (A) (A) (A) (A) (A) (A) (A)
                 (A) (A) (A) (A) (A) (A) (A) (A) (A) (A) (A) (A)
                 (A) (A) (A) (A) (A) (A) (A) (A) (A) (A) (A) (A)
                 (A) (A) (A) (A) (A) (A) (A) (A) (A) (A) (A) (A)
                 (A) (A) (A) (A) (A) (A) (A) (A) (A) (A) (A) (A)
                 (A) (A) (A) (A) (A) (A) (A) (A) (A) (A) (A) (A)
                 (A) (A) (A) (A) (A) (A) (A) (A) (A) (A) (A) (A)
                 (A) (A) (A) (A) (A) (A) (A) (A) (A) (A) (A) (A)
                 (A) (A) (A) (A) (A) (A) (A) (A) (A) (A) (A) (A)
                 (A) (A) (A) (A) (A) (A) (A) (A) (A) (A) (A) (A)
                 (A) (A) (A) (A) (A) (A) (A) (A) (A) (A) (A) (A)
                 (A) (A) (A) (A) (A) (A) (A) (A) (A) (A) (A) (A)
                 (A) (A) (A) (A) (A) (A) (A) (A) (A) (A) (A) (A)
                 (A) (A) (A) (A) (A) (A) (A) (A) (A) (A) (A) (A)
                 (A) (A) (A) (A) (A) (A) (A) (A) (A) (A) (A) (A)
                 (A) (A) (A) (A) (A) (A) (A) (A) (A) (A) (A) (A)
                 (A) (A) (A) (A) (A) (A) (A) (A) (A) (A) (A) (A)
                 (A) (A) (A) (A) (A) (A) (A) (A) (A) (A) (A) (A)
                 (A) (A) (A) (A) (A) (A) (A) (A) (A) (A) (A) (A)
                 (A) (A) (A) (A) (A) (A) (A) (A) (A) (A) (A) (A)
                 (A) (A) (A) (A) (A) (A) (A) (A) (A) (A) (A) (A)
                 (A) (A)
 The electronic state is 1-A.
 Alpha  occ. eigenvalues --  -10.22913 -10.21662 -10.21120 -10.20671 -10.20570
 Alpha  occ. eigenvalues --  -10.19767 -10.19739 -10.19653 -10.19630 -10.19226
 Alpha  occ. eigenvalues --  -10.19157 -10.19131 -10.19107 -10.19023 -10.19005
 Alpha  occ. eigenvalues --  -10.18962 -10.18955 -10.18443 -10.18421 -10.18311
 Alpha  occ. eigenvalues --  -10.18267 -10.18249 -10.18212 -10.18185 -10.18128
 Alpha  occ. eigenvalues --  -10.18045 -10.17963 -10.16736 -10.16285 -10.16156
 Alpha  occ. eigenvalues --   -0.91735  -0.89254  -0.87181  -0.85265  -0.84437
 Alpha  occ. eigenvalues --   -0.82358  -0.80564  -0.79494  -0.78827  -0.75708
 Alpha  occ. eigenvalues --   -0.75091  -0.74771  -0.72468  -0.71789  -0.70920
 Alpha  occ. eigenvalues --   -0.66508  -0.65019  -0.63393  -0.63093  -0.62048
 Alpha  occ. eigenvalues --   -0.60121  -0.59857  -0.58220  -0.56493  -0.54551
 Alpha  occ. eigenvalues --   -0.53275  -0.52040  -0.51268  -0.50496  -0.49917
 Alpha  occ. eigenvalues --   -0.48970  -0.47412  -0.47137  -0.46782  -0.45233
 Alpha  occ. eigenvalues --   -0.44589  -0.44343  -0.43679  -0.43130  -0.42956
 Alpha  occ. eigenvalues --   -0.42092  -0.41827  -0.41234  -0.41041  -0.40733
 Alpha  occ. eigenvalues --   -0.40244  -0.39644  -0.38280  -0.37865  -0.37427
 Alpha  occ. eigenvalues --   -0.36027  -0.35767  -0.35494  -0.35213  -0.34317
 Alpha  occ. eigenvalues --   -0.34195  -0.32897  -0.32646  -0.31614  -0.30899
 Alpha  occ. eigenvalues --   -0.29766  -0.29082  -0.27435  -0.25211  -0.24863
 Alpha  occ. eigenvalues --   -0.22505  -0.21169  -0.19067
 Alpha virt. eigenvalues --   -0.10563  -0.05874  -0.05129  -0.03409  -0.02128
 Alpha virt. eigenvalues --   -0.01390   0.00039   0.00515   0.00535   0.00925
 Alpha virt. eigenvalues --    0.01352   0.01452   0.01798   0.02714   0.02822
 Alpha virt. eigenvalues --    0.02997   0.03310   0.03564   0.03968   0.04528
 Alpha virt. eigenvalues --    0.04698   0.05069   0.05208   0.05379   0.05987
 Alpha virt. eigenvalues --    0.06538   0.06726   0.06965   0.07167   0.07523
 Alpha virt. eigenvalues --    0.08088   0.08320   0.08550   0.08995   0.09318
 Alpha virt. eigenvalues --    0.09437   0.09779   0.10184   0.10590   0.11175
 Alpha virt. eigenvalues --    0.11503   0.11708   0.12050   0.12197   0.12564
 Alpha virt. eigenvalues --    0.12675   0.12811   0.13371   0.14166   0.14415
 Alpha virt. eigenvalues --    0.14770   0.14961   0.15132   0.15575   0.15835
 Alpha virt. eigenvalues --    0.16198   0.16294   0.16325   0.16644   0.16877
 Alpha virt. eigenvalues --    0.16939   0.17089   0.17122   0.17508   0.17725
 Alpha virt. eigenvalues --    0.18151   0.18204   0.18506   0.18801   0.18838
 Alpha virt. eigenvalues --    0.19088   0.19203   0.19387   0.19689   0.19866
 Alpha virt. eigenvalues --    0.20015   0.20263   0.20696   0.20869   0.20962
 Alpha virt. eigenvalues --    0.21322   0.21553   0.21739   0.21797   0.22033
 Alpha virt. eigenvalues --    0.22172   0.22443   0.22750   0.22974   0.23241
 Alpha virt. eigenvalues --    0.23548   0.23683   0.23831   0.23905   0.24290
 Alpha virt. eigenvalues --    0.24600   0.24723   0.25035   0.25219   0.25342
 Alpha virt. eigenvalues --    0.25625   0.25956   0.26273   0.26437   0.26617
 Alpha virt. eigenvalues --    0.27109   0.27414   0.27661   0.27715   0.28042
 Alpha virt. eigenvalues --    0.28235   0.28745   0.28952   0.29195   0.29460
 Alpha virt. eigenvalues --    0.29570   0.29879   0.29933   0.30131   0.30691
 Alpha virt. eigenvalues --    0.31028   0.31444   0.31666   0.31887   0.32236
 Alpha virt. eigenvalues --    0.32418   0.32495   0.33405   0.33755   0.33823
 Alpha virt. eigenvalues --    0.34037   0.34324   0.34703   0.35178   0.35520
 Alpha virt. eigenvalues --    0.36055   0.36226   0.36757   0.37118   0.37301
 Alpha virt. eigenvalues --    0.37879   0.38394   0.38512   0.38974   0.39145
 Alpha virt. eigenvalues --    0.39462   0.40264   0.40835   0.41215   0.41446
 Alpha virt. eigenvalues --    0.41769   0.42946   0.43246   0.44194   0.44674
 Alpha virt. eigenvalues --    0.45819   0.46010   0.47019   0.47513   0.48184
 Alpha virt. eigenvalues --    0.48829   0.49872   0.50364   0.50588   0.51220
 Alpha virt. eigenvalues --    0.51364   0.52553   0.52876   0.53000   0.53805
 Alpha virt. eigenvalues --    0.54220   0.54561   0.54612   0.55033   0.55394
 Alpha virt. eigenvalues --    0.55431   0.56092   0.56827   0.57033   0.57050
 Alpha virt. eigenvalues --    0.57547   0.57903   0.58170   0.58479   0.58966
 Alpha virt. eigenvalues --    0.59205   0.59395   0.60114   0.60322   0.60747
 Alpha virt. eigenvalues --    0.60972   0.61183   0.61752   0.62122   0.62733
 Alpha virt. eigenvalues --    0.63224   0.63564   0.63876   0.64608   0.65241
 Alpha virt. eigenvalues --    0.65388   0.65859   0.66848   0.67225   0.67876
 Alpha virt. eigenvalues --    0.68077   0.68393   0.68752   0.69513   0.69719
 Alpha virt. eigenvalues --    0.70136   0.70540   0.70991   0.71283   0.71448
 Alpha virt. eigenvalues --    0.71823   0.72128   0.72275   0.72533   0.72670
 Alpha virt. eigenvalues --    0.73101   0.73720   0.73924   0.74192   0.74443
 Alpha virt. eigenvalues --    0.74619   0.75130   0.75355   0.75983   0.76619
 Alpha virt. eigenvalues --    0.76756   0.76998   0.77556   0.77741   0.78698
 Alpha virt. eigenvalues --    0.79093   0.79929   0.80955   0.81595   0.81813
 Alpha virt. eigenvalues --    0.82604   0.83326   0.83434   0.84326   0.85417
 Alpha virt. eigenvalues --    0.85956   0.86397   0.86759   0.87668   0.87875
 Alpha virt. eigenvalues --    0.88164   0.88351   0.89368   0.89462   0.89801
 Alpha virt. eigenvalues --    0.90400   0.91045   0.91248   0.91952   0.92016
 Alpha virt. eigenvalues --    0.92199   0.93094   0.93189   0.93807   0.94050
 Alpha virt. eigenvalues --    0.94465   0.94820   0.94921   0.95293   0.95702
 Alpha virt. eigenvalues --    0.96206   0.96498   0.97148   0.97378   0.98147
 Alpha virt. eigenvalues --    0.98534   0.99300   0.99959   1.00742   1.01040
 Alpha virt. eigenvalues --    1.01741   1.01981   1.02160   1.03388   1.03881
 Alpha virt. eigenvalues --    1.04510   1.04804   1.06111   1.06724   1.07261
 Alpha virt. eigenvalues --    1.07580   1.08647   1.08928   1.09699   1.10505
 Alpha virt. eigenvalues --    1.11232   1.11448   1.12260   1.12729   1.13748
 Alpha virt. eigenvalues --    1.14485   1.15480   1.16589   1.17419   1.18225
 Alpha virt. eigenvalues --    1.18893   1.20888   1.21520   1.22429   1.23442
 Alpha virt. eigenvalues --    1.24403   1.26297   1.27096   1.28044   1.29110
 Alpha virt. eigenvalues --    1.30094   1.31453   1.33291   1.35119   1.36144
 Alpha virt. eigenvalues --    1.36513   1.37209   1.38266   1.40398   1.40953
 Alpha virt. eigenvalues --    1.42570   1.42947   1.43266   1.44220   1.44991
 Alpha virt. eigenvalues --    1.45327   1.45976   1.46706   1.47799   1.47914
 Alpha virt. eigenvalues --    1.48783   1.49294   1.49689   1.50002   1.50461
 Alpha virt. eigenvalues --    1.51539   1.52190   1.52439   1.52963   1.54051
 Alpha virt. eigenvalues --    1.55074   1.55433   1.55737   1.56062   1.56868
 Alpha virt. eigenvalues --    1.57608   1.58004   1.58328   1.59009   1.60052
 Alpha virt. eigenvalues --    1.60381   1.60811   1.61229   1.61754   1.62565
 Alpha virt. eigenvalues --    1.64181   1.64579   1.64874   1.65813   1.66768
 Alpha virt. eigenvalues --    1.67623   1.68637   1.69352   1.70322   1.71002
 Alpha virt. eigenvalues --    1.71547   1.72002   1.72741   1.73057   1.73693
 Alpha virt. eigenvalues --    1.74164   1.75137   1.75666   1.75770   1.76739
 Alpha virt. eigenvalues --    1.76893   1.77976   1.78679   1.79840   1.80156
 Alpha virt. eigenvalues --    1.80843   1.81928   1.82164   1.82890   1.83565
 Alpha virt. eigenvalues --    1.84864   1.85667   1.85993   1.86330   1.86666
 Alpha virt. eigenvalues --    1.87014   1.87838   1.88006   1.88380   1.89128
 Alpha virt. eigenvalues --    1.89860   1.90278   1.91100   1.91415   1.92502
 Alpha virt. eigenvalues --    1.93601   1.94321   1.94627   1.95200   1.96011
 Alpha virt. eigenvalues --    1.96798   1.97136   1.97219   1.97681   1.99499
 Alpha virt. eigenvalues --    1.99843   1.99967   2.01588   2.02241   2.02902
 Alpha virt. eigenvalues --    2.04266   2.04689   2.05722   2.06064   2.07150
 Alpha virt. eigenvalues --    2.08159   2.08922   2.09328   2.10189   2.10596
 Alpha virt. eigenvalues --    2.11439   2.11763   2.12744   2.13508   2.14677
 Alpha virt. eigenvalues --    2.14793   2.16668   2.18041   2.18814   2.19549
 Alpha virt. eigenvalues --    2.20884   2.21589   2.21978   2.22570   2.23655
 Alpha virt. eigenvalues --    2.24032   2.24675   2.25559   2.25802   2.29085
 Alpha virt. eigenvalues --    2.29129   2.30013   2.31662   2.33258   2.34867
 Alpha virt. eigenvalues --    2.35451   2.36679   2.37583   2.38885   2.40100
 Alpha virt. eigenvalues --    2.40587   2.41485   2.42097   2.42983   2.43653
 Alpha virt. eigenvalues --    2.46051   2.46357   2.47428   2.48562   2.49022
 Alpha virt. eigenvalues --    2.51810   2.54002   2.54645   2.55635   2.56743
 Alpha virt. eigenvalues --    2.57438   2.57871   2.59529   2.62198   2.63033
 Alpha virt. eigenvalues --    2.64535   2.65631   2.66598   2.67933   2.68565
 Alpha virt. eigenvalues --    2.69537   2.70383   2.70653   2.71168   2.71614
 Alpha virt. eigenvalues --    2.71851   2.72386   2.72906   2.73404   2.73852
 Alpha virt. eigenvalues --    2.74386   2.74939   2.75510   2.75903   2.76686
 Alpha virt. eigenvalues --    2.76960   2.77275   2.77762   2.78187   2.78608
 Alpha virt. eigenvalues --    2.79498   2.80261   2.81230   2.81714   2.82307
 Alpha virt. eigenvalues --    2.82746   2.83736   2.84739   2.85114   2.85394
 Alpha virt. eigenvalues --    2.85736   2.87396   2.88032   2.88625   2.90141
 Alpha virt. eigenvalues --    2.90368   2.91978   2.92440   2.92846   2.93729
 Alpha virt. eigenvalues --    2.93924   2.95627   2.96272   3.00406   3.01270
 Alpha virt. eigenvalues --    3.01810   3.04134   3.04743   3.06473   3.07864
 Alpha virt. eigenvalues --    3.09954   3.11056   3.11538   3.13319   3.14012
 Alpha virt. eigenvalues --    3.16866   3.18207   3.18965   3.19990   3.20535
 Alpha virt. eigenvalues --    3.21180   3.22267   3.22834   3.24623   3.27032
 Alpha virt. eigenvalues --    3.29113   3.29483   3.32105   3.32728   3.35300
 Alpha virt. eigenvalues --    3.35995   3.38527   3.38686   3.39144   3.40070
 Alpha virt. eigenvalues --    3.42329   3.43059   3.44179   3.45014   3.47696
 Alpha virt. eigenvalues --    3.49251   3.50119   3.50930   3.52972   3.54995
 Alpha virt. eigenvalues --    3.55721   3.57634   3.58572   3.61336   3.62710
 Alpha virt. eigenvalues --    3.62945   3.67855   3.68519   3.71391   3.78014
 Alpha virt. eigenvalues --    3.82795   3.84050   3.85900   3.89465   3.91920
 Alpha virt. eigenvalues --    4.01739   4.05272   4.06276   4.06929   4.09985
 Alpha virt. eigenvalues --    4.10182   4.10656   4.11065   4.18643   4.21132
 Alpha virt. eigenvalues --    4.24846   4.29230   4.33835   4.43747   4.52625
 Alpha virt. eigenvalues --    4.67418   4.69355   4.75659   4.76817   4.79137
 Alpha virt. eigenvalues --    4.80834   4.82160   4.88834  23.42377  23.56948
 Alpha virt. eigenvalues --   23.68416  23.75115  23.79519  23.82188  23.84620
 Alpha virt. eigenvalues --   23.85787  23.89018  23.89770  23.91044  23.91286
 Alpha virt. eigenvalues --   23.92007  23.93683  23.95586  23.99260  23.99560
 Alpha virt. eigenvalues --   24.00919  24.05854  24.07663  24.11491  24.11623
 Alpha virt. eigenvalues --   24.12643  24.13688  24.14915  24.16649  24.19284
 Alpha virt. eigenvalues --   24.19792  24.22316  24.23047
          Condensed to atoms (all electrons):
               1          2          3          4          5          6
     1  C   14.730830   0.110483   1.232812  -0.352898  -1.141953  -2.346539
     2  C    0.110483  10.075944   1.024836  -1.236859  -1.120566  -2.071868
     3  C    1.232812   1.024836   9.936889  -1.630245   0.671075  -1.291900
     4  C   -0.352898  -1.236859  -1.630245  11.144866   0.946427   1.691625
     5  C   -1.141953  -1.120566   0.671075   0.946427   9.334088  -0.363447
     6  C   -2.346539  -2.071868  -1.291900   1.691625  -0.363447  16.435895
     7  C   -0.915361   0.129438   0.769864  -2.349144   2.865989  -3.975756
     8  C   -0.726941   0.051923  -2.262560   2.984709  -1.166550   0.005525
     9  C   -1.343276  -1.371218  -1.533410  -0.357167   1.581668   1.418702
    10  C   -1.546960   0.862914   0.982694  -0.118226  -0.126767   0.023012
    11  C   -0.054801  -0.959585  -0.283388  -0.209290   0.595583   0.201736
    12  C    0.838279  -0.270981   1.781998  -1.541364  -1.111758   0.405556
    13  C   -1.699961   0.144898  -0.925201  -0.127782  -0.870225  -0.309002
    14  C   -1.498121  -0.426088  -0.293523  -0.057406   0.055101   0.375012
    15  C    2.099136   0.598472   0.325655  -1.664750  -1.723987  -3.539774
    16  C    0.160747   0.976971   0.406316  -0.942894  -0.899254  -0.700879
    17  C   -0.833560   0.958409  -1.015440  -0.145941  -0.433211   0.181916
    18  C   -0.250958   0.488579   0.108359  -0.233338  -0.724904  -0.043117
    19  C    0.597170  -0.132836  -0.368121  -0.130618  -0.201496   0.191274
    20  C   -0.493357   0.162478  -0.247542   0.241496   0.078594  -0.042898
    21  C   -0.004870  -0.347949  -0.230193  -0.144241  -0.064637  -0.033792
    22  C    0.440277  -0.699940  -1.023389   0.117442   0.009246   0.094068
    23  C   -0.695914   0.351152   0.019570  -0.245483  -0.017528  -0.057945
    24  C   -0.314676  -0.231281   0.068041   0.109809   0.020334  -0.094117
    25  C   -0.206988   0.051381  -0.053242  -0.016755  -0.025210  -0.021565
    26  C    0.079943  -0.003278  -0.082105   0.013529   0.018242   0.019239
    27  C    0.533290  -0.267630   0.071621   0.196187   0.079225   0.039545
    28  C    0.442379  -0.069466  -0.003952   0.185387   0.004619  -0.085689
    29  C    0.916759  -0.790489  -0.161475   0.706368  -0.103402  -0.563755
    30  C   -1.334697   0.579586  -0.064717  -0.840359  -0.131786  -0.061054
    31  H    0.093325   0.006774   0.006251  -0.001445   0.002726  -0.020051
    32  H   -0.012018  -0.006211  -0.000554   0.004600  -0.005351  -0.028282
    33  H   -0.008374   0.000463  -0.007119   0.059996  -0.019135  -0.039735
    34  H   -0.002541   0.001975   0.000614  -0.019294   0.028002  -0.051384
    35  H   -0.001064  -0.001531  -0.009282  -0.002350   0.004650   0.011588
    36  H    0.001841  -0.003363   0.031325  -0.002412  -0.016940  -0.000872
    37  H   -0.001012  -0.009600   0.005369   0.005436   0.003160   0.001019
    38  H   -0.000596  -0.010204   0.008475  -0.000919   0.000764  -0.000073
    39  H    0.000056   0.000380   0.000390   0.000169   0.000241   0.000010
    40  H   -0.000358   0.001499   0.000026   0.000062   0.000021  -0.000003
    41  H    0.000761  -0.000298   0.000130  -0.000012   0.000005   0.000010
[...]
 7,-0.00021617,0.00069881,0.00034613,-0.00002322,-0.00001206,0.00037469
 ,-0.00004222,0.01201219,0.01760548,-0.00444201,-0.10041972,-0.09487085
 ,0.02526969,-0.00702669,-0.02918691,0.00702467,-0.00473218,0.00111679,
 0.00081208,-0.00003137,0.00002109,0.00003135,-0.00002985,0.00001293,-0
 .00000070,-0.00000639,0.00000388,-0.00000474,-0.00000345,-0.00000207,-
 0.00000248,-0.00000414,-0.00000381,-0.00000021,-0.00000089,-0.00000273
 ,0.00000005,0.,-0.00000192,-0.00000093,-0.00000024,-0.00000203,0.00000
 017,0.00000305,-0.00000728,-0.00000032,0.00002332,0.00009391,-0.000000
 23,-0.00004298,-0.00000708,0.00000465,0.00075516,-0.00064107,-0.000141
 92,0.10120548,-0.00005156,0.00010940,-0.00006718,0.00000919,-0.0000205
 4,-0.00000395,-0.00000172,-0.00001684,-0.00000887,-0.00003888,-0.00001
 702,-0.00000077,-0.00000878,0.00002014,-0.00000419,-0.00004005,-0.0000
 1225,0.00002075,0.00002563,0.00000195,0.00001463,-0.00000650,-0.000019
 63,-0.00000290,-0.00002853,-0.00000092,-0.00000148,-0.00001995,-0.0000
 0086,0.00000832,0.00001740,0.00000322,0.00000263,-0.00000703,0.0000117
 0,0.00000127,0.00007417,-0.00022172,0.00010717,0.00001158,-0.00002347,
 -0.00001996,0.00002245,-0.00001363,-0.00001599,-0.00002463,-0.00003978
 ,0.00000102,-0.00005426,0.00002345,0.00001176,0.00001843,-0.00000043,0
 .00000020,-0.00006211,0.00013157,-0.00024885,0.00015997,0.00008657,0.0
 0004070,-0.00004578,-0.00002494,0.00000947,0.00003724,-0.00001313,-0.0
 0000335,0.00035644,0.00008011,-0.00014917,0.00417005,-0.00105332,0.002
 11768,-0.00099416,-0.00071020,0.00012376,0.00034751,-0.00038608,-0.000
 10471,-0.01279780,-0.01738283,0.00538969,-0.09509856,-0.28032267,0.061
 25961,0.00157527,0.00080574,0.00029370,0.00030927,0.00200695,0.0009097
 4,0.00000174,-0.00002717,-0.00000280,-0.00001127,0.00000964,0.00000034
 ,-0.00000491,0.00000543,-0.00000321,-0.00000577,-0.00000168,-0.0000022
 5,-0.00000577,-0.00000096,-0.00000159,-0.00000190,-0.00000564,-0.00000
 170,-0.00000218,-0.00000693,-0.00000028,-0.00000551,-0.00000816,-0.000
 00045,0.00000536,0.00000134,-0.00000021,-0.00004046,-0.00012879,0.0000
 0087,0.00005143,0.00000930,0.00003205,0.00019633,0.00066102,-0.0011814
 6,0.10242100,0.29587220,-0.00007878,-0.00005184,-0.00016237,-0.0000288
 7,0.00001173,-0.00001415,0.00000946,-0.00000522,-0.00000221,0.00000690
 ,-0.00000406,0.00001092,0.00000620,0.00000523,0.00001211,0.00002071,-0
 .00001072,0.00000411,-0.00000027,-0.00000452,-0.00000498,-0.00000043,0
 .00000597,-0.00000327,0.00001355,0.00000223,0.00000081,0.00000746,0.00
 000865,0.00000254,-0.00000151,-0.00000248,-0.00000315,-0.00000120,-0.0
 0000476,0.00000151,-0.00003285,0.00016352,0.00009313,0.00008558,-0.000
 11901,-0.00003155,-0.00000771,0.00001411,-0.00001114,0.00002663,0.0000
 0518,0.00000134,0.00001552,-0.00000835,0.00003265,-0.00000933,-0.00000
 426,-0.00000137,-0.00000671,-0.00014322,-0.00090708,-0.00012980,0.0000
 4338,0.00011812,0.00000021,-0.00000509,0.00004560,0.00000195,-0.000006
 19,-0.00000538,-0.00044809,0.00007145,-0.00053015,-0.00077967,0.001888
 30,0.00799048,0.00034176,0.00008334,0.00011254,-0.00000051,0.00013569,
 -0.00054420,0.00293075,0.00320051,0.00290546,0.02417222,0.06139476,-0.
 05234910,0.00160393,0.00285056,0.00197836,0.00088002,-0.00000685,0.005
 98902,0.00009191,0.00005138,0.00001354,-0.00000266,0.00000115,0.000006
 85,0.00000057,-0.00000018,0.00000049,-0.00000033,0.00000041,0.00000219
 ,0.00000036,-0.00000009,0.00000142,-0.00000041,0.00000034,0.00000139,0
 .00000117,-0.00000006,0.00000502,0.00000099,0.00000153,-0.00000027,-0.
 00000124,-0.00000225,0.00000073,0.00001428,0.00003051,0.00000754,-0.00
 001758,0.00000646,0.00010899,-0.00025882,-0.00107466,-0.00418110,-0.02
 806964,-0.06769482,0.04243461,0.00016953,0.00015482,0.00003815,0.00005
 524,-0.00006261,0.00003449,0.00005294,0.00005643,0.00000694,-0.0001480
 0,0.00003580,-0.00002285,0.00000426,0.00003605,-0.00002586,0.00008989,
 -0.00010438,0.00001796,-0.00007540,0.00001622,-0.00002454,0.00003150,0
 .00005516,0.00000236,0.00001960,-0.00005447,0.00000188,-0.00004655,0.0
 0001954,-0.00000945,0.00004207,0.00000998,0.00001155,-0.00003239,0.000
 02889,0.00000054,-0.00073921,-0.00116944,0.00011567,-0.00363504,-0.001
 11230,0.00195477,-0.00007571,0.00005653,0.00000351,0.00001369,0.000016
 46,0.00000017,-0.00005099,0.00005803,0.00001939,0.00004390,0.00000848,
 0.00000231,0.00061186,-0.00018387,-0.00003305,0.00006415,-0.00011620,-
 0.00008808,0.00001291,-0.00008399,0.00000242,0.00007529,-0.00002082,-0
 .00000743,-0.00092269,-0.00263404,0.00136148,-0.00016706,-0.00095400,0
 .00020119,-0.00007861,0.00029550,-0.00012958,-0.00009733,-0.00015734,0
 .00004229,-0.00569485,-0.00194975,0.00140929,-0.01547519,0.02764450,-0
 .00392586,-0.14904660,0.13231713,-0.02003550,0.01020750,-0.01084779,0.
 00191297,-0.00325008,0.00042749,0.00289590,-0.00007471,0.00005507,0.00
 008088,0.00000295,-0.00000599,0.00000832,0.00000797,0.00000747,0.00000
 102,0.00000643,0.00000390,0.00000018,0.00000061,0.00000474,-0.00000022
 ,-0.00000303,0.00000243,0.00000042,0.00000054,0.00000186,-0.00000057,-
 0.00000726,-0.00002175,-0.00000084,0.00000106,0.00001241,0.00000391,0.
 00007542,-0.00004679,0.00000187,-0.00080710,0.00124273,-0.00032864,0.0
 0102242,-0.00040142,-0.00037813,0.16772794,-0.00013471,-0.00000992,-0.
 00030260,-0.00003488,-0.00000293,0.00007668,0.00005616,0.00012489,0.00
 000966,0.00001907,0.00009911,0.00004992,-0.00004724,-0.00007296,0.0000
 7683,0.00011390,0.00003063,0.00014902,-0.00009747,0.00007187,-0.000028
 89,0.00005628,0.00007531,-0.00000384,0.00002154,-0.00008535,0.00001682
 ,-0.00008693,-0.00001038,-0.00000303,0.00010657,0.00003145,0.00003041,
 -0.00006513,0.00006995,-0.00001740,0.00162904,-0.00192857,-0.00104902,
 0.00115916,-0.00001780,-0.00076863,-0.00029691,0.00036202,-0.00041177,
 0.00022135,0.00001781,-0.00003642,-0.00006525,-0.00001150,0.00002391,0
 .00005113,0.00000949,-0.00000244,0.00115154,-0.00016332,0.00007603,-0.
 00022352,-0.00037558,-0.00011934,0.00005191,-0.00000721,0.00000620,0.0
 0004769,-0.00008847,-0.00000836,-0.00340956,-0.00245111,0.00232872,-0.
 00051280,0.00005832,-0.00021590,-0.00001212,0.00015579,-0.00012295,-0.
 00008674,-0.00008209,0.00003999,-0.00075810,0.00140198,0.00103609,-0.0
 0432063,0.00579182,0.00002889,0.13083457,-0.24042132,0.03487025,0.0156
 1556,-0.01998883,0.00336099,0.00150374,0.00193174,-0.00059074,-0.00000
 357,0.00001994,0.00011323,-0.00000060,-0.00000171,0.00001504,0.0000076
 4,0.00001179,-0.00000335,0.00000396,0.00000895,-0.00000380,-0.00000184
 ,0.00000204,-0.00000515,-0.00000760,-0.00000120,-0.00000110,-0.0000104
 7,-0.00000400,-0.00000155,-0.00000757,-0.00005226,-0.00000813,0.000014
 14,-0.00001626,0.00000581,0.00004050,-0.00001405,0.00000562,-0.0002635
 7,0.00009501,0.00000860,0.00021257,0.00064277,-0.00085732,-0.14245124,
 0.25460626,-0.00021265,-0.00041280,-0.00021558,-0.00010005,-0.00002430
 ,0.00009581,0.00001236,-0.00000474,0.00003875,0.00041421,-0.00002553,0
 .00018490,0.00001703,-0.00008505,0.00000106,-0.00004168,0.00033842,-0.
 00032313,-0.00005432,-0.00007999,0.00001480,-0.00004193,0.00006703,-0.
 00000381,0.00004554,-0.00003422,0.00000929,0.00000014,-0.00005527,-0.0
 0002213,0.00002963,-0.00002494,0.00000130,0.00000611,0.00003001,0.0000
 0107,-0.00003392,-0.00054947,-0.00338680,0.00154314,0.00134787,-0.0003
 9626,-0.00044162,-0.00023105,0.00041611,-0.00002014,0.00002566,-0.0000
 3411,0.00005259,-0.00003882,-0.00005427,-0.00006010,-0.00002108,0.0000
 1263,-0.00056097,-0.00010944,0.00074975,-0.00009785,0.00020780,-0.0004
 8242,0.00002425,0.00008252,-0.00001147,-0.00009647,0.00004174,0.000003
 99,0.00126121,0.00277830,0.00578133,0.00095416,0.00060499,-0.00103806,
 0.00001925,-0.00037391,-0.00054087,0.00024988,0.00012687,0.00015400,0.
 00142915,-0.00001676,0.00571671,0.00087601,-0.00253204,0.00479119,-0.0
 1693653,0.03604405,-0.04256589,-0.00547489,0.00226721,0.00319648,0.002
 95212,-0.00115241,-0.00113940,-0.00008275,0.00004222,0.00000907,-0.000
 00319,0.00000350,0.00000333,-0.00000357,-0.00000830,-0.00000558,0.0000
 0028,0.00000090,-0.00000628,0.00000003,-0.00000134,-0.00000044,0.00000
 161,-0.00000034,0.00000383,0.00000152,-0.00000097,0.00000831,0.0000019
 1,0.00001985,-0.00002108,-0.00000527,0.00000757,0.00003652,-0.00002928
 ,0.00001694,0.00002206,0.00014283,-0.00018012,0.00014489,-0.00043842,-
 0.00084251,-0.00309068,0.01502828,-0.03732900,0.03218106,-0.00086393,-
 0.00220389,0.00039494,0.00005394,0.00050038,0.00027545,-0.00029599,0.0
 0017045,-0.00006194,0.00183452,-0.00001227,0.00046644,-0.00030211,-0.0
 0082292,0.00013315,0.00370733,0.00221575,-0.00162196,-0.00102464,-0.00
 025973,-0.00003421,-0.00003601,0.00091150,0.00002263,0.00054078,-0.000
 36210,0.00013811,-0.00011566,-0.00000630,-0.00003017,0.00018585,-0.000
 05027,0.00001306,-0.00003387,0.00017076,-0.00002907,-0.00442939,-0.001
 40880,0.00874127,-0.06185757,-0.00439182,0.04934778,0.00276691,0.00352
 513,-0.02085694,0.00013526,-0.00006147,-0.00003444,-0.00000209,0.00005
 915,-0.00001750,0.00002563,-0.00004474,0.00000980,-0.00011809,-0.00008
 467,0.00004807,0.00000613,0.00005819,-0.00001420,-0.00001742,-0.000047
 42,-0.00000352,0.00003356,-0.00001387,-0.00000538,-0.00029625,0.000070
 74,0.00002284,-0.00007562,0.00007501,-0.00004668,-0.00002803,0.0000264
 8,-0.00002054,-0.00003029,-0.00002566,0.00000643,-0.00013182,0.0000447
 7,-0.00001790,0.00007154,0.00026936,0.00009669,-0.00058143,-0.00058546
 ,0.00014500,0.00068675,0.00061167,0.00062435,-0.00279322,-0.00051866,0
 .01810580,-0.00114504,0.00000199,-0.00121564,0.00002373,-0.00001054,-0
 .00003814,0.00002397,0.00003086,-0.00000509,0.00000624,0.00000909,-0.0
 0000473,-0.00000342,-0.00000127,0.00000554,0.00000087,0.00000025,-0.00
 000107,0.00000460,0.00000012,0.00000175,-0.00000329,0.00000255,0.00000
 234,-0.00000146,0.00000545,0.00000315,-0.00000997,0.00000783,-0.000007
 20,-0.00002853,0.00002142,-0.00003617,-0.00000016,-0.00001257,0.000030
 07,0.00015702,0.00033982,-0.00030372,0.06054256,0.00196486,0.00289882,
 -0.00178678,0.00000256,-0.00048400,-0.00017060,0.00022950,0.00041100,0
 .00000466,-0.00084232,0.00100681,0.00084160,-0.00018289,-0.00016103,0.
 00016244,-0.00033399,0.00006953,-0.00079787,-0.00011389,0.00002349,0.0
 0005890,0.00005230,0.00004700,-0.00000112,-0.00005930,-0.00000092,-0.0
 0000881,-0.00002066,-0.00027991,-0.00006263,0.00005469,0.00003350,0.00
 004216,0.00001781,0.00007385,0.00000740,0.00774101,-0.00153878,-0.0211
 6574,-0.00464424,-0.05126084,0.02008966,-0.00160163,-0.00116760,0.0011
 4365,-0.00005883,0.00003811,-0.00001227,0.00000783,0.00003029,0.000034
 70,-0.00007510,0.00007841,0.00000964,0.00004364,0.00010065,0.00000423,
 -0.00002026,-0.00003333,-0.00000086,-0.00003021,0.00003290,-0.00000634
 ,0.00002266,-0.00002539,0.00000123,0.00049662,0.00000259,-0.00003470,-
 0.00003874,-0.00006734,0.00008895,0.00002827,-0.00002061,0.00002121,-0
 .00000090,0.00003985,-0.00000850,0.00004017,-0.00000722,-0.00006826,-0
 .00015577,0.00024375,-0.00006341,0.00018691,-0.00009894,0.00055778,-0.
 00180135,-0.00059274,-0.00080742,-0.00408385,-0.00044381,0.02455903,0.
 00058539,-0.00003954,0.00035999,0.00001340,-0.00002684,0.00000902,0.00
 001330,0.00000155,-0.00000728,0.00000833,0.00000912,-0.00000538,0.0000
 0996,0.00000818,-0.00000760,-0.00000519,0.00000999,0.00000179,-0.00000
 268,0.00000599,0.00000126,-0.00000256,-0.00000157,-0.00000029,-0.00000
 020,-0.00000099,0.00000038,0.00000337,-0.00000759,0.00001131,-0.000028
 79,0.00002542,-0.00001052,0.00001731,-0.00000143,0.00001930,0.00009134
 ,0.00030388,-0.00020327,0.00398914,0.05157348,-0.00016442,0.00029108,0
 .00107563,-0.00010941,0.00021510,0.00020240,-0.00021340,0.00000919,-0.
 00005781,0.00030831,-0.00097706,0.00107035,0.00000816,-0.00021885,-0.0
 0021068,0.00136982,0.00236674,0.00095208,-0.00054096,-0.00027845,0.000
 13476,0.00011594,0.00025759,-0.00005847,0.00004673,-0.00022443,0.00011
 247,0.00005203,-0.00007559,-0.00004858,-0.00008010,-0.00011131,-0.0000
 2159,0.00008871,0.00004005,0.00001211,0.00198232,0.00003802,-0.0086051
 4,0.05133990,0.01938128,-0.27706558,-0.00064359,0.00087990,-0.01490355
 ,0.00002780,-0.00005924,-0.00001666,0.00004656,0.00002592,-0.00000689,
 -0.00010657,0.00001685,0.00001646,-0.00003586,-0.00006191,-0.00000758,
 -0.00003487,-0.00003686,0.00001266,0.00002820,0.00003455,0.00000250,-0
 .00004491,0.00001676,0.00000423,0.00002262,0.00015921,-0.00011193,0.00
 011460,0.00010034,0.00000490,0.00001819,-0.00001768,0.00002642,0.00002
 545,0.00003050,-0.00000277,0.00014025,-0.00012032,0.00001509,-0.000158
 74,-0.00004515,-0.00008347,0.00028394,0.00014566,-0.00002348,-0.000157
 09,-0.00014634,-0.00053423,0.00077268,0.00066619,-0.00322547,-0.000124
 01,-0.00067777,-0.00164273,0.00003190,0.00000091,-0.00002569,-0.000008
 02,-0.00000045,-0.00003118,-0.00001415,-0.00000945,-0.00001213,0.00000
 081,-0.00000875,0.00001083,-0.00000031,-0.00000669,-0.00000776,-0.0000
 0386,-0.00000593,-0.00000239,0.00000898,-0.00000409,-0.00000402,0.0000
 0495,-0.00000843,-0.00000514,0.00000879,0.00000081,-0.00000665,0.00000
 948,-0.00000500,0.00001502,0.00001395,0.00001443,-0.00001920,0.0000619
 6,-0.00009157,0.00003667,-0.05337867,-0.01914880,0.30698641,0.03664068
 ,0.02853784,-0.01220166,0.00061198,-0.00902546,-0.00337881,0.00480755,
 0.00165600,0.00010486,-0.03123222,0.00860165,-0.00076248,0.00428928,0.
 00953402,0.00013956,-0.03783874,-0.03707169,0.02148509,0.01374450,0.00
 814077,0.00691212,0.00060408,-0.01473239,0.00129829,-0.00938265,0.0079
 9631,-0.00285030,0.00230702,-0.00290564,-0.00058880,-0.00279180,0.0012
 2794,-0.00011978,0.00113626,-0.00288610,0.00040923,0.00799098,-0.05241
 540,0.06792742,-0.00000282,0.00303374,-0.00569620,0.05458617,-0.018567
 00,-0.04523913,-0.00207795,0.00020647,0.00031334,0.00088665,0.00020178
 ,0.00024759,-0.00202559,0.00137944,0.00033520,0.00094843,0.00183441,0.
 00002574,0.00086084,-0.00105641,0.00009328,0.00052387,0.00079159,0.000
 04077,-0.00056145,0.00054660,0.00004566,0.00158914,-0.00502080,-0.0014
 7762,-0.00095174,-0.00110443,0.00074414,0.00020379,-0.00024684,0.00018
 725,-0.00038730,0.00038799,-0.00013246,-0.00042756,0.00101587,-0.00020
 127,0.00004918,0.00035732,0.00021213,0.00004141,0.00370999,-0.00034846
 ,-0.01833052,0.00299230,-0.00769860,-0.00091597,0.00079769,-0.00034164
 ,0.00055986,-0.00069134,-0.00077195,0.00014263,0.00013950,-0.00051044,
 0.00010028,-0.00024234,-0.00038734,-0.00004317,-0.00007754,0.00007292,
 0.00009282,0.00001990,-0.00002372,-0.00004630,0.00006723,-0.00004690,-
 0.00002347,0.00001645,0.00003372,0.00003283,0.00002248,0.00000240,0.00
 000163,0.00001192,-0.00001375,-0.00002925,0.00001849,0.00001217,-0.000
 02308,-0.00000781,-0.00001383,-0.00003181,-0.00003844,-0.00000766,-0.0
 0006890,-0.00035936,-0.00002396,0.00341812,-0.00151706,-0.00111410,-0.
 02897771,-0.02910065,-0.03187762,0.02589830,-0.00009692,0.00592411,0.0
 0223344,-0.00361098,-0.00267603,-0.00063710,0.01689643,-0.01089661,0.0
 0888664,-0.00222277,-0.00390826,-0.00113841,0.01786962,0.02623829,-0.0
 0571283,-0.00926206,-0.00585734,-0.00385848,0.00021389,0.00920393,-0.0
 0138062,0.00601097,-0.00547535,0.00204101,-0.00146177,0.00277066,0.000
 39775,0.00082707,-0.00142474,-0.00023608,-0.00015906,0.00133263,-0.000
 22831,-0.02510397,0.02374173,-0.05106430,0.00169976,-0.00385200,-0.023
 84363,-0.04513545,-0.00494484,0.03469904,0.00120131,0.00004787,-0.0000
 9984,-0.00049626,-0.00019131,-0.00017976,0.00151748,-0.00065507,-0.000
 19061,-0.00071132,-0.00097817,-0.00013478,-0.00028954,0.00070447,-0.00
 011172,-0.00010521,-0.00070774,-0.00001220,0.00025783,-0.00014828,-0.0
 0003480,-0.00112519,0.00232145,0.00106744,0.00031793,0.00015099,-0.000
 11270,-0.00006130,0.00047919,-0.00016318,0.00002573,-0.00042100,0.0000
 8702,-0.00048756,-0.00017534,0.00000220,0.00114511,-0.00022318,-0.0004
 0562,-0.00233801,-0.00202071,0.00051414,0.00961937,-0.00136746,-0.0010
 0470,0.00097636,0.00002182,0.00062960,0.00122358,-0.00152293,-0.004384
 92,-0.00012941,-0.00002073,0.00041047,-0.00014297,0.00014767,0.0002459
 9,-0.00002923,-0.00003156,-0.00003578,-0.00006354,-0.00004630,0.000180
 21,0.00004476,-0.00008206,0.00002258,0.00002778,-0.00001774,-0.0000097
 8,-0.00002083,0.00000356,-0.00000049,-0.00000873,0.00001236,0.00000910
 ,0.00002010,-0.00001454,0.00000936,0.00004045,0.00002781,0.00008695,-0
 .00001895,-0.00002149,0.00001026,-0.00028077,-0.00011601,0.00028424,-0
 .00219342,-0.00080772,-0.00235096,0.06472036,0.00735357,0.01125451,0.0
 1061383,-0.00935003,0.00043324,-0.00072628,-0.00115534,0.00062229,0.00
 171497,0.00026110,-0.00384950,0.00546993,-0.00323935,0.00212457,0.0008
 2220,0.00110340,-0.00866509,-0.00973126,0.00155265,0.00424040,0.002777
 79,0.00176800,-0.00082355,-0.00391774,0.00049860,-0.00303418,0.0028169
 2,-0.00140519,0.00105173,-0.00160243,-0.00019427,0.00007405,0.00080181
 ,0.00024081,-0.00017218,-0.00029129,0.00013322,0.00084956,-0.00799768,
 -0.00510367,-0.00122575,-0.01264794,-0.04241192,0.02003176,-0.00572565
 ,-0.01979094,-0.00055518,-0.00057204,0.00006377,0.00023352,0.00033213,
 0.00010776,-0.00104856,-0.00019441,-0.00001273,-0.00011894,0.00062261,
 0.00004846,0.00050969,-0.00045486,0.00001633,0.00021081,0.00037432,0.0
 0002281,-0.00025395,0.00020160,0.00001371,0.00020250,-0.00166452,-0.00
 042124,0.00004939,-0.00021045,-0.00000070,0.00011816,-0.00005133,0.000
 04516,-0.00016764,0.00008756,-0.00001958,0.00006336,-0.00023262,0.0000
 5120,-0.00081638,0.00024148,0.00013372,0.00097428,0.00138097,0.0005519
 3,-0.00258582,0.00000625,0.00394108,-0.00064494,0.00100986,0.00131083,
 -0.00137289,0.00113976,0.00245349,-0.00007095,0.00000840,-0.00019934,0
 .00010527,-0.00008580,-0.00013219,0.00001898,0.00005344,-0.00000052,0.
 00000499,-0.00000304,-0.00009352,-0.00002290,0.00003977,-0.00002993,-0
 .00000505,-0.00000985,-0.00000067,0.00002709,0.00000298,-0.00000056,0.
 00000860,-0.00000190,-0.00000602,-0.00000376,0.00000791,-0.00003219,0.
 00000548,-0.00002588,-0.00003041,-0.00002373,0.00000285,-0.00002013,-0
 .00021148,-0.00034640,-0.00027662,-0.00084980,-0.00365187,-0.00395022,
 -0.01669202,0.01961590,0.07355925\\-0.00000472,-0.00004722,0.00001535,
 0.00000172,-0.00000813,0.00000154,0.00000553,-0.00000268,0.00001442,-0
 .00001452,0.00000103,-0.00001698,0.00000150,0.00000064,0.00000414,-0.0
 0001406,-0.00001477,0.00001136,0.00000335,-0.00000006,0.00000475,0.000
 00158,-0.00001081,0.00000320,-0.00000740,0.00000060,0.00000084,0.00000
 407,-0.00000505,0.00000002,0.00000012,-0.00000122,-0.00000254,0.000004
 07,-0.00000614,-0.00000014,0.00004030,0.00002950,0.00000437,0.00001665
 ,0.00001332,-0.00001350,0.00001114,-0.00001013,-0.00000492,-0.00000624
 ,-0.00000210,-0.00000027,0.00000370,0.00000197,0.00000002,0.00000109,0
 .00000119,-0.00000144,-0.00001193,-0.00000116,0.00000269,0.00000093,0.
 00000154,-0.00000114,0.00000281,0.00000184,0.00000065,0.00000276,0.000
 00301,-0.00000087,-0.00002089,-0.00000652,-0.00001232,0.00000042,0.000
 00611,-0.00000080,-0.00000052,0.00000317,-0.00000198,0.00000177,0.0000
 0610,0.00000175,0.00000021,0.00000172,-0.00000073,-0.00000658,0.000003
 86,-0.00000488,-0.00000036,0.00000545,0.00000509,0.00000772,0.00002806
 ,0.00000950,0.00000376,-0.00000103,0.00000474,-0.00000329,-0.00000249,
 -0.00000185,-0.00000186,-0.00000456,-0.00000086,-0.00000088,-0.0000049
 6,0.00000225,0.00000146,-0.00000511,0.00000347,0.00000292,-0.00000355,
 0.00000285,0.00000392,-0.00000078,0.00000080,0.00000384,0.00000094,-0.
 00000040,0.00000351,0.00000304,-0.00000102,0.00000221,0.00000439,-0.00
 000201,0.00000013,0.00000531,-0.00000248,-0.00000156,0.00000438,-0.000
 00190,-0.00000366,0.00000362,-0.00000030,-0.00001044,0.00000338,-0.000
 00377,-0.00001066,-0.00001130,-0.00000309,-0.00001364,0.00001561,-0.00
 001361\\\@


 THE ONLY DIFFERENCE BETWEEN ECCENTRICS AND JOGGERS
 IS THAT JOGGERS WEAR SWEATBANDS WHEN THEY RUN IN THE RAIN.
 Job cpu time:       0 days 23 hours 44 minutes 33.3 seconds.
 Elapsed time:       0 days  1 hours 11 minutes 25.9 seconds.
 File lengths (MBytes):  RWF=   2279 Int=      0 D2E=      0 Chk=     53 Scr=      1
 Normal termination of Gaussian 16 at Thu Aug  8 19:23:04 2019.
