 Entering Gaussian System, Link 0=/share/apps/gaussian16/g16/g16
 Initial command:
 /share/apps/gaussian16/g16/l1.exe "/home/amen01//scratch/906/Gau-26116.inp" -scrdir="/home/amen01//scratch/906/"
 Entering Link 1 = /share/apps/gaussian16/g16/l1.exe PID=     26117.
  
 Copyright (c) 1988-2017, Gaussian, Inc.  All Rights Reserved.
  
 This is part of the Gaussian(R) 16 program.  It is based on
 the Gaussian(R) 09 system (copyright 2009, Gaussian, Inc.),
 the Gaussian(R) 03 system (copyright 2003, Gaussian, Inc.),
 the Gaussian(R) 98 system (copyright 1998, Gaussian, Inc.),
 the Gaussian(R) 94 system (copyright 1995, Gaussian, Inc.),
 the Gaussian 92(TM) system (copyright 1992, Gaussian, Inc.),
 the Gaussian 90(TM) system (copyright 1990, Gaussian, Inc.),
 the Gaussian 88(TM) system (copyright 1988, Gaussian, Inc.),
 the Gaussian 86(TM) system (copyright 1986, Carnegie Mellon
 University), and the Gaussian 82(TM) system (copyright 1983,
 Carnegie Mellon University). Gaussian is a federally registered
 trademark of Gaussian, Inc.
  
 This software contains proprietary and confidential information,
 including trade secrets, belonging to Gaussian, Inc.
  
 This software is provided under written license and may be
 used, copied, transmitted, or stored only in accord with that
 written license.
  
 The following legend is applicable only to US Government
 contracts under FAR:
  
                    RESTRICTED RIGHTS LEGEND
  
 Use, reproduction and disclosure by the US Government is
 subject to restrictions as set forth in subparagraphs (a)
 and (c) of the Commercial Computer Software - Restricted
 Rights clause in FAR 52.227-19.
  
 Gaussian, Inc.
 340 Quinnipiac St., Bldg. 40, Wallingford CT 06492
  
  
 ---------------------------------------------------------------
 Warning -- This program may not be used in any manner that
 competes with the business of Gaussian, Inc. or will provide
 assistance to any competitor of Gaussian, Inc.  The licensee
 of this program is prohibited from giving any competitor of
 Gaussian, Inc. access to this program.  By using this program,
 the user acknowledges that Gaussian, Inc. is engaged in the
 business of creating and licensing software in the field of
 computational chemistry and represents and warrants to the
 licensee that it is not a competitor of Gaussian, Inc. and that
 it will not use this program in any manner prohibited above.
 ---------------------------------------------------------------
  

 Cite this work as:
 Gaussian 16, Revision B.01,
 M. J. Frisch, G. W. Trucks, H. B. Schlegel, G. E. Scuseria, 
 M. A. Robb, J. R. Cheeseman, G. Scalmani, V. Barone, 
 G. A. Petersson, H. Nakatsuji, X. Li, M. Caricato, A. V. Marenich, 
 J. Bloino, B. G. Janesko, R. Gomperts, B. Mennucci, H. P. Hratchian, 
 J. V. Ortiz, A. F. Izmaylov, J. L. Sonnenberg, D. Williams-Young, 
 F. Ding, F. Lipparini, F. Egidi, J. Goings, B. Peng, A. Petrone, 
 T. Henderson, D. Ranasinghe, V. G. Zakrzewski, J. Gao, N. Rega, 
 G. Zheng, W. Liang, M. Hada, M. Ehara, K. Toyota, R. Fukuda, 
 J. Hasegawa, M. Ishida, T. Nakajima, Y. Honda, O. Kitao, H. Nakai, 
 T. Vreven, K. Throssell, J. A. Montgomery, Jr., J. E. Peralta, 
 F. Ogliaro, M. J. Bearpark, J. J. Heyd, E. N. Brothers, K. N. Kudin, 
 V. N. Staroverov, T. A. Keith, R. Kobayashi, J. Normand, 
 K. Raghavachari, A. P. Rendell, J. C. Burant, S. S. Iyengar, 
 J. Tomasi, M. Cossi, J. M. Millam, M. Klene, C. Adamo, R. Cammi, 
 J. W. Ochterski, R. L. Martin, K. Morokuma, O. Farkas, 
 J. B. Foresman, and D. J. Fox, Gaussian, Inc., Wallingford CT, 2016.
 
 ******************************************
 Gaussian 16:  ES64L-G16RevB.01 20-Dec-2017
                13-Aug-2019 
 ******************************************
 %nprocshared=20
 Will use up to   20 processors via shared memory.
 %mem=160GB
 %chk=7-memb2-carbTSguess-5a.chk
 ---------------------------------------------------------------
 # opt=(ts,calcfc,noeigen) freq b3lyp/6-311+g(d,p) int=grid=fine
 ---------------------------------------------------------------
 1/5=1,10=4,11=1,18=20,26=3,38=1/1,3;
 2/9=110,12=2,17=6,18=5,40=1/2;
 3/5=4,6=6,7=111,11=2,25=1,30=1,71=2,74=-5,75=-4,140=1/1,2,3;
 4//1;
 5/5=2,38=5/2;
 8/6=4,10=90,11=11/1;
 11/6=1,8=1,9=11,15=111,16=1/1,2,10;
 10/6=1,13=1/2;
 6/7=2,8=2,9=2,10=2,28=1/1;
 7/10=1,18=20,25=1/1,2,3,16;
 1/5=1,10=4,11=1,18=20,26=3/3(2);
 2/9=110/2;
 99//99;
 2/9=110/2;
 3/5=4,6=6,7=111,11=2,25=1,30=1,71=1,74=-5,75=-4/1,2,3;
 4/5=5,16=3,69=1/1;
 5/5=2,38=5/2;
 7//1,2,3,16;
 1/5=1,11=1,18=20,26=3/3(-5);
 2/9=110/2;
 6/7=2,8=2,9=2,10=2,19=2,28=1/1;
 99/9=1/99;
 ----------------------
 7-memb2-carbTSguess-5a
 ----------------------
 Symbolic Z-matrix:
 Charge =  0 Multiplicity = 1
 C                    -0.68323  -0.89247   0.00144 
 C                    -0.51299   0.5572    0.09313 
 C                    -1.8015    1.10439   0.17621 
 C                    -2.11933  -1.13182  -0.00025 
 C                    -2.76644   0.08617   0.13056 
 C                    -2.81319  -2.29457  -0.19992 
 C                    -4.22671  -2.16635  -0.21724 
 C                    -4.87714  -0.92714  -0.07295 
 C                    -4.13899   0.27773   0.08669 
 C                    -2.15907   2.45192   0.1886 
 C                    -3.5946    2.69388   0.20143 
 C                    -4.52562   1.67772   0.15329 
 C                     0.19231  -1.91325  -0.00512 
 C                    -0.43789  -3.25953  -0.13358 
 C                    -1.94991  -3.45955  -0.15495 
 C                     0.59667   1.39349   0.02812 
 C                     0.2643    2.81826   0.03878 
 C                    -1.06189   3.31683   0.12615 
 C                     1.97668   0.91414  -0.07141 
 C                     2.95364   1.94229  -0.2084 
 C                     2.60259   3.32923  -0.22418 
 C                     1.32621   3.75812  -0.08814 
 C                     2.43231  -0.49644   0.00639 
 C                     3.86693  -0.69271  -0.00179 
 C                     4.77907   0.38477  -0.19136 
 C                     4.34021   1.65622  -0.30352 
 C                     4.47428  -1.95537   0.19407 
 C                     3.71973  -3.07375   0.40465 
 C                     2.33335  -2.94796   0.34322 
 C                     1.65376  -1.74557   0.11503 
 H                    -0.96637  -3.27048  -1.12639 
 H                    -2.34909  -4.42456  -0.1299 
 H                    -4.84049  -3.0492   -0.36811 
 H                    -5.96154  -0.90481  -0.11084 
 H                    -5.57884   1.9405    0.14657 
 H                    -3.94875   3.71941   0.23056 
 H                    -1.1948    4.39396   0.11089 
 H                     1.09351   4.81739  -0.0872 
 H                     3.40997   4.04506  -0.3333 
 H                     5.03397   2.47881  -0.4362 
 H                     5.83804   0.15533  -0.2257 
 H                     5.55726  -2.00534   0.18754 
 H                     4.1747   -4.03996   0.58851 
 H                     1.75652  -3.84899   0.47429 
 H                    -0.0025   -4.17021  -0.08602 
 H                    -1.82049  -3.2794   -1.62626 
 
 Add virtual bond connecting atoms H46        and H31        Dist= 1.87D+00.

 GradGradGradGradGradGradGradGradGradGradGradGradGradGradGradGradGradGrad
 Berny optimization.
 Initialization pass.
                           ----------------------------
                           !    Initial Parameters    !
                           ! (Angstroms and Degrees)  !
 --------------------------                            --------------------------
 ! Name  Definition              Value          Derivative Info.                !
 --------------------------------------------------------------------------------
 ! R1    R(1,2)                  1.4625         calculate D2E/DX2 analytically  !
 ! R2    R(1,4)                  1.4559         calculate D2E/DX2 analytically  !
 ! R3    R(1,13)                 1.3448         calculate D2E/DX2 analytically  !
 ! R4    R(2,3)                  1.4023         calculate D2E/DX2 analytically  !
 ! R5    R(2,16)                 1.391          calculate D2E/DX2 analytically  !
 ! R6    R(3,5)                  1.4036         calculate D2E/DX2 analytically  !
 ! R7    R(3,10)                 1.3942         calculate D2E/DX2 analytically  !
 ! R8    R(4,5)                  1.3854         calculate D2E/DX2 analytically  !
 ! R9    R(4,6)                  1.3687         calculate D2E/DX2 analytically  !
 ! R10   R(5,9)                  1.3865         calculate D2E/DX2 analytically  !
 ! R11   R(6,7)                  1.4194         calculate D2E/DX2 analytically  !
 ! R12   R(6,15)                 1.4507         calculate D2E/DX2 analytically  !
 ! R13   R(7,8)                  1.407          calculate D2E/DX2 analytically  !
 ! R14   R(7,33)                 1.0858         calculate D2E/DX2 analytically  !
 ! R15   R(8,9)                  1.422          calculate D2E/DX2 analytically  !
 ! R16   R(8,34)                 1.0853         calculate D2E/DX2 analytically  !
 ! R17   R(9,12)                 1.4539         calculate D2E/DX2 analytically  !
 ! R18   R(10,11)                1.4558         calculate D2E/DX2 analytically  !
 ! R19   R(10,18)                1.3985         calculate D2E/DX2 analytically  !
 ! R20   R(11,12)                1.379          calculate D2E/DX2 analytically  !
 ! R21   R(11,36)                1.0853         calculate D2E/DX2 analytically  !
 ! R22   R(12,35)                1.0855         calculate D2E/DX2 analytically  !
 ! R23   R(13,14)                1.492          calculate D2E/DX2 analytically  !
 ! R24   R(13,30)                1.4759         calculate D2E/DX2 analytically  !
 ! R25   R(14,15)                1.5253         calculate D2E/DX2 analytically  !
 ! R26   R(14,31)                1.1248         calculate D2E/DX2 analytically  !
 ! R27   R(14,45)                1.0105         calculate D2E/DX2 analytically  !
 ! R28   R(15,32)                1.0446         calculate D2E/DX2 analytically  !
 ! R29   R(16,17)                1.4631         calculate D2E/DX2 analytically  !
 ! R30   R(16,19)                1.4643         calculate D2E/DX2 analytically  !
 ! R31   R(17,18)                1.4195         calculate D2E/DX2 analytically  !
 ! R32   R(17,22)                1.4238         calculate D2E/DX2 analytically  !
 ! R33   R(18,37)                1.0854         calculate D2E/DX2 analytically  !
 ! R34   R(19,20)                1.4249         calculate D2E/DX2 analytically  !
 ! R35   R(19,23)                1.4844         calculate D2E/DX2 analytically  !
 ! R36   R(20,21)                1.4308         calculate D2E/DX2 analytically  !
 ! R37   R(20,26)                1.419          calculate D2E/DX2 analytically  !
 ! R38   R(21,22)                1.3534         calculate D2E/DX2 analytically  !
 ! R39   R(21,39)                1.0845         calculate D2E/DX2 analytically  !
 ! R40   R(22,38)                1.0845         calculate D2E/DX2 analytically  !
 ! R41   R(23,24)                1.448          calculate D2E/DX2 analytically  !
 ! R42   R(23,30)                1.4759         calculate D2E/DX2 analytically  !
 ! R43   R(24,25)                1.4244         calculate D2E/DX2 analytically  !
 ! R44   R(24,27)                1.4148         calculate D2E/DX2 analytically  !
 ! R45   R(25,26)                1.3497         calculate D2E/DX2 analytically  !
 ! R46   R(25,41)                1.0841         calculate D2E/DX2 analytically  !
 ! R47   R(26,40)                1.0842         calculate D2E/DX2 analytically  !
 ! R48   R(27,28)                1.3655         calculate D2E/DX2 analytically  !
 ! R49   R(27,42)                1.0842         calculate D2E/DX2 analytically  !
 ! R50   R(28,29)                1.3934         calculate D2E/DX2 analytically  !
 ! R51   R(28,43)                1.0837         calculate D2E/DX2 analytically  !
 ! R52   R(29,30)                1.3999         calculate D2E/DX2 analytically  !
 ! R53   R(29,44)                1.0779         calculate D2E/DX2 analytically  !
 ! R54   R(31,46)                0.9897         calculate D2E/DX2 analytically  !
 ! A1    A(2,1,4)              106.1318         calculate D2E/DX2 analytically  !
 ! A2    A(2,1,13)             132.6013         calculate D2E/DX2 analytically  !
 ! A3    A(4,1,13)             121.1571         calculate D2E/DX2 analytically  !
 ! A4    A(1,2,3)              106.4711         calculate D2E/DX2 analytically  !
 ! A5    A(1,2,16)             133.3028         calculate D2E/DX2 analytically  !
 ! A6    A(3,2,16)             120.0763         calculate D2E/DX2 analytically  !
 ! A7    A(2,3,5)              110.2851         calculate D2E/DX2 analytically  !
 ! A8    A(2,3,10)             127.8287         calculate D2E/DX2 analytically  !
 ! A9    A(5,3,10)             121.6772         calculate D2E/DX2 analytically  !
 ! A10   A(1,4,5)              108.4267         calculate D2E/DX2 analytically  !
 ! A11   A(1,4,6)              129.7835         calculate D2E/DX2 analytically  !
 ! A12   A(5,4,6)              121.5913         calculate D2E/DX2 analytically  !
 ! A13   A(3,5,4)              108.6471         calculate D2E/DX2 analytically  !
 ! A14   A(3,5,9)              125.5462         calculate D2E/DX2 analytically  !
 ! A15   A(4,5,9)              125.5101         calculate D2E/DX2 analytically  !
 ! A16   A(4,6,7)              115.4601         calculate D2E/DX2 analytically  !
 ! A17   A(4,6,15)             112.0878         calculate D2E/DX2 analytically  !
 ! A18   A(7,6,15)             131.7232         calculate D2E/DX2 analytically  !
 ! A19   A(6,7,8)              122.594          calculate D2E/DX2 analytically  !
 ! A20   A(6,7,33)             119.4184         calculate D2E/DX2 analytically  !
 ! A21   A(8,7,33)             117.9746         calculate D2E/DX2 analytically  !
 ! A22   A(7,8,9)              121.1866         calculate D2E/DX2 analytically  !
 ! A23   A(7,8,34)             118.4543         calculate D2E/DX2 analytically  !
 ! A24   A(9,8,34)             120.3417         calculate D2E/DX2 analytically  !
 ! A25   A(5,9,8)              113.5998         calculate D2E/DX2 analytically  !
 ! A26   A(5,9,12)             113.2547         calculate D2E/DX2 analytically  !
 ! A27   A(8,9,12)             133.0773         calculate D2E/DX2 analytically  !
 ! A28   A(3,10,11)            114.4313         calculate D2E/DX2 analytically  !
 ! A29   A(3,10,18)            113.3373         calculate D2E/DX2 analytically  !
 ! A30   A(11,10,18)           132.1605         calculate D2E/DX2 analytically  !
 ! A31   A(10,11,12)           122.884          calculate D2E/DX2 analytically  !
 ! A32   A(10,11,36)           118.6218         calculate D2E/DX2 analytically  !
 ! A33   A(12,11,36)           118.4831         calculate D2E/DX2 analytically  !
 ! A34   A(9,12,11)            122.1139         calculate D2E/DX2 analytically  !
 ! A35   A(9,12,35)            119.3945         calculate D2E/DX2 analytically  !
 ! A36   A(11,12,35)           118.4815         calculate D2E/DX2 analytically  !
 ! A37   A(1,13,14)            114.2253         calculate D2E/DX2 analytically  !
 ! A38   A(1,13,30)            123.9186         calculate D2E/DX2 analytically  !
 ! A39   A(14,13,30)           121.8539         calculate D2E/DX2 analytically  !
 ! A40   A(13,14,15)           122.5625         calculate D2E/DX2 analytically  !
 ! A41   A(13,14,31)           106.4538         calculate D2E/DX2 analytically  !
 ! A42   A(13,14,45)           128.8386         calculate D2E/DX2 analytically  !
 ! A43   A(15,14,31)            61.3538         calculate D2E/DX2 analytically  !
 ! A44   A(15,14,45)           108.0337         calculate D2E/DX2 analytically  !
 ! A45   A(31,14,45)           103.6041         calculate D2E/DX2 analytically  !
 ! A46   A(6,15,14)            119.0138         calculate D2E/DX2 analytically  !
 ! A47   A(6,15,32)            121.0112         calculate D2E/DX2 analytically  !
 ! A48   A(14,15,32)           119.9733         calculate D2E/DX2 analytically  !
 ! A49   A(2,16,17)            113.8225         calculate D2E/DX2 analytically  !
 ! A50   A(2,16,19)            123.9303         calculate D2E/DX2 analytically  !
 ! A51   A(17,16,19)           122.2348         calculate D2E/DX2 analytically  !
 ! A52   A(16,17,18)           123.6918         calculate D2E/DX2 analytically  !
 ! A53   A(16,17,22)           118.2136         calculate D2E/DX2 analytically  !
 ! A54   A(18,17,22)           118.0636         calculate D2E/DX2 analytically  !
 ! A55   A(10,18,17)           121.2318         calculate D2E/DX2 analytically  !
 ! A56   A(10,18,37)           121.2185         calculate D2E/DX2 analytically  !
 ! A57   A(17,18,37)           117.5219         calculate D2E/DX2 analytically  !
 ! A58   A(16,19,20)           114.614          calculate D2E/DX2 analytically  !
 ! A59   A(16,19,23)           126.6417         calculate D2E/DX2 analytically  !
 ! A60   A(20,19,23)           118.7032         calculate D2E/DX2 analytically  !
 ! A61   A(19,20,21)           122.1607         calculate D2E/DX2 analytically  !
 ! A62   A(19,20,26)           122.0704         calculate D2E/DX2 analytically  !
 ! A63   A(21,20,26)           115.7501         calculate D2E/DX2 analytically  !
 ! A64   A(20,21,22)           122.5131         calculate D2E/DX2 analytically  !
 ! A65   A(20,21,39)           117.276          calculate D2E/DX2 analytically  !
 ! A66   A(22,21,39)           120.2022         calculate D2E/DX2 analytically  !
 ! A67   A(17,22,21)           120.2109         calculate D2E/DX2 analytically  !
 ! A68   A(17,22,38)           118.989          calculate D2E/DX2 analytically  !
 ! A69   A(21,22,38)           120.7952         calculate D2E/DX2 analytically  !
 ! A70   A(19,23,24)           115.634          calculate D2E/DX2 analytically  !
 ! A71   A(19,23,30)           130.2567         calculate D2E/DX2 analytically  !
 ! A72   A(24,23,30)           114.1            calculate D2E/DX2 analytically  !
 ! A73   A(23,24,25)           122.186          calculate D2E/DX2 analytically  !
 ! A74   A(23,24,27)           123.06           calculate D2E/DX2 analytically  !
 ! A75   A(25,24,27)           114.7487         calculate D2E/DX2 analytically  !
 ! A76   A(24,25,26)           121.0257         calculate D2E/DX2 analytically  !
 ! A77   A(24,25,41)           118.0118         calculate D2E/DX2 analytically  !
 ! A78   A(26,25,41)           120.9542         calculate D2E/DX2 analytically  !
 ! A79   A(20,26,25)           120.1368         calculate D2E/DX2 analytically  !
 ! A80   A(20,26,40)           118.7183         calculate D2E/DX2 analytically  !
 ! A81   A(25,26,40)           121.1181         calculate D2E/DX2 analytically  !
 ! A82   A(24,27,28)           121.0054         calculate D2E/DX2 analytically  !
 ! A83   A(24,27,42)           117.9781         calculate D2E/DX2 analytically  !
 ! A84   A(28,27,42)           121.0095         calculate D2E/DX2 analytically  !
 ! A85   A(27,28,29)           117.9737         calculate D2E/DX2 analytically  !
 ! A86   A(27,28,43)           121.63           calculate D2E/DX2 analytically  !
 ! A87   A(29,28,43)           120.3766         calculate D2E/DX2 analytically  !
 ! A88   A(28,29,30)           124.5923         calculate D2E/DX2 analytically  !
 ! A89   A(28,29,44)           116.8485         calculate D2E/DX2 analytically  !
 ! A90   A(30,29,44)           118.5572         calculate D2E/DX2 analytically  !
 ! A91   A(13,30,23)           127.77           calculate D2E/DX2 analytically  !
 ! A92   A(13,30,29)           113.3525         calculate D2E/DX2 analytically  !
 ! A93   A(23,30,29)           118.8728         calculate D2E/DX2 analytically  !
 ! A94   A(14,31,46)           148.3662         calculate D2E/DX2 analytically  !
 ! D1    D(4,1,2,3)              1.5116         calculate D2E/DX2 analytically  !
 ! D2    D(4,1,2,16)          -173.8748         calculate D2E/DX2 analytically  !
 ! D3    D(13,1,2,3)          -174.5861         calculate D2E/DX2 analytically  !
 ! D4    D(13,1,2,16)           10.0275         calculate D2E/DX2 analytically  !
 ! D5    D(2,1,4,5)             -2.0112         calculate D2E/DX2 analytically  !
 ! D6    D(2,1,4,6)            172.8357         calculate D2E/DX2 analytically  !
 ! D7    D(13,1,4,5)           174.6329         calculate D2E/DX2 analytically  !
 ! D8    D(13,1,4,6)           -10.5201         calculate D2E/DX2 analytically  !
 ! D9    D(2,1,13,14)         -179.3368         calculate D2E/DX2 analytically  !
 ! D10   D(2,1,13,30)            1.1906         calculate D2E/DX2 analytically  !
 ! D11   D(4,1,13,14)            5.0445         calculate D2E/DX2 analytically  !
 ! D12   D(4,1,13,30)         -174.428          calculate D2E/DX2 analytically  !
 ! D13   D(1,2,3,5)             -0.5007         calculate D2E/DX2 analytically  !
 ! D14   D(1,2,3,10)          -175.257          calculate D2E/DX2 analytically  !
 ! D15   D(16,2,3,5)           175.6206         calculate D2E/DX2 analytically  !
 ! D16   D(16,2,3,10)            0.8643         calculate D2E/DX2 analytically  !
 ! D17   D(1,2,16,17)          174.1516         calculate D2E/DX2 analytically  !
 ! D18   D(1,2,16,19)           -4.5923         calculate D2E/DX2 analytically  !
 ! D19   D(3,2,16,17)           -0.7344         calculate D2E/DX2 analytically  !
 ! D20   D(3,2,16,19)         -179.4783         calculate D2E/DX2 analytically  !
 ! D21   D(2,3,5,4)             -0.7761         calculate D2E/DX2 analytically  !
 ! D22   D(2,3,5,9)           -174.789          calculate D2E/DX2 analytically  !
 ! D23   D(10,3,5,4)           174.358          calculate D2E/DX2 analytically  !
 ! D24   D(10,3,5,9)             0.3451         calculate D2E/DX2 analytically  !
 ! D25   D(2,3,10,11)          176.4179         calculate D2E/DX2 analytically  !
 ! D26   D(2,3,10,18)           -0.8977         calculate D2E/DX2 analytically  !
 ! D27   D(5,3,10,11)            2.1993         calculate D2E/DX2 analytically  !
 ! D28   D(5,3,10,18)         -175.1163         calculate D2E/DX2 analytically  !
 ! D29   D(1,4,5,3)              1.7394         calculate D2E/DX2 analytically  !
 ! D30   D(1,4,5,9)            175.755          calculate D2E/DX2 analytically  !
 ! D31   D(6,4,5,3)           -173.6129         calculate D2E/DX2 analytically  !
 ! D32   D(6,4,5,9)              0.4027         calculate D2E/DX2 analytically  !
 ! D33   D(1,4,6,7)           -176.2768         calculate D2E/DX2 analytically  !
 ! D34   D(1,4,6,15)            12.339          calculate D2E/DX2 analytically  !
 ! D35   D(5,4,6,7)             -2.018          calculate D2E/DX2 analytically  !
 ! D36   D(5,4,6,15)          -173.4022         calculate D2E/DX2 analytically  !
 ! D37   D(3,5,9,8)            174.7527         calculate D2E/DX2 analytically  !
 ! D38   D(3,5,9,12)            -2.6443         calculate D2E/DX2 analytically  !
 ! D39   D(4,5,9,8)              1.7263         calculate D2E/DX2 analytically  !
 ! D40   D(4,5,9,12)          -175.6708         calculate D2E/DX2 analytically  !
 ! D41   D(4,6,7,8)              1.5191         calculate D2E/DX2 analytically  !
 ! D42   D(4,6,7,33)          -179.8187         calculate D2E/DX2 analytically  !
 ! D43   D(15,6,7,8)           170.8005         calculate D2E/DX2 analytically  !
 ! D44   D(15,6,7,33)          -10.5373         calculate D2E/DX2 analytically  !
 ! D45   D(4,6,15,14)           -9.8609         calculate D2E/DX2 analytically  !
 ! D46   D(4,6,15,32)          169.6706         calculate D2E/DX2 analytically  !
 ! D47   D(7,6,15,14)         -179.4198         calculate D2E/DX2 analytically  !
 ! D48   D(7,6,15,32)            0.1117         calculate D2E/DX2 analytically  !
 ! D49   D(6,7,8,9)              0.6297         calculate D2E/DX2 analytically  !
 ! D50   D(6,7,8,34)           179.1192         calculate D2E/DX2 analytically  !
 ! D51   D(33,7,8,9)          -178.0509         calculate D2E/DX2 analytically  !
 ! D52   D(33,7,8,34)            0.4386         calculate D2E/DX2 analytically  !
 ! D53   D(7,8,9,5)             -2.1581         calculate D2E/DX2 analytically  !
 ! D54   D(7,8,9,12)           174.5672         calculate D2E/DX2 analytically  !
 ! D55   D(34,8,9,5)           179.3806         calculate D2E/DX2 analytically  !
 ! D56   D(34,8,9,12)           -3.894          calculate D2E/DX2 analytically  !
 ! D57   D(5,9,12,11)            2.3908         calculate D2E/DX2 analytically  !
 ! D58   D(5,9,12,35)         -178.7822         calculate D2E/DX2 analytically  !
 ! D59   D(8,9,12,11)         -174.3431         calculate D2E/DX2 analytically  !
 ! D60   D(8,9,12,35)            4.4839         calculate D2E/DX2 analytically  !
 ! D61   D(3,10,11,12)          -2.3794         calculate D2E/DX2 analytically  !
 ! D62   D(3,10,11,36)         178.8534         calculate D2E/DX2 analytically  !
 ! D63   D(18,10,11,12)        174.2948         calculate D2E/DX2 analytically  !
 ! D64   D(18,10,11,36)         -4.4724         calculate D2E/DX2 analytically  !
 ! D65   D(3,10,18,17)           0.9159         calculate D2E/DX2 analytically  !
 ! D66   D(3,10,18,37)         178.949          calculate D2E/DX2 analytically  !
 ! D67   D(11,10,18,17)       -175.7864         calculate D2E/DX2 analytically  !
 ! D68   D(11,10,18,37)          2.2468         calculate D2E/DX2 analytically  !
 ! D69   D(10,11,12,9)           0.0512         calculate D2E/DX2 analytically  !
 ! D70   D(10,11,12,35)       -178.7861         calculate D2E/DX2 analytically  !
 ! D71   D(36,11,12,9)         178.82           calculate D2E/DX2 analytically  !
 ! D72   D(36,11,12,35)         -0.0173         calculate D2E/DX2 analytically  !
 ! D73   D(1,13,14,15)          -4.1272         calculate D2E/DX2 analytically  !
 ! D74   D(1,13,14,31)          62.013          calculate D2E/DX2 analytically  !
 ! D75   D(1,13,14,45)        -174.4379         calculate D2E/DX2 analytically  !
 ! D76   D(30,13,14,15)        175.3575         calculate D2E/DX2 analytically  !
 ! D77   D(30,13,14,31)       -118.5023         calculate D2E/DX2 analytically  !
 ! D78   D(30,13,14,45)          5.0468         calculate D2E/DX2 analytically  !
 ! D79   D(1,13,30,23)         -12.5034         calculate D2E/DX2 analytically  !
 ! D80   D(1,13,30,29)         168.2986         calculate D2E/DX2 analytically  !
 ! D81   D(14,13,30,23)        168.0629         calculate D2E/DX2 analytically  !
 ! D82   D(14,13,30,29)        -11.1351         calculate D2E/DX2 analytically  !
 ! D83   D(13,14,15,6)           6.935          calculate D2E/DX2 analytically  !
 ! D84   D(13,14,15,32)       -172.6015         calculate D2E/DX2 analytically  !
 ! D85   D(31,14,15,6)         -85.019          calculate D2E/DX2 analytically  !
 ! D86   D(31,14,15,32)         95.4445         calculate D2E/DX2 analytically  !
 ! D87   D(45,14,15,6)         179.0105         calculate D2E/DX2 analytically  !
 ! D88   D(45,14,15,32)         -0.526          calculate D2E/DX2 analytically  !
 ! D89   D(13,14,31,46)       -110.3577         calculate D2E/DX2 analytically  !
 ! D90   D(15,14,31,46)          8.2066         calculate D2E/DX2 analytically  !
 ! D91   D(45,14,31,46)        111.5473         calculate D2E/DX2 analytically  !
 ! D92   D(2,16,17,18)           0.8503         calculate D2E/DX2 analytically  !
 ! D93   D(2,16,17,22)        -177.0816         calculate D2E/DX2 analytically  !
 ! D94   D(19,16,17,18)        179.6182         calculate D2E/DX2 analytically  !
 ! D95   D(19,16,17,22)          1.6863         calculate D2E/DX2 analytically  !
 ! D96   D(2,16,19,20)         176.32           calculate D2E/DX2 analytically  !
 ! D97   D(2,16,19,23)          -6.0611         calculate D2E/DX2 analytically  !
 ! D98   D(17,16,19,20)         -2.3215         calculate D2E/DX2 analytically  !
 ! D99   D(17,16,19,23)        175.2974         calculate D2E/DX2 analytically  !
 ! D100  D(16,17,18,10)         -0.9978         calculate D2E/DX2 analytically  !
 ! D101  D(16,17,18,37)       -179.1012         calculate D2E/DX2 analytically  !
 ! D102  D(22,17,18,10)        176.937          calculate D2E/DX2 analytically  !
 ! D103  D(22,17,18,37)         -1.1664         calculate D2E/DX2 analytically  !
 ! D104  D(16,17,22,21)          0.4794         calculate D2E/DX2 analytically  !
 ! D105  D(16,17,22,38)        179.6709         calculate D2E/DX2 analytically  !
 ! D106  D(18,17,22,21)       -177.5707         calculate D2E/DX2 analytically  !
 ! D107  D(18,17,22,38)          1.6209         calculate D2E/DX2 analytically  !
 ! D108  D(16,19,20,21)          0.9622         calculate D2E/DX2 analytically  !
 ! D109  D(16,19,20,26)        179.3175         calculate D2E/DX2 analytically  !
 ! D110  D(23,19,20,21)       -176.8598         calculate D2E/DX2 analytically  !
 ! D111  D(23,19,20,26)          1.4955         calculate D2E/DX2 analytically  !
 ! D112  D(16,19,23,24)       -174.6874         calculate D2E/DX2 analytically  !
 ! D113  D(16,19,23,30)          4.1263         calculate D2E/DX2 analytically  !
 ! D114  D(20,19,23,24)          2.8446         calculate D2E/DX2 analytically  !
 ! D115  D(20,19,23,30)       -178.3417         calculate D2E/DX2 analytically  !
 ! D116  D(19,20,21,22)          1.1308         calculate D2E/DX2 analytically  !
 ! D117  D(19,20,21,39)       -179.949          calculate D2E/DX2 analytically  !
 ! D118  D(26,20,21,22)       -177.3218         calculate D2E/DX2 analytically  !
 ! D119  D(26,20,21,39)          1.5983         calculate D2E/DX2 analytically  !
 ! D120  D(19,20,26,25)         -3.6697         calculate D2E/DX2 analytically  !
 ! D121  D(19,20,26,40)        178.1924         calculate D2E/DX2 analytically  !
 ! D122  D(21,20,26,25)        174.7844         calculate D2E/DX2 analytically  !
 ! D123  D(21,20,26,40)         -3.3534         calculate D2E/DX2 analytically  !
 ! D124  D(20,21,22,17)         -1.8766         calculate D2E/DX2 analytically  !
 ! D125  D(20,21,22,38)        178.9467         calculate D2E/DX2 analytically  !
 ! D126  D(39,21,22,17)        179.2339         calculate D2E/DX2 analytically  !
 ! D127  D(39,21,22,38)          0.0572         calculate D2E/DX2 analytically  !
 ! D128  D(19,23,24,25)         -5.3531         calculate D2E/DX2 analytically  !
 ! D129  D(19,23,24,27)        173.7666         calculate D2E/DX2 analytically  !
 ! D130  D(30,23,24,25)        175.6386         calculate D2E/DX2 analytically  !
 ! D131  D(30,23,24,27)         -5.2417         calculate D2E/DX2 analytically  !
 ! D132  D(19,23,30,13)          8.8685         calculate D2E/DX2 analytically  !
 ! D133  D(19,23,30,29)       -171.9723         calculate D2E/DX2 analytically  !
 ! D134  D(24,23,30,13)       -172.3031         calculate D2E/DX2 analytically  !
 ! D135  D(24,23,30,29)          6.8561         calculate D2E/DX2 analytically  !
 ! D136  D(23,24,25,26)          3.4827         calculate D2E/DX2 analytically  !
 ! D137  D(23,24,25,41)       -177.5581         calculate D2E/DX2 analytically  !
 ! D138  D(27,24,25,26)       -175.7049         calculate D2E/DX2 analytically  !
 ! D139  D(27,24,25,41)          3.2543         calculate D2E/DX2 analytically  !
 ! D140  D(23,24,27,28)          0.0072         calculate D2E/DX2 analytically  !
 ! D141  D(23,24,27,42)       -179.0422         calculate D2E/DX2 analytically  !
 ! D142  D(25,24,27,28)        179.1869         calculate D2E/DX2 analytically  !
 ! D143  D(25,24,27,42)          0.1374         calculate D2E/DX2 analytically  !
 ! D144  D(24,25,26,20)          1.1825         calculate D2E/DX2 analytically  !
 ! D145  D(24,25,26,40)        179.2749         calculate D2E/DX2 analytically  !
 ! D146  D(41,25,26,20)       -177.746          calculate D2E/DX2 analytically  !
 ! D147  D(41,25,26,40)          0.3464         calculate D2E/DX2 analytically  !
 ! D148  D(24,27,28,29)          3.6726         calculate D2E/DX2 analytically  !
 ! D149  D(24,27,28,43)       -177.9368         calculate D2E/DX2 analytically  !
 ! D150  D(42,27,28,29)       -177.3069         calculate D2E/DX2 analytically  !
 ! D151  D(42,27,28,43)          1.0838         calculate D2E/DX2 analytically  !
 ! D152  D(27,28,29,30)         -1.7751         calculate D2E/DX2 analytically  !
 ! D153  D(27,28,29,44)        177.7018         calculate D2E/DX2 analytically  !
 ! D154  D(43,28,29,30)        179.8132         calculate D2E/DX2 analytically  !
 ! D155  D(43,28,29,44)         -0.7099         calculate D2E/DX2 analytically  !
 ! D156  D(28,29,30,13)        175.5173         calculate D2E/DX2 analytically  !
 ! D157  D(28,29,30,23)         -3.7588         calculate D2E/DX2 analytically  !
 ! D158  D(44,29,30,13)         -3.9514         calculate D2E/DX2 analytically  !
 ! D159  D(44,29,30,23)        176.7726         calculate D2E/DX2 analytically  !
 --------------------------------------------------------------------------------
 Trust Radius=3.00D-01 FncErr=1.00D-07 GrdErr=1.00D-06 EigMax=2.50D+02 EigMin=1.00D-04
 Number of steps in this run=    276 maximum allowed number of steps=    276.
 Search for a saddle point of order  1.
 GradGradGradGradGradGradGradGradGradGradGradGradGradGradGradGradGradGrad

                          Input orientation:                          
 ---------------------------------------------------------------------
 Center     Atomic      Atomic             Coordinates (Angstroms)
 Number     Number       Type             X           Y           Z
 ---------------------------------------------------------------------
      1          6           0       -0.683230   -0.892470    0.001440
      2          6           0       -0.512990    0.557200    0.093130
      3          6           0       -1.801500    1.104390    0.176210
      4          6           0       -2.119330   -1.131820   -0.000250
      5          6           0       -2.766440    0.086170    0.130560
      6          6           0       -2.813190   -2.294570   -0.199920
      7          6           0       -4.226710   -2.166350   -0.217240
      8          6           0       -4.877140   -0.927140   -0.072950
      9          6           0       -4.138990    0.277730    0.086690
     10          6           0       -2.159070    2.451920    0.188600
     11          6           0       -3.594600    2.693880    0.201430
     12          6           0       -4.525620    1.677720    0.153290
     13          6           0        0.192310   -1.913250   -0.005120
     14          6           0       -0.437890   -3.259530   -0.133580
     15          6           0       -1.949910   -3.459550   -0.154950
     16          6           0        0.596670    1.393490    0.028120
     17          6           0        0.264300    2.818260    0.038780
     18          6           0       -1.061890    3.316830    0.126150
     19          6           0        1.976680    0.914140   -0.071410
     20          6           0        2.953640    1.942290   -0.208400
     21          6           0        2.602590    3.329230   -0.224180
     22          6           0        1.326210    3.758120   -0.088140
     23          6           0        2.432310   -0.496440    0.006390
     24          6           0        3.866930   -0.692710   -0.001790
     25          6           0        4.779070    0.384770   -0.191360
     26          6           0        4.340210    1.656220   -0.303520
     27          6           0        4.474280   -1.955370    0.194070
     28          6           0        3.719730   -3.073750    0.404650
     29          6           0        2.333350   -2.947960    0.343220
     30          6           0        1.653760   -1.745570    0.115030
     31          1           0       -0.966370   -3.270480   -1.126390
     32          1           0       -2.349090   -4.424560   -0.129900
     33          1           0       -4.840490   -3.049200   -0.368110
     34          1           0       -5.961540   -0.904810   -0.110840
     35          1           0       -5.578840    1.940500    0.146570
     36          1           0       -3.948750    3.719410    0.230560
     37          1           0       -1.194800    4.393960    0.110890
     38          1           0        1.093510    4.817390   -0.087200
     39          1           0        3.409970    4.045060   -0.333300
     40          1           0        5.033970    2.478810   -0.436200
     41          1           0        5.838040    0.155330   -0.225700
     42          1           0        5.557260   -2.005340    0.187540
     43          1           0        4.174700   -4.039960    0.588510
     44          1           0        1.756520   -3.848990    0.474290
     45          1           0       -0.002500   -4.170210   -0.086020
     46          1           0       -1.820490   -3.279400   -1.626260
 ---------------------------------------------------------------------
                    Distance matrix (angstroms):
                    1          2          3          4          5
     1  C    0.000000
     2  C    1.462509   0.000000
     3  C    2.295326   1.402347   0.000000
     4  C    1.455910   2.332774   2.265566   0.000000
     5  C    2.305249   2.302457   1.403554   1.385410   0.000000
     6  C    2.557960   3.675512   3.566219   1.368685   2.404023
     7  C    3.771849   4.615817   4.090744   2.357623   2.706880
     8  C    4.194713   4.612662   3.694422   2.766351   2.350163
     9  C    3.649509   3.636760   2.480976   2.464430   1.386547
    10  C    3.660338   2.511704   1.394219   3.588932   2.443162
    11  C    4.623633   3.751460   2.396314   4.105250   2.736973
    12  C    4.625246   4.166579   2.783893   3.702340   2.372396
    13  C    1.344844   2.571036   3.621369   2.440151   3.573554
    14  C    2.383568   3.824195   4.582488   2.715174   4.084804
    15  C    2.866851   4.273238   4.578345   2.339009   3.649708
    16  C    2.620013   1.391026   2.420068   3.708726   3.609721
    17  C    3.829977   2.391553   2.687707   4.613713   4.081437
    18  C    4.228137   2.813883   2.333328   4.574346   3.652763
    19  C    3.216251   2.520503   3.791062   4.579117   4.819078
    20  C    4.615920   3.745253   4.843693   5.935360   6.023238
    21  C    5.354462   4.182305   4.950377   6.499818   6.282496
    22  C    5.066938   3.696134   4.110320   5.982557   5.502802
    23  C    3.140614   3.129293   4.529530   4.595778   5.232767
    24  C    4.554544   4.555764   5.949147   6.002344   6.680252
    25  C    5.612952   5.302506   6.629997   7.065726   7.558275
    26  C    5.641256   4.991866   6.185084   7.042073   7.290950
    27  C    5.269419   5.585343   6.981967   6.647683   7.523294
    28  C    4.930174   5.585406   6.927699   6.166819   7.220154
    29  C    3.666280   4.522206   5.791927   4.821068   5.937931
    30  C    2.490423   3.161967   4.479379   3.824420   4.784734
    31  H    2.647093   4.042761   4.640441   2.677942   4.010894
    32  H    3.907429   5.314032   5.564427   3.303292   4.537478
    33  H    4.697964   5.652090   5.175331   3.349086   3.792216
    34  H    5.279518   5.644978   4.628738   3.850499   3.353950
    35  H    5.658072   5.251591   3.868883   4.629138   3.368737
    36  H    5.655577   4.671499   3.384075   5.189844   3.822079
    37  H    5.312252   3.896910   3.345687   5.603691   4.585575
    38  H    5.980565   4.556597   4.715595   6.761878   6.109916
    39  H    6.422269   5.266557   6.005544   7.581831   7.350919
    40  H    6.651574   5.894195   6.999123   8.024737   8.178774
    41  H    6.608815   6.371714   7.708749   8.063952   8.612130
    42  H    6.341674   6.589648   7.988861   7.728411   8.582636
    43  H    5.818146   6.584354   7.896157   6.958357   8.087898
    44  H    3.862250   4.970963   6.106090   4.757143   6.005065
    45  H    3.348824   4.758266   5.579119   3.704071   5.079669
    46  H    3.104868   4.402881   4.739923   2.710224   3.912582
                    6          7          8          9         10
     6  C    0.000000
     7  C    1.419429   0.000000
     8  C    2.479088   1.406954   0.000000
     9  C    2.908027   2.464467   1.421992   0.000000
    10  C    4.807077   5.076245   4.344463   2.942375   0.000000
    11  C    5.065206   4.919012   3.851231   2.479376   1.455835
    12  C    4.340076   3.873437   2.638190   1.453922   2.490219
    13  C    3.035850   4.431342   5.164914   4.854790   4.961978
    14  C    2.564683   3.944261   5.015043   5.124341   5.973853
    15  C    1.450673   2.619172   3.871498   4.337940   5.925137
    16  C    5.028015   5.999805   5.946271   4.865678   2.956371
    17  C    5.972349   6.714243   6.361989   5.083852   2.455478
    18  C    5.887375   6.340289   5.710259   4.325070   1.398490
    19  C    5.766731   6.927679   7.096842   6.150726   4.420045
    20  C    7.155933   8.272752   8.341049   7.291313   5.153362
    21  C    7.807585   8.765888   8.607318   7.406564   4.859369
    22  C    7.333634   8.121018   7.773895   6.481673   3.732281
    23  C    5.548973   6.868854   7.322558   6.617233   5.459560
    24  C    6.872351   8.229523   8.747501   8.065007   6.799825
    25  C    8.051171   9.360179   9.745641   8.923036   7.249501
    26  C    8.172552   9.381450   9.575304   8.599380   6.566275
    27  C    7.305991   8.713261   9.411568   8.898690   7.964017
    28  C    6.606941   8.022221   8.873681   8.549444   8.070935
    29  C    5.216205   6.630190   7.499872   7.236164   7.025984
    30  C    4.511567   5.904861   6.584665   6.136000   5.671156
    31  H    2.285058   3.560263   4.679220   4.911912   5.991460
    32  H    2.181089   2.938128   4.315811   5.036088   6.886474
    33  H    2.169723   1.085777   2.142802   3.430366   6.145101
    34  H    3.442597   2.147659   1.085292   2.181538   5.080953
    35  H    5.069980   4.338990   2.960394   2.200354   3.458055
    36  H    6.135370   5.909311   4.748100   3.449935   2.193455
    37  H    6.888557   7.234488   6.473603   5.060849   2.169649
    38  H    8.115108   8.780335   8.285438   6.929488   4.031227
    39  H    8.884617   9.844489   9.667820   8.447246   5.815899
    40  H    9.187976  10.362705  10.486303   9.447823   7.220175
    41  H    8.991466  10.329059  10.770801   9.982670   8.330651
    42  H    8.384403   9.793663  10.493192   9.961920   8.911168
    43  H    7.245593   8.645423   9.594946   9.381456   9.078605
    44  H    4.873708   6.253682   7.269259   7.206739   7.423943
    45  H    3.380973   4.677245   5.854894   6.076557   6.969851
    46  H    1.997446   3.002351   4.158005   4.578517   6.021327
                   11         12         13         14         15
    11  C    0.000000
    12  C    1.379020   0.000000
    13  C    5.967327   5.931191   0.000000
    14  C    6.746862   6.416250   1.492020   0.000000
    15  C    6.379398   5.755071   2.646242   1.525342   0.000000
    16  C    4.391787   5.131697   3.331537   4.769387   5.483665
    17  C    3.864328   4.925168   4.732261   6.120646   6.659666
    18  C    2.609282   3.832081   5.379962   6.611002   6.840097
    19  C    5.855004   6.550836   3.344025   4.822192   5.878286
    20  C    6.603961   7.492673   4.746731   6.210234   7.295720
    21  C    6.244195   7.326756   5.774170   7.257030   8.174202
    22  C    5.042899   6.215325   5.784208   7.236126   7.926676
    23  C    6.822010   7.291182   2.650487   3.986516   5.292438
    24  C    8.196629   8.722264   3.872023   5.013722   6.443174
    25  C    8.695092   9.400413   5.133610   6.364034   7.749793
    26  C    8.018287   8.877617   5.480441   6.857384   8.109179
    27  C    9.312486   9.705628   4.286807   5.092897   6.607162
    28  C    9.316989   9.519740   3.735956   4.196428   5.710237
    29  C    8.184806   8.275171   2.403335   2.829167   4.342374
    30  C    6.874697   7.064355   1.475937   2.594009   3.999632
    31  H    6.651638   6.228204   2.107572   1.124759   1.395276
    32  H    7.234173   6.485006   3.575047   2.238302   1.044613
    33  H    5.904201   4.766002   5.172158   4.413857   2.927333
    34  H    4.318621   2.966663   6.236826   6.004659   4.756240
    35  H    2.123158   1.085528   6.941223   7.317661   6.513109
    36  H    1.085349   2.123028   6.995054   7.820763   7.462000
    37  H    2.942365   4.298153   6.458981   7.694712   7.894206
    38  H    5.154704   6.441272   6.791201   8.220947   8.818998
    39  H    7.153714   8.295460   6.779565   8.258508   9.223844
    40  H    8.654770   9.611192   6.551160   7.934821   9.171576
    41  H    9.777595  10.481734   6.016805   7.145422   8.586299
    42  H   10.287828  10.734550   5.369198   6.133346   7.654386
    43  H   10.288657  10.420022   4.553540   4.733547   6.196810
    44  H    8.456837   8.373341   2.534497   2.352106   3.779581
    45  H    7.752518   7.396903   2.266796   1.010527   2.074173
    46  H    6.493689   5.920943   2.923324   2.034716   1.487937
                   16         17         18         19         20
    16  C    0.000000
    17  C    1.463063   0.000000
    18  C    2.541588   1.419502   0.000000
    19  C    1.464278   2.563213   3.878770   0.000000
    20  C    2.431549   2.839185   4.257436   1.424889   0.000000
    21  C    2.799010   2.407870   3.681209   2.499552   1.430765
    22  C    2.477341   1.423762   2.437966   2.917467   2.441358
    23  C    2.634745   3.960878   5.173471   1.484381   2.503063
    24  C    3.879140   5.030656   6.355002   2.481906   2.796428
    25  C    4.307918   5.134003   6.543287   2.854472   2.399657
    26  C    3.767374   4.252123   5.667886   2.488138   1.418964
    27  C    5.126233   6.366757   7.645252   3.813473   4.203104
    28  C    5.463654   6.840295   7.986299   4.378142   5.111104
    29  C    4.686527   6.133755   7.128981   3.900634   4.960201
    30  C    3.313411   4.771264   5.744804   2.685720   3.923596
    31  H    5.052584   6.320200   6.706015   5.223559   6.586513
    32  H    6.523203   7.701734   7.851851   6.871494   8.286247
    33  H    7.032581   7.787909   7.419464   7.891128   9.256832
    34  H    6.950655   7.255668   6.471861   8.144045   9.359270
    35  H    6.200820   5.909684   4.722027   7.628028   8.539861
    36  H    5.109964   4.312614   2.916665   6.562884   7.140996
    37  H    3.495574   2.148721   1.085406   4.711758   4.829305
    38  H    3.461682   2.167944   2.634947   4.001949   3.426510
    39  H    3.882796   3.396869   4.554003   3.453341   2.155337
    40  H    4.591638   4.805266   6.178837   3.453735   2.160444
    41  H    5.391607   6.182857   7.597889   3.938236   3.393124
    42  H    6.015390   7.162728   8.493669   4.627199   4.745460
    43  H    6.529833   7.913824   9.042014   5.459844   6.157383
    44  H    5.387756   6.846065   7.708023   4.799340   5.952990
    45  H    5.597034   6.994674   7.564595   5.456004   6.790905
    46  H    5.515028   6.655837   6.867071   5.867013   7.215864
                   21         22         23         24         25
    21  C    0.000000
    22  C    1.353366   0.000000
    23  C    3.836393   4.397007   0.000000
    24  C    4.221850   5.125681   1.448007   0.000000
    25  C    3.661692   4.828290   2.514541   1.424394   0.000000
    26  C    2.413417   3.680838   2.893108   2.415058   1.349727
    27  C    5.621846   6.529468   2.516613   1.414760   2.391173
    28  C    6.530052   7.255772   2.908365   2.419961   3.665895
    29  C    6.308530   6.794992   2.476529   2.749009   4.168262
    30  C    5.173871   5.517171   1.475896   2.453626   3.794705
    31  H    7.556959   7.465595   4.530951   5.591995   6.873515
    32  H    9.200504   8.970275   6.189547   7.251346   8.599075
    33  H    9.803292   9.189460   7.716894   9.028089  10.215641
    34  H    9.554280   8.651863   8.404596   9.831363  10.818050
    35  H    8.306734   7.144127   8.374775   9.807057  10.479542
    36  H    6.578684   5.284721   7.651246   8.978065   9.352683
    37  H    3.958042   2.607565   6.089570   7.176909   7.200839
    38  H    2.123842   1.084529   5.480687   6.169308   5.765615
    39  H    1.084519   2.117662   4.657943   4.771287   3.910538
    40  H    2.584526   3.937672   3.977013   3.407233   2.123658
    41  H    4.532304   5.775433   3.475294   2.157448   1.084085
    42  H    6.112056   7.155086   3.474897   2.148502   2.542001
    43  H    7.578717   8.329574   3.991406   3.412808   4.533398
    44  H    7.261580   7.640001   3.451842   3.826563   5.244390
    45  H    7.940226   8.038899   4.408336   5.203133   6.604722
    46  H    8.074866   7.860930   5.338232   6.455743   7.683702
                   26         27         28         29         30
    26  C    0.000000
    27  C    3.648171   0.000000
    28  C    4.822771   1.365454   0.000000
    29  C    5.064014   2.364543   1.393430   0.000000
    30  C    4.354810   2.829416   2.473090   1.399877   0.000000
    31  H    7.287611   5.750983   4.933794   3.626558   3.275905
    32  H    9.041723   7.263624   6.240273   4.932488   4.822840
    33  H   10.316511   9.395608   8.595064   7.209731   6.641397
    34  H   10.617064  10.492997   9.934637   8.554872   7.664900
    35  H    9.933325  10.781710  10.567531   9.302605   8.117796
    36  H    8.558554  10.156372  10.246117   9.161402   7.827354
    37  H    6.188965   8.512307   8.944585   8.148964   6.768171
    38  H    4.536612   7.574893   8.331209   7.875476   6.589933
    39  H    2.563745   6.116865   7.163657   7.107680   6.067674
    40  H    1.084233   4.513585   5.767597   6.111520   5.438296
    41  H    2.121844   2.547764   3.912996   4.715605   4.608440
    42  H    3.889649   1.084152   2.136622   3.362494   3.912806
    43  H    5.767979   2.142626   1.083681   2.154809   3.441446
    44  H    6.130887   3.324235   2.111881   1.077853   2.136353
    45  H    7.270057   5.002552   3.911263   2.671018   2.943212
    46  H    8.004012   6.685117   5.904314   4.609023   4.177935
                   31         32         33         34         35
    31  H    0.000000
    32  H    2.058351   0.000000
    33  H    3.953828   2.855772   0.000000
    34  H    5.619560   5.043689   2.433382   0.000000
    35  H    7.074576   7.142948   5.070223   2.882448   0.000000
    36  H    7.719745   8.307412   6.853298   5.054828   2.414284
    37  H    7.767025   8.897003   8.301875   7.130774   5.023997
    38  H    8.410509   9.862401   9.857713   9.083934   7.269897
    39  H    8.561453  10.244150  10.881168  10.600750   9.244358
    40  H    8.338752  10.112364  11.316735  11.508952  10.642421
    41  H    7.671207   9.381560  11.149901  11.847666  11.561599
    42  H    6.773828   8.274283  10.464779  11.575100  11.814570
    43  H    5.473900   6.574486   9.119779  10.633044  11.449574
    44  H    3.211072   4.189554   6.698496   8.281245   9.350567
    45  H    1.679562   2.360742   4.974172   6.795117   8.275895
    46  H    0.989682   1.957014   3.279685   5.008340   6.671992
                   36         37         38         39         40
    36  H    0.000000
    37  H    2.837883   0.000000
    38  H    5.170195   2.335572   0.000000
    39  H    7.387472   4.639283   2.454189   0.000000
    40  H    9.092465   6.539471   4.595431   2.258562   0.000000
    41  H   10.425550   8.218279   6.653161   4.586622   2.467671
    42  H   11.096794   9.303076   8.157830   6.441232   4.557465
    43  H   11.239501  10.009528   9.402285   8.173255   6.654528
    44  H    9.481044   8.762909   8.709822   8.105685   7.184130
    45  H    8.827186   8.649009   9.054181   8.899256   8.348540
    46  H    7.547225   7.892378   8.741745   9.092699   9.030883
                   41         42         43         44         45
    41  H    0.000000
    42  H    2.217679   0.000000
    43  H    4.585858   2.492374   0.000000
    44  H    5.760501   4.234016   2.428397   0.000000
    45  H    7.269231   5.972640   4.233315   1.873841   0.000000
    46  H    8.509525   7.703525   6.436300   4.187093   2.543810
                   46
    46  H    0.000000
 Stoichiometry    C30H16
 Framework group  C1[X(C30H16)]
 Deg. of freedom   132
 Full point group                 C1      NOp   1
 Largest Abelian subgroup         C1      NOp   1
 Largest concise Abelian subgroup C1      NOp   1
                         Standard orientation:                         
 ---------------------------------------------------------------------
 Center     Atomic      Atomic             Coordinates (Angstroms)
 Number     Number       Type             X           Y           Z
 ---------------------------------------------------------------------
      1          6           0        0.681295   -0.896150   -0.002174
      2          6           0        0.508226    0.553180   -0.093942
      3          6           0        1.795729    1.102999   -0.175265
      4          6           0        2.117876   -1.132578    0.001387
      5          6           0        2.762678    0.086740   -0.128445
      6          6           0        2.813836   -2.293934    0.201855
      7          6           0        4.227068   -2.162840    0.221054
      8          6           0        4.875165   -0.922294    0.077748
      9          6           0        4.134776    0.281088   -0.082744
     10          6           0        2.150572    2.451255   -0.187046
     11          6           0        3.585622    2.696137   -0.197957
     12          6           0        4.518644    1.681869   -0.148691
     13          6           0       -0.192174   -1.918711    0.003126
     14          6           0        0.440595   -3.263719    0.132281
     15          6           0        1.952989   -3.460664    0.155627
     16          6           0       -0.603218    1.387203   -0.030312
     17          6           0       -0.273735    2.812648   -0.040388
     18          6           0        1.051552    3.313924   -0.125957
     19          6           0       -1.982380    0.905036    0.067348
     20          6           0       -2.961610    1.931181    0.203152
     21          6           0       -2.613405    3.318831    0.219537
     22          6           0       -1.337722    3.750332    0.085225
     23          6           0       -2.435035   -0.506461   -0.011197
     24          6           0       -3.869262   -0.705650   -0.004930
     25          6           0       -4.783843    0.369951    0.183545
     26          6           0       -4.347720    1.642280    0.296413
     27          6           0       -4.473783   -1.969523   -0.201720
     28          6           0       -3.716681   -3.086344   -0.411417
     29          6           0       -2.330642   -2.957739   -0.348145
     30          6           0       -1.653802   -1.753992   -0.118936
     31          1           0        0.967785   -3.273697    1.125787
     32          1           0        2.354165   -4.424857    0.131006
     33          1           0        4.842444   -3.044455    0.372644
     34          1           0        5.959466   -0.897761    0.117072
     35          1           0        5.571317    1.946791   -0.140554
     36          1           0        3.937722    3.722389   -0.226515
     37          1           0        1.182250    4.391321   -0.110412
     38          1           0       -1.107177    4.810073    0.084700
     39          1           0       -3.422383    4.033005    0.327663
     40          1           0       -5.043327    2.463443    0.428261
     41          1           0       -5.842388    0.138353    0.216464
     42          1           0       -5.556666   -2.021698   -0.196625
     43          1           0       -4.169441   -4.053458   -0.595976
     44          1           0       -1.751807   -3.857580   -0.478545
     45          1           0        0.007122   -4.175278    0.084054
     46          1           0        1.821261   -3.280931    1.626783
 ---------------------------------------------------------------------
 Rotational constants (GHZ):           0.2750511           0.1538589           0.0992766
 Standard basis: 6-311+G(d,p) (5D, 7F)
 There are   786 symmetry adapted cartesian basis functions of A   symmetry.
 There are   756 symmetry adapted basis functions of A   symmetry.
   756 basis functions,  1208 primitive gaussians,   786 cartesian basis functions
    98 alpha electrons       98 beta electrons
       nuclear repulsion energy      2618.5380622834 Hartrees.
 NAtoms=   46 NActive=   46 NUniq=   46 SFac= 1.00D+00 NAtFMM=   60 NAOKFM=F Big=F
 Integral buffers will be    131072 words long.
 Raffenetti 2 integral format.
 Two-electron integral symmetry is turned on.
 One-electron integrals computed using PRISM.
 NBasis=   756 RedAO= T EigKep=  1.21D-06  NBF=   756
 NBsUse=   732 1.00D-06 EigRej=  9.24D-07 NBFU=   732
 ExpMin= 4.38D-02 ExpMax= 4.56D+03 ExpMxC= 6.82D+02 IAcc=2 IRadAn=         4 AccDes= 0.00D+00
 Harris functional with IExCor=  402 and IRadAn=       4 diagonalized for initial guess.
 HarFok:  IExCor=  402 AccDes= 0.00D+00 IRadAn=         4 IDoV= 1 UseB2=F ITyADJ=14
 ICtDFT=  3500011 ScaDFX=  1.000000  1.000000  1.000000  1.000000
 FoFCou: FMM=F IPFlag=           0 FMFlag=      100000 FMFlg1=           0
         NFxFlg=           0 DoJE=T BraDBF=F KetDBF=T FulRan=T
         wScrn=  0.000000 ICntrl=       500 IOpCl=  0 I1Cent=   200000004 NGrid=           0
         NMat0=    1 NMatS0=      1 NMatT0=    0 NMatD0=    1 NMtDS0=    0 NMtDT0=    0
 Petite list used in FoFCou.
 Requested convergence on RMS density matrix=1.00D-08 within 128 cycles.
 Requested convergence on MAX density matrix=1.00D-06.
 Requested convergence on             energy=1.00D-06.
 No special actions if energy rises.
 SCF Done:  E(RB3LYP) =  -1152.91671231     A.U. after   20 cycles
            NFock= 20  Conv=0.34D-08     -V/T= 2.0040
 DoSCS=F DFT=T ScalE2(SS,OS)=  1.000000  1.000000
 Range of M.O.s used for correlation:     1   732
 NBasis=   756 NAE=    98 NBE=    98 NFC=     0 NFV=     0
 NROrb=    732 NOA=    98 NOB=    98 NVA=   634 NVB=   634

 **** Warning!!: The largest alpha MO coefficient is  0.13755702D+03


 **** Warning!!: The smallest alpha delta epsilon is  0.84136965D-01

 Symmetrizing basis deriv contribution to polar:
 IMax=3 JMax=2 DiffMx= 0.00D+00
 G2DrvN: will do    47 centers at a time, making    1 passes.
 Calling FoFCou, ICntrl=  3107 FMM=F I1Cent=   0 AccDes= 0.00D+00.
 End of G2Drv F.D. properties file   721 does not exist.
 End of G2Drv F.D. properties file   722 does not exist.
 End of G2Drv F.D. properties file   788 does not exist.
          IDoAtm=1111111111111111111111111111111111111111111111
          Differentiating once with respect to nuclear coordinates.
 CalDSu exits because no D1Ps are significant.
          There are   141 degrees of freedom in the 1st order CPHF.  IDoFFX=6 NUNeed=     0.
    135 vectors produced by pass  0 Test12= 6.21D-14 1.00D-09 XBig12= 3.64D-01 1.59D-01.
 AX will form   135 AO Fock derivatives at one time.
    135 vectors produced by pass  1 Test12= 6.21D-14 1.00D-09 XBig12= 8.91D-02 6.07D-02.
    135 vectors produced by pass  2 Test12= 6.21D-14 1.00D-09 XBig12= 1.23D-03 5.14D-03.
    135 vectors produced by pass  3 Test12= 6.21D-14 1.00D-09 XBig12= 7.30D-06 2.36D-04.
    135 vectors produced by pass  4 Test12= 6.21D-14 1.00D-09 XBig12= 2.31D-08 1.15D-05.
    135 vectors produced by pass  5 Test12= 6.21D-14 1.00D-09 XBig12= 1.33D-10 1.09D-06.
    108 vectors produced by pass  6 Test12= 6.21D-14 1.00D-09 XBig12= 1.30D-11 2.57D-07.
     76 vectors produced by pass  7 Test12= 6.21D-14 1.00D-09 XBig12= 1.66D-12 6.96D-08.
     39 vectors produced by pass  8 Test12= 6.21D-14 1.00D-09 XBig12= 6.64D-14 1.30D-08.
      5 vectors produced by pass  9 Test12= 6.21D-14 1.00D-09 XBig12= 4.37D-16 1.41D-09.
      3 vectors produced by pass 10 Test12= 6.21D-14 1.00D-09 XBig12= 5.30D-16 1.56D-09.
      2 vectors produced by pass 11 Test12= 6.21D-14 1.00D-09 XBig12= 4.36D-16 1.31D-09.
      1 vectors produced by pass 12 Test12= 6.21D-14 1.00D-09 XBig12= 2.70D-16 1.20D-09.
 InvSVY:  IOpt=1 It=  1 EMax= 6.11D-16
 Solved reduced A of dimension  1044 with   141 vectors.
 End of Minotr F.D. properties file   721 does not exist.
 End of Minotr F.D. properties file   722 does not exist.
 End of Minotr F.D. properties file   788 does not exist.

 **********************************************************************

            Population analysis using the SCF Density.

 **********************************************************************

 Orbital symmetries:
       Occupied  (A) (A) (A) (A) (A) (A) (A) (A) (A) (A) (A) (A)
                 (A) (A) (A) (A) (A) (A) (A) (A) (A) (A) (A) (A)
                 (A) (A) (A) (A) (A) (A) (A) (A) (A) (A) (A) (A)
                 (A) (A) (A) (A) (A) (A) (A) (A) (A) (A) (A) (A)
                 (A) (A) (A) (A) (A) (A) (A) (A) (A) (A) (A) (A)
                 (A) (A) (A) (A) (A) (A) (A) (A) (A) (A) (A) (A)
                 (A) (A) (A) (A) (A) (A) (A) (A) (A) (A) (A) (A)
                 (A) (A) (A) (A) (A) (A) (A) (A) (A) (A) (A) (A)
                 (A) (A)
       Virtual   (A) (A) (A) (A) (A) (A) (A) (A) (A) (A) (A) (A)
                 (A) (A) (A) (A) (A) (A) (A) (A) (A) (A) (A) (A)
                 (A) (A) (A) (A) (A) (A) (A) (A) (A) (A) (A) (A)
                 (A) (A) (A) (A) (A) (A) (A) (A) (A) (A) (A) (A)
                 (A) (A) (A) (A) (A) (A) (A) (A) (A) (A) (A) (A)
                 (A) (A) (A) (A) (A) (A) (A) (A) (A) (A) (A) (A)
                 (A) (A) (A) (A) (A) (A) (A) (A) (A) (A) (A) (A)
                 (A) (A) (A) (A) (A) (A) (A) (A) (A) (A) (A) (A)
                 (A) (A) (A) (A) (A) (A) (A) (A) (A) (A) (A) (A)
                 (A) (A) (A) (A) (A) (A) (A) (A) (A) (A) (A) (A)
                 (A) (A) (A) (A) (A) (A) (A) (A) (A) (A) (A) (A)
                 (A) (A) (A) (A) (A) (A) (A) (A) (A) (A) (A) (A)
                 (A) (A) (A) (A) (A) (A) (A) (A) (A) (A) (A) (A)
                 (A) (A) (A) (A) (A) (A) (A) (A) (A) (A) (A) (A)
                 (A) (A) (A) (A) (A) (A) (A) (A) (A) (A) (A) (A)
                 (A) (A) (A) (A) (A) (A) (A) (A) (A) (A) (A) (A)
                 (A) (A) (A) (A) (A) (A) (A) (A) (A) (A) (A) (A)
                 (A) (A) (A) (A) (A) (A) (A) (A) (A) (A) (A) (A)
                 (A) (A) (A) (A) (A) (A) (A) (A) (A) (A) (A) (A)
                 (A) (A) (A) (A) (A) (A) (A) (A) (A) (A) (A) (A)
                 (A) (A) (A) (A) (A) (A) (A) (A) (A) (A) (A) (A)
                 (A) (A) (A) (A) (A) (A) (A) (A) (A) (A) (A) (A)
                 (A) (A) (A) (A) (A) (A) (A) (A) (A) (A) (A) (A)
                 (A) (A) (A) (A) (A) (A) (A) (A) (A) (A) (A) (A)
                 (A) (A) (A) (A) (A) (A) (A) (A) (A) (A) (A) (A)
                 (A) (A) (A) (A) (A) (A) (A) (A) (A) (A) (A) (A)
                 (A) (A) (A) (A) (A) (A) (A) (A) (A) (A) (A) (A)
                 (A) (A) (A) (A) (A) (A) (A) (A) (A) (A) (A) (A)
                 (A) (A) (A) (A) (A) (A) (A) (A) (A) (A) (A) (A)
                 (A) (A) (A) (A) (A) (A) (A) (A) (A) (A) (A) (A)
                 (A) (A) (A) (A) (A) (A) (A) (A) (A) (A) (A) (A)
                 (A) (A) (A) (A) (A) (A) (A) (A) (A) (A) (A) (A)
                 (A) (A) (A) (A) (A) (A) (A) (A) (A) (A) (A) (A)
                 (A) (A) (A) (A) (A) (A) (A) (A) (A) (A) (A) (A)
                 (A) (A) (A) (A) (A) (A) (A) (A) (A) (A) (A) (A)
                 (A) (A) (A) (A) (A) (A) (A) (A) (A) (A) (A) (A)
                 (A) (A) (A) (A) (A) (A) (A) (A) (A) (A) (A) (A)
                 (A) (A) (A) (A) (A) (A) (A) (A) (A) (A) (A) (A)
                 (A) (A) (A) (A) (A) (A) (A) (A) (A) (A) (A) (A)
                 (A) (A) (A) (A) (A) (A) (A) (A) (A) (A) (A) (A)
                 (A) (A) (A) (A) (A) (A) (A) (A) (A) (A) (A) (A)
                 (A) (A) (A) (A) (A) (A) (A) (A) (A) (A) (A) (A)
                 (A) (A) (A) (A) (A) (A) (A) (A) (A) (A) (A) (A)
                 (A) (A) (A) (A) (A) (A) (A) (A) (A) (A) (A) (A)
                 (A) (A) (A) (A) (A) (A) (A) (A) (A) (A) (A) (A)
                 (A) (A) (A) (A) (A) (A) (A) (A) (A) (A) (A) (A)
                 (A) (A) (A) (A) (A) (A) (A) (A) (A) (A) (A) (A)
                 (A) (A) (A) (A) (A) (A) (A) (A) (A) (A) (A) (A)
                 (A) (A) (A) (A) (A) (A) (A) (A) (A) (A) (A) (A)
                 (A) (A) (A) (A) (A) (A) (A) (A) (A) (A) (A) (A)
                 (A) (A) (A) (A) (A) (A) (A) (A) (A) (A) (A) (A)
                 (A) (A) (A) (A) (A) (A) (A) (A) (A) (A) (A) (A)
                 (A) (A) (A) (A) (A) (A) (A) (A) (A) (A)
 The electronic state is 1-A.
 Alpha  occ. eigenvalues --  -10.27356 -10.21914 -10.21757 -10.20815 -10.20465
 Alpha  occ. eigenvalues --  -10.20123 -10.19516 -10.19465 -10.18899 -10.18732
 Alpha  occ. eigenvalues --  -10.18629 -10.18621 -10.18585 -10.18548 -10.18463
 Alpha  occ. eigenvalues --  -10.18354 -10.18286 -10.18163 -10.18019 -10.17984
 Alpha  occ. eigenvalues --  -10.17737 -10.17662 -10.17585 -10.17436 -10.17416
 Alpha  occ. eigenvalues --  -10.17320 -10.17259 -10.17016 -10.16439 -10.16337
 Alpha  occ. eigenvalues --   -0.92698  -0.89340  -0.88863  -0.86054  -0.84995
 Alpha  occ. eigenvalues --   -0.83126  -0.81567  -0.80678  -0.78466  -0.76910
 Alpha  occ. eigenvalues --   -0.75905  -0.74916  -0.73945  -0.71629  -0.70913
 Alpha  occ. eigenvalues --   -0.67013  -0.66248  -0.64053  -0.63427  -0.62140
 Alpha  occ. eigenvalues --   -0.61614  -0.59947  -0.58628  -0.56616  -0.55395
 Alpha  occ. eigenvalues --   -0.54275  -0.53305  -0.51945  -0.51656  -0.50481
 Alpha  occ. eigenvalues --   -0.49814  -0.49464  -0.47210  -0.46749  -0.45732
 Alpha  occ. eigenvalues --   -0.45253  -0.44797  -0.44301  -0.43960  -0.43136
 Alpha  occ. eigenvalues --   -0.42712  -0.41981  -0.41334  -0.41133  -0.40626
 Alpha  occ. eigenvalues --   -0.40176  -0.39723  -0.38936  -0.37874  -0.37606
 Alpha  occ. eigenvalues --   -0.36609  -0.36030  -0.35624  -0.35290  -0.34634
 Alpha  occ. eigenvalues --   -0.34248  -0.33280  -0.32427  -0.32114  -0.31633
 Alpha  occ. eigenvalues --   -0.29474  -0.27641  -0.26963  -0.24891  -0.24265
 Alpha  occ. eigenvalues --   -0.21814  -0.20755  -0.16932
 Alpha virt. eigenvalues --   -0.08518  -0.07237  -0.05571  -0.04874  -0.03054
 Alpha virt. eigenvalues --   -0.01629  -0.00052   0.00438   0.00779   0.01108
 Alpha virt. eigenvalues --    0.01479   0.01567   0.02171   0.02807   0.02935
 Alpha virt. eigenvalues --    0.03265   0.03596   0.03776   0.04518   0.04694
 Alpha virt. eigenvalues --    0.04951   0.05241   0.05263   0.05635   0.06651
 Alpha virt. eigenvalues --    0.06713   0.07010   0.07353   0.08098   0.08271
 Alpha virt. eigenvalues --    0.08392   0.08759   0.09178   0.09292   0.09408
 Alpha virt. eigenvalues --    0.09650   0.10516   0.10962   0.11240   0.11541
 Alpha virt. eigenvalues --    0.11888   0.11996   0.12285   0.12402   0.12939
 Alpha virt. eigenvalues --    0.13090   0.13380   0.13629   0.14088   0.14418
 Alpha virt. eigenvalues --    0.14732   0.15168   0.15647   0.15723   0.15986
 Alpha virt. eigenvalues --    0.16178   0.16229   0.16495   0.16782   0.16849
 Alpha virt. eigenvalues --    0.16996   0.17152   0.17483   0.17728   0.18174
 Alpha virt. eigenvalues --    0.18298   0.18563   0.18637   0.18739   0.19228
 Alpha virt. eigenvalues --    0.19516   0.19588   0.20088   0.20161   0.20190
 Alpha virt. eigenvalues --    0.20568   0.20899   0.21055   0.21259   0.21466
 Alpha virt. eigenvalues --    0.21581   0.21901   0.21998   0.22265   0.22358
 Alpha virt. eigenvalues --    0.22598   0.22853   0.23417   0.23628   0.23848
 Alpha virt. eigenvalues --    0.23936   0.24280   0.24417   0.24570   0.24840
 Alpha virt. eigenvalues --    0.25225   0.25390   0.25557   0.25995   0.26307
 Alpha virt. eigenvalues --    0.26618   0.27046   0.27087   0.27304   0.27671
 Alpha virt. eigenvalues --    0.27795   0.27915   0.28336   0.28680   0.28972
 Alpha virt. eigenvalues --    0.29362   0.29654   0.29801   0.30303   0.30462
 Alpha virt. eigenvalues --    0.30751   0.30828   0.31225   0.31492   0.32090
 Alpha virt. eigenvalues --    0.32598   0.32775   0.33058   0.33446   0.33884
 Alpha virt. eigenvalues --    0.34191   0.34246   0.34649   0.34897   0.35451
 Alpha virt. eigenvalues --    0.35862   0.35964   0.36605   0.37073   0.37706
 Alpha virt. eigenvalues --    0.38259   0.38911   0.39341   0.39865   0.39926
 Alpha virt. eigenvalues --    0.40239   0.40674   0.41250   0.41672   0.41895
 Alpha virt. eigenvalues --    0.42916   0.43612   0.44203   0.44444   0.44984
 Alpha virt. eigenvalues --    0.45855   0.46245   0.46942   0.47579   0.47859
 Alpha virt. eigenvalues --    0.49000   0.49580   0.50351   0.50399   0.50446
 Alpha virt. eigenvalues --    0.51343   0.52195   0.52495   0.53142   0.53515
 Alpha virt. eigenvalues --    0.53853   0.54614   0.54714   0.55168   0.55310
 Alpha virt. eigenvalues --    0.55473   0.56036   0.56158   0.56560   0.57102
 Alpha virt. eigenvalues --    0.57209   0.57580   0.58065   0.58291   0.58656
 Alpha virt. eigenvalues --    0.59270   0.59434   0.59666   0.60354   0.60443
 Alpha virt. eigenvalues --    0.60965   0.61294   0.61415   0.61807   0.62278
 Alpha virt. eigenvalues --    0.62788   0.63032   0.63620   0.64498   0.64783
 Alpha virt. eigenvalues --    0.65235   0.65350   0.65536   0.65943   0.66177
 Alpha virt. eigenvalues --    0.66328   0.66826   0.67078   0.67703   0.67828
 Alpha virt. eigenvalues --    0.68701   0.69100   0.69718   0.70437   0.70520
 Alpha virt. eigenvalues --    0.71234   0.71649   0.71881   0.72206   0.72501
 Alpha virt. eigenvalues --    0.72635   0.73081   0.73293   0.73838   0.74041
 Alpha virt. eigenvalues --    0.74470   0.74830   0.74879   0.75834   0.76042
 Alpha virt. eigenvalues --    0.76479   0.76574   0.76856   0.77543   0.77615
 Alpha virt. eigenvalues --    0.78359   0.79328   0.81519   0.81868   0.82608
 Alpha virt. eigenvalues --    0.83102   0.83888   0.84588   0.84705   0.85553
 Alpha virt. eigenvalues --    0.86086   0.87092   0.88143   0.88658   0.89001
 Alpha virt. eigenvalues --    0.89550   0.89805   0.90360   0.90655   0.91361
 Alpha virt. eigenvalues --    0.91675   0.92280   0.92472   0.93083   0.93661
 Alpha virt. eigenvalues --    0.94029   0.94357   0.95307   0.95486   0.95676
 Alpha virt. eigenvalues --    0.96220   0.96546   0.96921   0.97283   0.97617
 Alpha virt. eigenvalues --    0.97715   0.98129   0.98359   0.98753   0.99264
 Alpha virt. eigenvalues --    0.99986   1.00112   1.00627   1.01330   1.01418
 Alpha virt. eigenvalues --    1.01836   1.01871   1.02848   1.03824   1.04388
 Alpha virt. eigenvalues --    1.05120   1.06128   1.06427   1.06463   1.07021
 Alpha virt. eigenvalues --    1.07812   1.08725   1.09695   1.10345   1.10696
 Alpha virt. eigenvalues --    1.10984   1.11803   1.12835   1.13176   1.13888
 Alpha virt. eigenvalues --    1.14410   1.15871   1.16192   1.16388   1.17153
 Alpha virt. eigenvalues --    1.18457   1.19412   1.19605   1.21227   1.21792
 Alpha virt. eigenvalues --    1.23675   1.26038   1.27104   1.29131   1.30403
 Alpha virt. eigenvalues --    1.30626   1.31826   1.34103   1.34891   1.35976
 Alpha virt. eigenvalues --    1.37056   1.38904   1.39414   1.39756   1.40300
 Alpha virt. eigenvalues --    1.41781   1.42542   1.43213   1.44210   1.44912
 Alpha virt. eigenvalues --    1.45227   1.46393   1.46890   1.47433   1.48230
 Alpha virt. eigenvalues --    1.48664   1.49217   1.49823   1.49977   1.50092
 Alpha virt. eigenvalues --    1.50842   1.51277   1.51592   1.51985   1.52684
 Alpha virt. eigenvalues --    1.54220   1.54596   1.55241   1.55859   1.56531
 Alpha virt. eigenvalues --    1.57338   1.57782   1.58421   1.59189   1.59937
 Alpha virt. eigenvalues --    1.60432   1.60992   1.61250   1.62717   1.63572
 Alpha virt. eigenvalues --    1.64022   1.65247   1.65735   1.66848   1.67823
 Alpha virt. eigenvalues --    1.68504   1.69385   1.69495   1.71072   1.71854
 Alpha virt. eigenvalues --    1.72833   1.73106   1.73888   1.74371   1.75048
 Alpha virt. eigenvalues --    1.75645   1.76027   1.76464   1.77214   1.78520
 Alpha virt. eigenvalues --    1.78675   1.79433   1.80787   1.81662   1.81937
 Alpha virt. eigenvalues --    1.83102   1.83309   1.84309   1.84682   1.85128
 Alpha virt. eigenvalues --    1.85930   1.86210   1.86607   1.87521   1.88095
 Alpha virt. eigenvalues --    1.88330   1.88745   1.89169   1.90165   1.90459
 Alpha virt. eigenvalues --    1.90717   1.91780   1.92329   1.93351   1.93554
 Alpha virt. eigenvalues --    1.94228   1.94916   1.95440   1.96109   1.97169
 Alpha virt. eigenvalues --    1.97233   1.97881   1.98957   1.99878   2.00728
 Alpha virt. eigenvalues --    2.00798   2.01569   2.01894   2.02354   2.02645
 Alpha virt. eigenvalues --    2.03045   2.04768   2.05635   2.06908   2.08150
 Alpha virt. eigenvalues --    2.08318   2.08633   2.09118   2.10352   2.10536
 Alpha virt. eigenvalues --    2.11627   2.12218   2.12626   2.13708   2.14580
 Alpha virt. eigenvalues --    2.15509   2.16550   2.17233   2.18029   2.18789
 Alpha virt. eigenvalues --    2.20336   2.21440   2.23340   2.23567   2.24488
 Alpha virt. eigenvalues --    2.25219   2.25680   2.27170   2.28420   2.29554
 Alpha virt. eigenvalues --    2.30543   2.31506   2.32481   2.33553   2.35011
 Alpha virt. eigenvalues --    2.35277   2.36851   2.37933   2.39763   2.40777
 Alpha virt. eigenvalues --    2.42144   2.42890   2.43715   2.44663   2.45794
 Alpha virt. eigenvalues --    2.47116   2.48211   2.49126   2.50858   2.51937
 Alpha virt. eigenvalues --    2.52451   2.54881   2.55688   2.57027   2.58615
 Alpha virt. eigenvalues --    2.59366   2.60711   2.61910   2.62868   2.63725
 Alpha virt. eigenvalues --    2.64930   2.66774   2.67395   2.68998   2.69599
 Alpha virt. eigenvalues --    2.70113   2.70365   2.71498   2.71887   2.72285
 Alpha virt. eigenvalues --    2.73013   2.73184   2.73520   2.73988   2.74573
 Alpha virt. eigenvalues --    2.75490   2.75733   2.76212   2.76801   2.77289
 Alpha virt. eigenvalues --    2.77980   2.78190   2.78610   2.78948   2.79571
 Alpha virt. eigenvalues --    2.79764   2.80466   2.81408   2.82105   2.82820
 Alpha virt. eigenvalues --    2.83887   2.84689   2.85267   2.86217   2.86801
 Alpha virt. eigenvalues --    2.87148   2.87622   2.88113   2.89416   2.89811
 Alpha virt. eigenvalues --    2.90783   2.91585   2.92257   2.94003   2.94685
 Alpha virt. eigenvalues --    2.95900   2.96452   2.97252   3.00212   3.00838
 Alpha virt. eigenvalues --    3.02257   3.04164   3.04626   3.05552   3.07208
 Alpha virt. eigenvalues --    3.08440   3.09360   3.12255   3.13383   3.14069
 Alpha virt. eigenvalues --    3.14956   3.17159   3.19583   3.20922   3.21633
 Alpha virt. eigenvalues --    3.22644   3.23883   3.25778   3.26704   3.28064
 Alpha virt. eigenvalues --    3.32046   3.33318   3.33729   3.34349   3.37181
 Alpha virt. eigenvalues --    3.37932   3.39006   3.39941   3.40163   3.42818
 Alpha virt. eigenvalues --    3.43692   3.44576   3.46466   3.47480   3.48225
 Alpha virt. eigenvalues --    3.49571   3.50445   3.50652   3.52078   3.54562
 Alpha virt. eigenvalues --    3.55539   3.57824   3.60635   3.61602   3.62656
 Alpha virt. eigenvalues --    3.64286   3.65120   3.67961   3.70585   3.72808
 Alpha virt. eigenvalues --    3.75670   3.82485   3.84880   3.86423   3.90601
 Alpha virt. eigenvalues --    3.95100   4.06405   4.07168   4.07371   4.07964
 Alpha virt. eigenvalues --    4.11047   4.13182   4.14975   4.22021   4.25885
 Alpha virt. eigenvalues --    4.29508   4.33916   4.37911   4.47737   4.59347
 Alpha virt. eigenvalues --    4.72589   4.76734   4.79419   4.80473   4.82413
 Alpha virt. eigenvalues --    4.84341   4.86766   4.89700   4.92422  23.38974
 Alpha virt. eigenvalues --   23.59710  23.69097  23.76976  23.79791  23.83350
 Alpha virt. eigenvalues --   23.85492  23.87620  23.89002  23.89713  23.91796
 Alpha virt. eigenvalues --   23.93234  23.95787  23.97697  23.99320  24.00669
 Alpha virt. eigenvalues --   24.01342  24.05775  24.07983  24.08853  24.09455
 Alpha virt. eigenvalues --   24.11087  24.12296  24.14461  24.17390  24.21361
 Alpha virt. eigenvalues --   24.22115  24.23421  24.23960  24.24630
          Condensed to atoms (all electrons):
               1          2          3          4          5          6
     1  C    8.656306   0.192961   0.243539  -1.238169  -1.032301   0.000764
     2  C    0.192961   8.861718  -0.228397   0.380721  -0.358515  -0.610476
     3  C    0.243539  -0.228397   8.073349  -0.189548  -0.332830   1.014506
     4  C   -1.238169   0.380721  -0.189548  10.102185   0.238875  -1.420286
     5  C   -1.032301  -0.358515  -0.332830   0.238875   7.756635   0.421173
     6  C    0.000764  -0.610476   1.014506  -1.420286   0.421173  17.406350
     7  C   -2.259489   0.001979  -1.541245   0.778210   2.457920  -4.568615
     8  C   -0.132224   0.594544  -0.878599   2.251288  -0.751180  -3.648467
     9  C   -0.183384  -0.341327   0.733540  -1.873788   0.666776   2.866947
    10  C   -0.791882  -0.133490   0.657626   0.747123   0.388447  -0.307785
    11  C   -0.624244  -1.024599  -0.601454  -0.415635   0.462394  -0.006125
    12  C    0.180323  -0.689393   0.785590  -0.823163  -0.834073   0.581578
    13  C    1.530593   1.054558   0.029569   0.106171  -0.304664  -1.660445
    14  C   -0.583060  -1.007238  -0.387216  -1.260013   0.722233   3.178830
    15  C    1.559669  -0.853045   0.505862  -1.809959  -2.673269  -6.705855
    16  C    0.785404  -0.075860   0.176857  -0.134718  -0.298394  -0.188613
    17  C   -0.216163   0.642117   0.104465   0.072967  -0.313706   0.016442
    18  C    0.030862   0.344428   0.299749   0.088466  -0.426322  -0.152862
    19  C    0.807088   0.002204   0.280666  -0.389761  -0.260169   0.003556
    20  C   -0.975527   0.597191  -0.773760   0.584278   0.122950  -0.072103
    21  C    0.157882  -0.405777  -0.319483  -0.052191   0.047951   0.012190
    22  C    0.338882  -0.521779  -1.220495  -0.259531   0.120313  -0.019640
    23  C   -0.104268   0.591034  -0.192000   0.123937  -0.081358  -0.532331
    24  C   -0.493009  -0.188468   0.203060   0.521106   0.027561   0.072894
    25  C   -0.022058   0.054555  -0.069314   0.049096   0.000631   0.023579
    26  C   -0.081917   0.151975  -0.383208  -0.023079   0.014702  -0.017476
    27  C    0.131932   0.089835  -0.037704  -0.122454   0.013017   0.032294
    28  C    0.146547  -0.457914   0.065393  -0.240595   0.055965   0.457268
    29  C   -0.591574  -0.703200  -0.028961   0.052279   0.058914   0.353316
    30  C    0.558031   0.313189  -0.162737  -0.252817  -0.223366  -0.382725
    31  H   -0.011517   0.011920   0.015141   0.014101  -0.018371  -0.244911
    32  H    0.029953   0.003044   0.008834   0.021458  -0.026585  -0.150945
    33  H   -0.002114   0.001831   0.002075   0.070559   0.000001  -0.049962
    34  H   -0.003794   0.001342  -0.017205  -0.008497   0.036471  -0.023503
    35  H    0.003398  -0.000058  -0.002499  -0.013439   0.027951   0.007995
    36  H    0.004163  -0.012432   0.027932  -0.002808  -0.002624   0.001333
    37  H   -0.002404  -0.003869   0.031681   0.004421  -0.008388  -0.000194
    38  H    0.000189  -0.013656   0.005066  -0.000050   0.001040   0.000067
    39  H   -0.000464  -0.001030   0.000460   0.000013   0.000043  -0.000013
    40  H    0.000106   0.002718  -0.000114   0.000063   0.000023   0.000005
    41  H   -0.000052   0.000014   0.000062   0.000040   0.000002   0.000010
    42  H    0.000851  -0.000107   0.000111   0.000190   0.000014   0.000071
    43  H    0.002116  -0.000292  -0.000048  -0.000491   0.000041   0.000331
    44  H    0.011919  -0.005425   0.000621  -0.015394   0.000670   0.009181
    45  H    0.038096  -0.009576   0.000467  -0.019858   0.006300   0.056021
    46  H   -0.190442  -0.018455  -0.031861  -0.037731   0.082153   0.241197
               7          8          9         10         11         12
     1  C   -2.259489  -0.132224  -0.183384  -0.791882  -0.624244   0.180323
[...]
 01143,-0.00000152,-0.00035686,0.00005807,0.01210399,-0.01656578,0.0048
 5502,-0.10715143,0.09994926,-0.03035394,-0.00811062,0.02870887,-0.0081
 6273,-0.00474557,-0.00142159,-0.00074208,0.00007280,0.00001941,0.00003
 755,-0.00002778,0.00000204,-0.00000984,-0.00000636,-0.00000420,-0.0000
 0372,-0.00000432,0.00000081,0.00000216,-0.00000462,0.00000381,-0.00000
 067,-0.00000165,0.00000358,-0.00000020,0.00000041,0.00000278,-0.000001
 28,-0.00000067,0.00000245,-0.00000103,0.00000361,0.00000679,-0.0000001
 6,0.00002345,-0.00008738,0.00001145,-0.00004209,0.00000600,-0.00000316
 ,0.00075826,0.00059229,-0.00005711,0.10867951,0.00013665,0.00006099,0.
 00000753,-0.00001075,0.00000633,-0.00001194,0.00002486,0.00001420,-0.0
 0000548,-0.00009583,-0.00002606,-0.00000386,0.00002633,-0.00004763,-0.
 00000260,0.00001016,0.00006021,0.00000116,-0.00000166,-0.00001069,0.00
 000525,0.00001678,0.00001156,-0.00000022,-0.00000373,-0.00001144,0.000
 00163,0.00001283,-0.00003209,-0.00000175,-0.00002479,0.00000256,0.0000
 0221,0.00000644,0.00001362,-0.00000086,-0.00017074,-0.00019665,0.00000
 766,0.00008338,-0.00000478,0.00005521,0.00000235,-0.00002115,-0.000082
 65,0.00004792,-0.00007182,0.00000083,0.00002406,0.00004630,0.00000459,
 0.00002014,-0.00000357,-0.00000310,0.00002874,0.00012416,-0.00028527,-
 0.00012602,0.00008281,0.00003734,0.00003791,-0.00001469,0.00001174,-0.
 00002327,-0.00000749,0.00000077,-0.00041028,0.00001594,-0.00017117,-0.
 00398419,-0.00093078,0.00282048,0.00101331,-0.00073889,0.00011079,-0.0
 0038059,-0.00036521,-0.00006917,0.01358438,-0.01704665,0.00603886,0.10
 020367,-0.26827919,0.06890387,-0.00185076,0.00164293,0.00014113,-0.000
 41858,0.00203044,0.00116974,-0.00005210,-0.00001556,-0.00003308,0.0000
 0879,-0.00000163,0.00000796,0.00000382,0.00000510,0.00000199,0.0000057
 4,-0.00000086,-0.00000120,0.00000624,-0.00000128,0.00000049,0.00000251
 ,-0.00000619,0.00000041,0.00000320,-0.00000749,0.00000205,0.00000535,-
 0.00000881,-0.00000016,-0.00000551,0.00000094,0.00000102,0.00004214,-0
 .00012703,0.00001300,-0.00005203,0.00001247,0.00003679,-0.00025379,0.0
 0052477,-0.00143720,-0.10791628,0.28277071,0.00009126,-0.00005691,-0.0
 0019529,0.00001657,0.00004772,-0.00003235,0.00004471,0.00000884,-0.000
 01292,-0.00004400,-0.00002512,-0.00002974,-0.00003012,-0.00003136,0.00
 002025,0.00002551,-0.00001428,0.00000751,-0.00002506,0.00002455,-0.000
 00158,-0.00000427,-0.00003634,-0.00001051,0.00002331,0.00001659,0.0000
 0823,-0.00002577,-0.00000697,0.00000433,0.00001135,0.00000210,-0.00000
 076,-0.00000392,-0.00000552,0.00000012,-0.00012018,0.00010764,0.000180
 97,-0.00008581,-0.00013936,-0.00003398,-0.00002106,0.00004393,0.000047
 99,-0.00002259,0.00001967,0.00001503,-0.00002137,-0.00005504,0.0000393
 2,0.00003013,-0.00000372,-0.00000353,-0.00005122,-0.00016360,-0.000874
 02,0.00014506,-0.00000466,0.00010948,-0.00003361,0.00004869,0.00004460
 ,0.00004153,0.00001723,-0.00001221,0.00034255,-0.00001183,-0.00050284,
 0.00153051,0.00240995,0.00760751,-0.00042679,0.00005306,0.00015338,-0.
 00003172,0.00015786,-0.00054655,-0.00398747,0.00494894,0.00221817,-0.0
 2937566,0.06896556,-0.05710605,-0.00124764,0.00202651,0.00202157,-0.00
 038529,0.00022128,0.00597950,0.00000420,0.00001263,0.00001955,-0.00000
 195,0.00000105,0.00000214,-0.00000148,-0.00000059,-0.00000050,-0.00000
 060,-0.00000007,0.00000230,-0.00000043,-0.00000038,0.00000081,-0.00000
 029,0.00000070,0.00000089,-0.00000077,0.00000229,0.00000550,-0.0000002
 5,0.00000258,-0.00000072,0.00000078,-0.00000136,0.00000026,-0.00001765
 ,0.00004262,-0.00000146,0.00002933,0.00002074,0.00010717,0.00006765,-0
 .00135053,-0.00400224,0.03341664,-0.07629601,0.04788787,0.00047187,-0.
 00076880,-0.00014076,0.00007422,0.00045463,0.00005862,0.00022495,-0.00
 007276,-0.00003789,-0.00027876,-0.00009611,-0.00010906,-0.00000467,-0.
 00015207,-0.00001509,0.00004835,0.00005743,0.00002623,-0.00012301,0.00
 002873,-0.00000341,0.00003376,-0.00008364,-0.00001361,0.00002451,0.000
 02805,0.00002246,-0.00001835,0.00005995,0.00002357,0.00002069,-0.00001
 024,-0.00000369,-0.00001450,-0.00000140,0.00000371,-0.00010495,0.00158
 169,-0.00025687,-0.00448411,0.00007794,-0.00160494,-0.00044162,0.00009
 844,-0.00005490,-0.00011598,-0.00006087,-0.00002149,-0.00004873,-0.000
 05760,0.00001701,0.00000836,-0.00006081,-0.00001049,0.00077628,0.00015
 519,-0.00003124,0.00002117,0.00011508,0.00004079,-0.00001414,0.0000853
 9,-0.00003671,0.00008528,0.00004004,-0.00000690,-0.00118987,0.00289907
 ,-0.00109453,-0.00028930,0.00091468,-0.00030035,-0.00008508,-0.0002586
 7,0.00013670,-0.00006865,0.00014404,-0.00002614,-0.00575419,0.00162981
 ,-0.00111989,-0.01461244,-0.02775229,0.00541713,-0.14037786,-0.1296019
 8,0.02679662,0.01035342,0.01210705,-0.00200930,-0.00033866,-0.00006525
 ,-0.00033689,-0.00000365,-0.00001459,-0.00000140,0.00000015,0.00000542
 ,0.00000449,0.00000820,-0.00000525,0.00000327,0.00000762,-0.00000556,-
 0.00000096,0.00000213,-0.00000614,-0.00000023,-0.00000520,-0.00000326,
 -0.00000123,0.00000006,-0.00000187,0.00000321,-0.00000770,0.00002484,0
 .00000623,0.00000150,-0.00000998,-0.00000210,0.00007642,0.00004513,-0.
 00001845,-0.00074630,-0.00118422,0.00050846,0.00103782,0.00039490,0.00
 025691,0.15979083,0.00004454,0.00036348,-0.00004433,0.00003041,-0.0002
 7259,-0.00000829,-0.00014451,0.00008709,0.00002709,-0.00001947,-0.0000
 3066,0.00009430,0.00005222,0.00002501,0.00000684,-0.00019427,0.0000902
 3,-0.00013737,0.00009815,0.00005669,0.00007662,-0.00002599,0.00007777,
 0.00001990,-0.00005109,-0.00005630,-0.00001858,0.00001841,-0.00007079,
 -0.00002440,-0.00004169,0.00001756,0.00000244,0.00004045,0.00000672,0.
 00000317,-0.00167506,-0.00269071,-0.00108340,-0.00142049,0.00043156,-0
 .00111139,0.00013539,0.00044913,-0.00057236,-0.00007327,0.00007183,0.0
 0002858,0.00003256,-0.00001654,-0.00001736,0.00001656,0.00004454,0.000
 01648,-0.00114885,-0.00020912,0.00021568,0.00030839,-0.00032216,-0.000
 17025,-0.00006203,-0.00000544,0.00002017,-0.00001595,-0.00007520,0.000
 00435,0.00355188,-0.00188077,0.00248245,0.00039945,0.00020053,-0.00031
 041,-0.00002195,0.00005915,-0.00015523,0.00001845,-0.00001337,0.000041
 64,0.00051408,0.00141654,0.00120179,0.00396548,0.00523852,0.00013603,-
 0.12760864,-0.24606274,0.04765462,-0.01391331,-0.01977977,0.00455175,0
 .00018095,0.00021920,0.00055941,0.00001145,0.00002522,0.00004231,0.000
 00803,-0.00000213,-0.00000553,-0.00000499,0.00001113,-0.00000891,-0.00
 000171,0.00000444,-0.00000077,0.00000270,0.00000096,0.00000083,0.00000
 838,-0.00000313,-0.00000060,0.00000832,-0.00000506,-0.00000271,0.00000
 767,-0.00005041,-0.00000435,-0.00001413,-0.00001366,0.00001123,-0.0000
 3583,-0.00001337,0.00001469,0.00023316,0.00004841,-0.00001046,-0.00020
 673,0.00056318,-0.00103725,0.13946843,0.26027385,0.00094782,-0.0010115
 6,0.00012979,0.00014255,0.00033096,0.00002436,0.00020777,-0.00003359,0
 .00002086,-0.00047818,-0.00015778,0.00031305,-0.00003701,-0.00023084,-
 0.00004161,0.00028069,0.00019718,-0.00007325,-0.00017194,0.00001720,0.
 00003855,0.00005870,-0.00011794,-0.00001113,0.00000289,0.00005194,-0.0
 0002796,-0.00005151,-0.00001018,-0.00002041,0.00003116,-0.00001290,-0.
 00000455,-0.00001972,-0.00002829,0.00000667,0.00060084,-0.00007882,-0.
 00360242,-0.00159875,0.00053577,-0.00087944,0.00002634,-0.00062990,-0.
 00045985,-0.00008220,-0.00001469,-0.00001571,-0.00013525,-0.00008699,-
 0.00006297,0.00011797,-0.00004714,0.00001337,0.00071023,-0.00022775,0.
 00081528,0.00016673,0.00014653,-0.00043669,-0.00007453,0.00015267,0.00
 000131,0.00016990,0.00007696,-0.00002188,-0.00111066,0.00309331,0.0053
 1754,-0.00103272,0.00086443,-0.00116364,-0.00012527,-0.00063767,-0.000
 43829,-0.00037581,0.00028611,0.00013483,-0.00140957,-0.00003160,0.0058
 2022,0.00000849,-0.00212993,0.00501240,0.02274781,0.05007398,-0.047109
 88,0.00634357,0.00310344,0.00287716,0.00036947,0.00024079,0.00008591,-
 0.00008369,0.00002520,0.00012699,-0.00000062,0.00000450,0.00001156,0.0
 0000710,-0.00000888,-0.00000905,0.00000338,-0.00000298,-0.00000337,0.0
 0000096,-0.00000227,0.00000115,-0.00000297,0.00000089,0.00000893,0.000
 00090,0.00000162,0.00000952,-0.00000952,0.00002303,-0.00003467,0.00000
 708,0.00001366,0.00003749,0.00004159,0.00002259,0.00003169,-0.00016163
 ,-0.00021927,0.00015167,0.00038716,-0.00104107,-0.00309391,-0.02312741
 ,-0.05176862,0.03614436,0.00005608,-0.00385194,-0.00142182,0.00057358,
 0.00049518,-0.00067805,0.00041399,-0.00023869,-0.00000465,-0.00149719,
 -0.00059999,0.00045093,0.00021262,-0.00068441,-0.00014335,-0.00433103,
 -0.00196982,-0.00257292,0.00012873,0.00132865,0.00055844,-0.00029180,0
 .00011324,0.00017521,-0.00036563,-0.00017382,0.00000862,0.00010185,0.0
 0015251,0.00011612,-0.00010060,-0.00001385,0.00001756,0.00009759,0.000
 01723,0.00000503,0.01067682,-0.00728165,0.00329079,-0.12387957,0.13014
 424,-0.01625716,-0.01829738,0.02235834,-0.00424166,-0.00005497,-0.0000
 5146,0.00001048,0.00001766,0.00002138,0.00003883,-0.00002418,-0.000152
 61,-0.00000170,0.00022720,-0.00002543,-0.00001910,-0.00007463,0.000010
 77,-0.00000277,-0.00001557,-0.00002656,0.00000759,0.00000975,0.0000064
 0,-0.00000681,0.00005396,0.00000993,0.00002808,0.00001365,0.00001607,-
 0.00000802,-0.00003872,0.00008114,-0.00000521,0.00008024,-0.00002648,-
 0.00000309,-0.00003805,0.00010449,0.00004007,-0.00016693,-0.00003091,0
 .00025319,-0.00302847,-0.00176528,-0.00122370,-0.00031878,0.00134997,0
 .00022984,-0.00028567,0.00104066,0.00262790,0.00087403,0.00009657,0.00
 095568,0.00001319,-0.00002654,-0.00005605,-0.00006297,0.00014219,-0.00
 005760,-0.00000088,0.00000128,-0.00000076,0.00001842,-0.00000085,-0.00
 002169,-0.00000301,-0.00000155,-0.00000278,-0.00000688,-0.00000322,-0.
 00000085,-0.00000121,0.00000293,-0.00000107,-0.00000165,0.00000496,-0.
 00000008,0.00000756,0.00000186,0.00000090,-0.00000762,-0.00000779,-0.0
 0004918,-0.00004934,-0.00000493,-0.00008845,-0.00431027,-0.00197572,-0
 .00305833,0.14486572,-0.00388769,-0.00362947,-0.00058548,0.00105086,0.
 00024544,-0.00035624,0.00003949,-0.00055008,0.00001751,-0.00074575,0.0
 0014479,0.00006075,0.00015177,-0.00013231,-0.00004930,-0.00173293,-0.0
 0002020,-0.00023902,-0.00005297,0.00038805,0.00033964,-0.00006258,0.00
 006413,0.00001986,-0.00008267,-0.00009191,-0.00000188,0.00015057,0.000
 12797,0.00002127,-0.00004383,-0.00005728,0.00000224,0.00003642,0.00004
 167,-0.00000020,0.01570099,-0.01550567,0.00227747,0.13223203,-0.273436
 78,0.00896366,-0.00650607,0.00659386,-0.00034014,0.00008430,0.00003513
 ,0.00000983,-0.00000216,-0.00008660,0.00002727,-0.00007436,-0.00006315
 ,-0.00000086,0.00019963,0.00006886,-0.00002850,-0.00010943,-0.00004212
 ,0.00000875,-0.00003598,-0.00001188,0.00000855,0.00002732,0.00000973,-
 0.00000670,-0.00028978,0.00002584,-0.00007440,-0.00000755,-0.00013407,
 0.00005657,-0.00008243,0.00011176,-0.00000042,0.00013765,-0.00000978,-
 0.00001395,0.00018068,0.00007251,-0.00012196,-0.00015106,0.00074528,-0
 .00004037,0.00047088,-0.00022445,0.00095730,0.00167344,0.00017839,0.00
 041413,0.00015840,-0.00102750,-0.00009955,0.00015121,0.00113936,0.0000
 5238,0.00002346,-0.00000428,-0.00000870,-0.00001637,0.00004399,-0.0000
 3497,0.00000864,-0.00000704,0.00000066,0.00002223,-0.00000875,-0.00000
 176,-0.00000499,-0.00001076,-0.00000176,-0.00000790,-0.00000962,0.0000
 0167,-0.00000599,-0.00000054,-0.00000005,-0.00000542,0.00000094,0.0000
 0126,-0.00000635,-0.00000099,-0.00000225,0.00005604,0.00005716,-0.0000
 5736,-0.00001570,-0.00001597,0.00004453,-0.00022016,0.00187742,-0.0007
 7989,-0.13899990,0.28312310,-0.00238339,0.00031508,0.00354292,0.000156
 55,-0.00073575,0.00232386,-0.00030850,-0.00002492,-0.00030711,0.001061
 54,0.00034048,-0.00118317,0.00000710,0.00047946,0.00022955,0.00245089,
 -0.00136171,0.00048031,-0.00015606,-0.00012102,-0.00039974,0.00011546,
 -0.00028965,0.00000470,0.00022716,0.00012692,-0.00005706,-0.00003276,-
 0.00006415,-0.00028564,0.00008732,0.00000226,0.00001487,-0.00003621,-0
 .00005519,-0.00000648,0.00434353,-0.00414149,-0.00358450,-0.01102179,0
 .01031550,-0.01010079,0.00201176,-0.00035416,0.00049591,-0.00001883,0.
 00013000,-0.00008641,0.00001818,-0.00009520,-0.00012915,-0.00003464,0.
 00010718,0.00001883,0.00007628,-0.00009696,0.00006394,-0.00001457,0.00
 002178,0.00000307,0.00002758,0.00001684,-0.00000817,-0.00000466,-0.000
 02623,0.00000861,0.00034561,0.00049480,-0.00009375,-0.00028773,0.00012
 566,0.00004063,0.00005134,0.00007790,-0.00000145,0.00001539,-0.0000475
 6,-0.00000257,0.00000307,-0.00024550,0.00008833,0.00050346,0.00036152,
 -0.00045858,-0.00100725,-0.00155387,-0.00032808,-0.00045706,0.00017978
 ,-0.00215231,-0.01227590,0.00735954,-0.00039748,-0.00075827,0.00016239
 ,-0.00054631,0.00006755,0.00003568,-0.00002531,0.00003917,-0.00004986,
 0.00012713,0.00000186,-0.00000686,-0.00000568,-0.00000186,-0.00000193,
 0.00002387,0.00000167,-0.00000316,0.00000931,0.00000251,-0.00000193,0.
 00000324,-0.00000062,-0.00000176,0.00000247,0.00000024,-0.00000334,0.0
 0000039,-0.00000233,-0.00000095,-0.00000908,0.00002497,0.00005620,0.00
 008354,-0.00005222,0.00000227,0.00002618,-0.00323546,-0.00052222,0.000
 10447,0.02013196,-0.01014227,0.01816884,0.01885475,-0.01177844,0.00208
 330,0.00025401,0.00466415,0.00034915,0.00403889,0.00019921,-0.00058267
 ,-0.02070753,-0.00567054,0.00137337,0.00193820,-0.00743863,-0.00115233
 ,-0.00871414,0.02072104,0.01708823,0.00734472,-0.00196987,0.00224804,0
 .00155023,0.00656622,0.00002432,-0.00559625,-0.00250247,0.00022860,0.0
 0048151,0.00073043,0.00000046,-0.00154768,-0.00031686,0.00012812,0.000
 93711,0.00063652,0.00012053,0.00484598,0.03484008,-0.00021549,-0.01770
 775,-0.01947991,-0.05233141,-0.03577935,-0.02082610,-0.05658976,-0.000
 12456,-0.00037893,-0.00005542,0.00020988,0.00029121,-0.00003531,0.0000
 3201,-0.00105873,0.00002324,0.00035640,-0.00063393,-0.00001905,0.00041
 518,0.00055263,-0.00015869,0.00015117,-0.00037970,-0.00001240,-0.00010
 768,-0.00019527,0.00005294,0.00043515,0.00164122,0.00037422,-0.0002892
 9,0.00032489,-0.00025582,-0.00000007,0.00007754,-0.00010864,-0.0002697
 9,-0.00012981,0.00008377,-0.00014431,-0.00063437,0.00017666,0.00010393
 ,-0.00004245,0.00042143,-0.00028953,-0.00103001,-0.00030808,-0.0032196
 8,-0.00069594,-0.00043020,0.00425705,-0.00011087,0.03473703,0.00104552
 ,0.00093851,0.01368156,0.00021400,-0.00008990,-0.00005642,-0.00011273,
 0.00023308,-0.00028740,0.00000427,0.00003504,-0.00001869,0.00010558,-0
 .00004508,-0.00003483,-0.00001456,-0.00006003,0.00002321,-0.00001847,-
 0.00004322,-0.00000390,-0.00000667,-0.00002097,0.00000101,-0.00001408,
 -0.00001545,0.00000604,-0.00004117,-0.00001050,0.00003499,-0.00007263,
 -0.00005607,-0.00006308,-0.00003940,0.00003322,-0.00002258,0.00037040,
 -0.00049983,-0.00023381,-0.00118962,0.00059398,0.00031795,0.04806100,-
 0.00176940,-0.00091407,0.00280316,0.00030271,0.00080896,-0.00006889,-0
 .00008618,0.00067824,-0.00013557,0.00381071,0.00082324,-0.00069234,-0.
 00123570,0.00120202,-0.00009957,0.00488778,-0.00496149,-0.01591059,-0.
 00252776,0.00158542,-0.00022629,0.00021153,-0.00248502,0.00030046,0.00
 190976,0.00104592,0.00020625,-0.00033503,-0.00055869,0.00012908,0.0002
 1615,0.00011814,-0.00002439,-0.00012954,-0.00003227,-0.00006332,0.0001
 2041,0.00177804,-0.00073135,-0.00137789,0.00587027,-0.00861301,-0.0065
 6620,-0.02609927,-0.00005497,-0.00077234,-0.00051488,0.00009324,-0.000
 47126,0.00040419,0.00006939,0.00055099,0.00018379,-0.00000015,0.000391
 67,-0.00011670,-0.00009930,-0.00009760,-0.00025613,0.00002891,-0.00018
 189,0.00015037,0.00002071,0.00015405,0.00009413,-0.00003103,-0.0000064
 9,0.00010176,0.00010419,0.00000863,-0.00004436,-0.00003007,-0.00004047
 ,0.00001105,0.00000378,0.00002312,-0.00001515,-0.00000888,0.00002440,-
 0.00003203,0.00001364,0.00002554,-0.00003553,-0.00003563,0.00000776,0.
 00017282,0.00004749,-0.00006542,-0.00029255,0.00001595,-0.00172846,-0.
 00607015,0.00424488,0.00113194,0.00014311,0.01689380,0.00010237,0.0001
 3924,-0.00024671,0.00000104,-0.00002133,0.00004236,0.00000804,-0.00000
 280,0.00000716,-0.00000884,-0.00000823,0.00001226,0.00000868,-0.000005
 72,-0.00005334,0.00000388,-0.00000870,-0.00000170,-0.00001002,0.000000
 05,-0.00000071,-0.00000185,-0.00000519,-0.00000019,-0.00000556,0.00000
 368,0.00000858,-0.00001318,-0.00000597,0.00000862,0.00000404,0.0000043
 5,-0.00000635,0.00007756,-0.00008624,0.00004777,0.00041342,-0.00001418
 ,-0.00076361,0.00303492,0.02726784,-0.00922183,-0.01069040,0.00005771,
 0.00006025,0.01027387,0.00070344,0.00360803,0.00188856,-0.00019729,0.0
 0527118,0.00297221,-0.00142115,-0.00420980,0.00021712,-0.00029165,0.02
 075504,-0.02223088,-0.01609345,-0.00798034,0.00489388,0.00029685,0.001
 06269,-0.00940090,-0.00039452,0.00754509,0.00433885,0.00039445,-0.0020
 9588,-0.00215146,0.00047744,0.00041121,0.00093340,-0.00007903,-0.00015
 045,0.00000127,0.00001064,0.00230618,-0.00069510,-0.00087918,-0.041532
 81,0.00294578,0.02219948,0.04181029,0.02038766,0.06049269,-0.00342065,
 -0.00322537,-0.00006268,-0.00122045,0.00159254,0.00024041,0.00243670,-
 0.00075239,-0.00027961,0.00271839,0.00002795,-0.00042332,-0.00161969,-
 0.00150694,0.00031525,-0.00085647,0.00097414,0.00008988,0.00082273,0.0
 0060347,-0.00009769,0.00060752,-0.00060763,-0.00003437,-0.00051825,-0.
 00037188,0.00020269,-0.00035086,0.00061626,0.00000753,0.00083523,-0.00
 031472,-0.00008714,0.00013940,-0.00004113,-0.00002999,0.00017732,-0.00
 003875,-0.00023168,-0.00006498,0.00148349,0.00047762,0.00203170,-0.000
 59334,-0.00041208,-0.06122611,-0.00978701,-0.04884550,0.00072404,0.005
 66819,-0.01973759,0.00053512,0.00050079,-0.00070229,0.00004480,-0.0000
 3450,0.00014076,0.00010816,0.00000968,-0.00001098,0.00002070,-0.000093
 39,0.00001625,0.00004868,-0.00000901,-0.00007700,0.00003723,-0.0000785
 4,-0.00000244,-0.00012513,-0.00002177,-0.00000569,-0.00004366,-0.00006
 508,-0.00000905,-0.00004948,0.00005006,-0.00000756,-0.00007498,-0.0000
 3043,0.00001576,-0.00002920,0.00006004,-0.00004945,0.00029598,-0.00019
 757,0.00027157,0.00097962,-0.00029730,-0.00569614,0.03939779,0.0027962
 7,0.00974810\\-0.00000236,0.00000265,-0.00000339,-0.00000085,-0.000000
 78,0.00000107,-0.00000102,-0.00000139,0.00001001,0.00000503,0.00001180
 ,-0.00000916,0.00000095,-0.00000108,-0.00000250,-0.00001903,-0.0000164
 1,0.00000188,0.00000028,-0.00000296,-0.00000299,0.00000188,0.,0.000005
 98,-0.00000676,-0.00000222,0.00000247,-0.00000077,0.00000158,0.0000022
 4,-0.00000171,-0.00000301,0.00000216,0.00000053,-0.00000249,0.00000313
 ,-0.00000006,-0.00001165,-0.00000345,0.00001748,-0.00001527,-0.0000264
 8,-0.00000581,0.00002008,-0.00000487,0.00000292,0.00000365,-0.00000206
 ,-0.00000248,0.00000064,0.00000121,-0.00000126,-0.00000151,0.00000259,
 -0.00000090,0.00000126,0.00000078,-0.00000053,0.00000176,-0.00000249,-
 0.00000205,0.00000062,0.00000019,-0.00000154,-0.00000006,0.00000048,-0
 .00000232,-0.00000016,0.00000071,0.00000047,0.00000251,-0.00000131,-0.
 00000074,0.00000186,-0.00000357,-0.00000094,0.00000262,-0.00000182,0.0
 0000037,0.00000176,-0.00000380,0.00000221,0.00000110,-0.00000335,0.000
 00194,0.00000305,-0.00000402,0.00000447,0.00000006,-0.00000643,0.00001
 413,0.00001667,0.00003713,0.00001029,-0.00000692,0.00000056,0.00000160
 ,-0.00000210,0.00000158,0.00000055,-0.00000323,0.00000333,-0.00000065,
 -0.00000244,0.00000436,-0.00000197,-0.00000206,0.00000344,-0.00000186,
 -0.00000061,0.00000169,-0.00000219,0.00000067,0.00000088,-0.00000217,0
 .00000173,-0.00000128,-0.00000149,0.00000242,-0.00000302,-0.00000027,0
 .00000280,-0.00000341,0.00000119,0.00000269,-0.00000303,0.00000240,0.0
 0000160,-0.00000362,0.00000148,-0.00000022,-0.00000140,-0.00000328,-0.
 00000515,0.00000379,-0.00000520,-0.00000389,0.00000581\\\@


 You can't act like a skunk without someone's getting wind of it.
 -- Lorene Workman
 Job cpu time:       0 days 23 hours 56 minutes 16.8 seconds.
 Elapsed time:       0 days  1 hours 12 minutes  1.0 seconds.
 File lengths (MBytes):  RWF=   2270 Int=      0 D2E=      0 Chk=     57 Scr=      1
 Normal termination of Gaussian 16 at Tue Aug 13 22:35:50 2019.
