 Entering Gaussian System, Link 0=/share/apps/gaussian16/g16/g16
 Initial command:
 /share/apps/gaussian16/g16/l1.exe "/home/amen01//scratch/678/Gau-16921.inp" -scrdir="/home/amen01//scratch/678/"
 Entering Link 1 = /share/apps/gaussian16/g16/l1.exe PID=     16922.
  
 Copyright (c) 1988-2017, Gaussian, Inc.  All Rights Reserved.
  
 This is part of the Gaussian(R) 16 program.  It is based on
 the Gaussian(R) 09 system (copyright 2009, Gaussian, Inc.),
 the Gaussian(R) 03 system (copyright 2003, Gaussian, Inc.),
 the Gaussian(R) 98 system (copyright 1998, Gaussian, Inc.),
 the Gaussian(R) 94 system (copyright 1995, Gaussian, Inc.),
 the Gaussian 92(TM) system (copyright 1992, Gaussian, Inc.),
 the Gaussian 90(TM) system (copyright 1990, Gaussian, Inc.),
 the Gaussian 88(TM) system (copyright 1988, Gaussian, Inc.),
 the Gaussian 86(TM) system (copyright 1986, Carnegie Mellon
 University), and the Gaussian 82(TM) system (copyright 1983,
 Carnegie Mellon University). Gaussian is a federally registered
 trademark of Gaussian, Inc.
  
 This software contains proprietary and confidential information,
 including trade secrets, belonging to Gaussian, Inc.
  
 This software is provided under written license and may be
 used, copied, transmitted, or stored only in accord with that
 written license.
  
 The following legend is applicable only to US Government
 contracts under FAR:
  
                    RESTRICTED RIGHTS LEGEND
  
 Use, reproduction and disclosure by the US Government is
 subject to restrictions as set forth in subparagraphs (a)
 and (c) of the Commercial Computer Software - Restricted
 Rights clause in FAR 52.227-19.
  
 Gaussian, Inc.
 340 Quinnipiac St., Bldg. 40, Wallingford CT 06492
  
  
 ---------------------------------------------------------------
 Warning -- This program may not be used in any manner that
 competes with the business of Gaussian, Inc. or will provide
 assistance to any competitor of Gaussian, Inc.  The licensee
 of this program is prohibited from giving any competitor of
 Gaussian, Inc. access to this program.  By using this program,
 the user acknowledges that Gaussian, Inc. is engaged in the
 business of creating and licensing software in the field of
 computational chemistry and represents and warrants to the
 licensee that it is not a competitor of Gaussian, Inc. and that
 it will not use this program in any manner prohibited above.
 ---------------------------------------------------------------
  

 Cite this work as:
 Gaussian 16, Revision B.01,
 M. J. Frisch, G. W. Trucks, H. B. Schlegel, G. E. Scuseria, 
 M. A. Robb, J. R. Cheeseman, G. Scalmani, V. Barone, 
 G. A. Petersson, H. Nakatsuji, X. Li, M. Caricato, A. V. Marenich, 
 J. Bloino, B. G. Janesko, R. Gomperts, B. Mennucci, H. P. Hratchian, 
 J. V. Ortiz, A. F. Izmaylov, J. L. Sonnenberg, D. Williams-Young, 
 F. Ding, F. Lipparini, F. Egidi, J. Goings, B. Peng, A. Petrone, 
 T. Henderson, D. Ranasinghe, V. G. Zakrzewski, J. Gao, N. Rega, 
 G. Zheng, W. Liang, M. Hada, M. Ehara, K. Toyota, R. Fukuda, 
 J. Hasegawa, M. Ishida, T. Nakajima, Y. Honda, O. Kitao, H. Nakai, 
 T. Vreven, K. Throssell, J. A. Montgomery, Jr., J. E. Peralta, 
 F. Ogliaro, M. J. Bearpark, J. J. Heyd, E. N. Brothers, K. N. Kudin, 
 V. N. Staroverov, T. A. Keith, R. Kobayashi, J. Normand, 
 K. Raghavachari, A. P. Rendell, J. C. Burant, S. S. Iyengar, 
 J. Tomasi, M. Cossi, J. M. Millam, M. Klene, C. Adamo, R. Cammi, 
 J. W. Ochterski, R. L. Martin, K. Morokuma, O. Farkas, 
 J. B. Foresman, and D. J. Fox, Gaussian, Inc., Wallingford CT, 2016.
 
 ******************************************
 Gaussian 16:  ES64L-G16RevB.01 20-Dec-2017
                 3-Jul-2019 
 ******************************************
 %nprocshared=20
 Will use up to   20 processors via shared memory.
 %mem=100GB
 %chk=7-memb2-haddTSguess-5a.chk
 ---------------------------------------------------------------
 # opt=(ts,calcfc,noeigen) freq b3lyp/6-311+g(d,p) int=grid=fine
 ---------------------------------------------------------------
 1/5=1,10=4,11=1,18=20,26=3,38=1/1,3;
 2/9=110,12=2,17=6,18=5,40=1/2;
 3/5=4,6=6,7=111,11=2,25=1,30=1,71=2,74=-5,75=-4,140=1/1,2,3;
 4//1;
 5/5=2,38=5/2;
 8/6=4,10=90,11=11/1;
 11/6=1,8=1,9=11,15=111,16=1/1,2,10;
 10/6=1,13=1/2;
 6/7=2,8=2,9=2,10=2,28=1/1;
 7/10=1,18=20,25=1/1,2,3,16;
 1/5=1,10=4,11=1,18=20,26=3/3(2);
 2/9=110/2;
 99//99;
 2/9=110/2;
 3/5=4,6=6,7=111,11=2,25=1,30=1,71=1,74=-5,75=-4/1,2,3;
 4/5=5,16=3,69=1/1;
 5/5=2,38=5/2;
 7//1,2,3,16;
 1/5=1,11=1,18=20,26=3/3(-5);
 2/9=110/2;
 6/7=2,8=2,9=2,10=2,19=2,28=1/1;
 99/9=1/99;
 ----------------------
 7-memb2-haddTSguess-5a
 ----------------------
 Symbolic Z-matrix:
 Charge =  0 Multiplicity = 1
 C                     0.69891  -0.92249  -0.19399 
 C                     0.54739   0.52143  -0.23952 
 C                     1.85134   1.04591  -0.32461 
 C                     2.07185  -1.20703  -0.23479 
 C                     2.782    -0.00146  -0.32348 
 C                     2.69364  -2.40676   0.1069 
 C                     4.13994  -2.31767   0.21446 
 C                     4.82054  -1.11708   0.11826 
 C                     4.13174   0.13895  -0.11099 
 C                     2.24318   2.36988  -0.16427 
 C                     3.67637   2.57022  -0.06608 
 C                     4.57291   1.51682  -0.03132 
 C                    -0.19994  -1.98303  -0.01819 
 C                     0.37562  -3.34095   0.43073 
 C                     1.79266  -3.43434   0.48379 
 C                    -0.5431    1.36531  -0.06806 
 C                    -0.17558   2.78385   0.01709 
 C                     1.15947   3.25299  -0.01741 
 C                    -1.93114   0.90639   0.03411 
 C                    -2.88446   1.95273   0.17258 
 C                    -2.50416   3.33312   0.25675 
 C                    -1.2178    3.74151   0.18585 
 C                    -2.41969  -0.50259  -0.03607 
 C                    -3.86118  -0.66271  -0.0429 
 C                    -4.74876   0.44405   0.08566 
 C                    -4.28229   1.70392   0.21254 
 C                    -4.49633  -1.91929  -0.16469 
 C                    -3.76926  -3.07401  -0.24988 
 C                    -2.3819   -2.97522  -0.18409 
 C                    -1.69276  -1.7708   -0.08093 
 H                     0.15065  -2.81884  -0.82714 
 H                     2.18863  -4.33391   0.95075 
 H                     4.70467  -3.21862   0.42997 
 H                     5.89547  -1.11757   0.26866 
 H                     5.62822   1.73637   0.09312 
 H                     4.0611    3.5809    0.02427 
 H                     1.31909   4.31949   0.10635 
 H                    -0.96198   4.79307   0.25343 
 H                    -3.30068   4.05906   0.37662 
 H                    -4.95852   2.54377   0.32377 
 H                    -5.81416   0.24332   0.08672 
 H                    -5.58042  -1.94035  -0.17881 
 H                    -4.24831  -4.04167  -0.34223 
 H                    -1.77886  -3.87497  -0.1702 
 

 GradGradGradGradGradGradGradGradGradGradGradGradGradGradGradGradGradGrad
 Berny optimization.
 Initialization pass.
                           ----------------------------
                           !    Initial Parameters    !
                           ! (Angstroms and Degrees)  !
 --------------------------                            --------------------------
 ! Name  Definition              Value          Derivative Info.                !
 --------------------------------------------------------------------------------
 ! R1    R(1,2)                  1.4526         calculate D2E/DX2 analytically  !
 ! R2    R(1,4)                  1.4027         calculate D2E/DX2 analytically  !
 ! R3    R(1,13)                 1.4013         calculate D2E/DX2 analytically  !
 ! R4    R(2,3)                  1.4081         calculate D2E/DX2 analytically  !
 ! R5    R(2,16)                 1.3895         calculate D2E/DX2 analytically  !
 ! R6    R(3,5)                  1.4011         calculate D2E/DX2 analytically  !
 ! R7    R(3,10)                 1.39           calculate D2E/DX2 analytically  !
 ! R8    R(4,5)                  1.402          calculate D2E/DX2 analytically  !
 ! R9    R(4,6)                  1.3938         calculate D2E/DX2 analytically  !
 ! R10   R(5,9)                  1.3736         calculate D2E/DX2 analytically  !
 ! R11   R(6,7)                  1.453          calculate D2E/DX2 analytically  !
 ! R12   R(6,15)                 1.4176         calculate D2E/DX2 analytically  !
 ! R13   R(7,8)                  1.3834         calculate D2E/DX2 analytically  !
 ! R14   R(7,33)                 1.0849         calculate D2E/DX2 analytically  !
 ! R15   R(8,9)                  1.4507         calculate D2E/DX2 analytically  !
 ! R16   R(8,34)                 1.0854         calculate D2E/DX2 analytically  !
 ! R17   R(9,12)                 1.449          calculate D2E/DX2 analytically  !
 ! R18   R(10,11)                1.4505         calculate D2E/DX2 analytically  !
 ! R19   R(10,18)                1.4057         calculate D2E/DX2 analytically  !
 ! R20   R(11,12)                1.3837         calculate D2E/DX2 analytically  !
 ! R21   R(11,36)                1.0852         calculate D2E/DX2 analytically  !
 ! R22   R(12,35)                1.0851         calculate D2E/DX2 analytically  !
 ! R23   R(13,14)                1.5417         calculate D2E/DX2 analytically  !
 ! R24   R(13,30)                1.5091         calculate D2E/DX2 analytically  !
 ! R25   R(13,31)                1.2149         calculate D2E/DX2 analytically  !
 ! R26   R(14,15)                1.4211         calculate D2E/DX2 analytically  !
 ! R27   R(15,32)                1.0882         calculate D2E/DX2 analytically  !
 ! R28   R(16,17)                1.4679         calculate D2E/DX2 analytically  !
 ! R29   R(16,19)                1.4655         calculate D2E/DX2 analytically  !
 ! R30   R(17,18)                1.4155         calculate D2E/DX2 analytically  !
 ! R31   R(17,22)                1.4254         calculate D2E/DX2 analytically  !
 ! R32   R(18,37)                1.0855         calculate D2E/DX2 analytically  !
 ! R33   R(19,20)                1.4223         calculate D2E/DX2 analytically  !
 ! R34   R(19,23)                1.4929         calculate D2E/DX2 analytically  !
 ! R35   R(20,21)                1.4343         calculate D2E/DX2 analytically  !
 ! R36   R(20,26)                1.4204         calculate D2E/DX2 analytically  !
 ! R37   R(21,22)                1.3515         calculate D2E/DX2 analytically  !
 ! R38   R(21,39)                1.0843         calculate D2E/DX2 analytically  !
 ! R39   R(22,38)                1.0843         calculate D2E/DX2 analytically  !
 ! R40   R(23,24)                1.4504         calculate D2E/DX2 analytically  !
 ! R41   R(23,30)                1.4625         calculate D2E/DX2 analytically  !
 ! R42   R(24,25)                1.4245         calculate D2E/DX2 analytically  !
 ! R43   R(24,27)                1.4132         calculate D2E/DX2 analytically  !
 ! R44   R(25,26)                1.3494         calculate D2E/DX2 analytically  !
 ! R45   R(25,41)                1.0841         calculate D2E/DX2 analytically  !
 ! R46   R(26,40)                1.084          calculate D2E/DX2 analytically  !
 ! R47   R(27,28)                1.3672         calculate D2E/DX2 analytically  !
 ! R48   R(27,42)                1.0844         calculate D2E/DX2 analytically  !
 ! R49   R(28,29)                1.3924         calculate D2E/DX2 analytically  !
 ! R50   R(28,43)                1.0837         calculate D2E/DX2 analytically  !
 ! R51   R(29,30)                1.3915         calculate D2E/DX2 analytically  !
 ! R52   R(29,44)                1.0832         calculate D2E/DX2 analytically  !
 ! A1    A(2,1,4)              107.6277         calculate D2E/DX2 analytically  !
 ! A2    A(2,1,13)             133.579          calculate D2E/DX2 analytically  !
 ! A3    A(4,1,13)             118.5525         calculate D2E/DX2 analytically  !
 ! A4    A(1,2,3)              105.9956         calculate D2E/DX2 analytically  !
 ! A5    A(1,2,16)             132.9778         calculate D2E/DX2 analytically  !
 ! A6    A(3,2,16)             120.5321         calculate D2E/DX2 analytically  !
 ! A7    A(2,3,5)              109.6716         calculate D2E/DX2 analytically  !
 ! A8    A(2,3,10)             127.5077         calculate D2E/DX2 analytically  !
 ! A9    A(5,3,10)             121.6465         calculate D2E/DX2 analytically  !
 ! A10   A(1,4,5)              108.856          calculate D2E/DX2 analytically  !
 ! A11   A(1,4,6)              127.1647         calculate D2E/DX2 analytically  !
 ! A12   A(5,4,6)              121.9854         calculate D2E/DX2 analytically  !
 ! A13   A(3,5,4)              107.8422         calculate D2E/DX2 analytically  !
 ! A14   A(3,5,9)              125.1991         calculate D2E/DX2 analytically  !
 ! A15   A(4,5,9)              125.1601         calculate D2E/DX2 analytically  !
 ! A16   A(4,6,7)              114.1677         calculate D2E/DX2 analytically  !
 ! A17   A(4,6,15)             113.9267         calculate D2E/DX2 analytically  !
 ! A18   A(7,6,15)             131.0993         calculate D2E/DX2 analytically  !
 ! A19   A(6,7,8)              122.5304         calculate D2E/DX2 analytically  !
 ! A20   A(6,7,33)             118.8096         calculate D2E/DX2 analytically  !
 ! A21   A(8,7,33)             118.5812         calculate D2E/DX2 analytically  !
 ! A22   A(7,8,9)              121.9225         calculate D2E/DX2 analytically  !
 ! A23   A(7,8,34)             118.5017         calculate D2E/DX2 analytically  !
 ! A24   A(9,8,34)             119.5056         calculate D2E/DX2 analytically  !
 ! A25   A(5,9,8)              113.7348         calculate D2E/DX2 analytically  !
 ! A26   A(5,9,12)             113.8854         calculate D2E/DX2 analytically  !
 ! A27   A(8,9,12)             132.0715         calculate D2E/DX2 analytically  !
 ! A28   A(3,10,11)            114.7022         calculate D2E/DX2 analytically  !
 ! A29   A(3,10,18)            113.1492         calculate D2E/DX2 analytically  !
 ! A30   A(11,10,18)           131.9082         calculate D2E/DX2 analytically  !
 ! A31   A(10,11,12)           122.464          calculate D2E/DX2 analytically  !
 ! A32   A(10,11,36)           118.9846         calculate D2E/DX2 analytically  !
 ! A33   A(12,11,36)           118.5038         calculate D2E/DX2 analytically  !
 ! A34   A(9,12,11)            121.6868         calculate D2E/DX2 analytically  !
 ! A35   A(9,12,35)            119.659          calculate D2E/DX2 analytically  !
 ! A36   A(11,12,35)           118.6206         calculate D2E/DX2 analytically  !
 ! A37   A(1,13,14)            117.625          calculate D2E/DX2 analytically  !
 ! A38   A(1,13,30)            121.5245         calculate D2E/DX2 analytically  !
 ! A39   A(1,13,31)            104.5983         calculate D2E/DX2 analytically  !
 ! A40   A(14,13,30)           120.3499         calculate D2E/DX2 analytically  !
 ! A41   A(14,13,31)            58.6795         calculate D2E/DX2 analytically  !
 ! A42   A(30,13,31)           110.7651         calculate D2E/DX2 analytically  !
 ! A43   A(13,14,15)           116.1694         calculate D2E/DX2 analytically  !
 ! A44   A(6,15,14)            125.1814         calculate D2E/DX2 analytically  !
 ! A45   A(6,15,32)            118.8191         calculate D2E/DX2 analytically  !
 ! A46   A(14,15,32)           115.6709         calculate D2E/DX2 analytically  !
 ! A47   A(2,16,17)            113.4273         calculate D2E/DX2 analytically  !
 ! A48   A(2,16,19)            124.1764         calculate D2E/DX2 analytically  !
 ! A49   A(17,16,19)           122.3935         calculate D2E/DX2 analytically  !
 ! A50   A(16,17,18)           123.7132         calculate D2E/DX2 analytically  !
 ! A51   A(16,17,22)           118.234          calculate D2E/DX2 analytically  !
 ! A52   A(18,17,22)           118.0229         calculate D2E/DX2 analytically  !
 ! A53   A(10,18,17)           121.4305         calculate D2E/DX2 analytically  !
 ! A54   A(10,18,37)           121.0523         calculate D2E/DX2 analytically  !
 ! A55   A(17,18,37)           117.4881         calculate D2E/DX2 analytically  !
 ! A56   A(16,19,20)           114.2842         calculate D2E/DX2 analytically  !
 ! A57   A(16,19,23)           127.0286         calculate D2E/DX2 analytically  !
 ! A58   A(20,19,23)           118.6558         calculate D2E/DX2 analytically  !
 ! A59   A(19,20,21)           122.4138         calculate D2E/DX2 analytically  !
 ! A60   A(19,20,26)           122.2433         calculate D2E/DX2 analytically  !
 ! A61   A(21,20,26)           115.3333         calculate D2E/DX2 analytically  !
 ! A62   A(20,21,22)           122.6912         calculate D2E/DX2 analytically  !
 ! A63   A(20,21,39)           117.1315         calculate D2E/DX2 analytically  !
 ! A64   A(22,21,39)           120.1765         calculate D2E/DX2 analytically  !
 ! A65   A(17,22,21)           119.9423         calculate D2E/DX2 analytically  !
 ! A66   A(17,22,38)           119.1052         calculate D2E/DX2 analytically  !
 ! A67   A(21,22,38)           120.9523         calculate D2E/DX2 analytically  !
 ! A68   A(19,23,24)           115.4457         calculate D2E/DX2 analytically  !
 ! A69   A(19,23,30)           131.0859         calculate D2E/DX2 analytically  !
 ! A70   A(24,23,30)           113.4619         calculate D2E/DX2 analytically  !
 ! A71   A(23,24,25)           122.2128         calculate D2E/DX2 analytically  !
 ! A72   A(23,24,27)           123.0411         calculate D2E/DX2 analytically  !
 ! A73   A(25,24,27)           114.7439         calculate D2E/DX2 analytically  !
 ! A74   A(24,25,26)           121.23           calculate D2E/DX2 analytically  !
 ! A75   A(24,25,41)           117.94           calculate D2E/DX2 analytically  !
 ! A76   A(26,25,41)           120.8282         calculate D2E/DX2 analytically  !
 ! A77   A(20,26,25)           120.0726         calculate D2E/DX2 analytically  !
 ! A78   A(20,26,40)           118.7578         calculate D2E/DX2 analytically  !
 ! A79   A(25,26,40)           121.1556         calculate D2E/DX2 analytically  !
 ! A80   A(24,27,28)           121.1534         calculate D2E/DX2 analytically  !
 ! A81   A(24,27,42)           117.8845         calculate D2E/DX2 analytically  !
 ! A82   A(28,27,42)           120.9595         calculate D2E/DX2 analytically  !
 ! A83   A(27,28,29)           117.8389         calculate D2E/DX2 analytically  !
 ! A84   A(27,28,43)           121.6269         calculate D2E/DX2 analytically  !
 ! A85   A(29,28,43)           120.5189         calculate D2E/DX2 analytically  !
 ! A86   A(28,29,30)           123.9431         calculate D2E/DX2 analytically  !
 ! A87   A(28,29,44)           119.7592         calculate D2E/DX2 analytically  !
 ! A88   A(30,29,44)           116.2502         calculate D2E/DX2 analytically  !
 ! A89   A(13,30,23)           127.7607         calculate D2E/DX2 analytically  !
 ! A90   A(13,30,29)           111.7932         calculate D2E/DX2 analytically  !
 ! A91   A(23,30,29)           120.4446         calculate D2E/DX2 analytically  !
 ! D1    D(4,1,2,3)              0.7691         calculate D2E/DX2 analytically  !
 ! D2    D(4,1,2,16)          -170.9034         calculate D2E/DX2 analytically  !
 ! D3    D(13,1,2,3)           174.8445         calculate D2E/DX2 analytically  !
 ! D4    D(13,1,2,16)            3.172          calculate D2E/DX2 analytically  !
 ! D5    D(2,1,4,5)             -0.8484         calculate D2E/DX2 analytically  !
 ! D6    D(2,1,4,6)            163.1583         calculate D2E/DX2 analytically  !
 ! D7    D(13,1,4,5)          -175.965          calculate D2E/DX2 analytically  !
 ! D8    D(13,1,4,6)           -11.9583         calculate D2E/DX2 analytically  !
 ! D9    D(2,1,13,14)         -160.2273         calculate D2E/DX2 analytically  !
 ! D10   D(2,1,13,30)           11.6803         calculate D2E/DX2 analytically  !
 ! D11   D(2,1,13,31)          137.8056         calculate D2E/DX2 analytically  !
 ! D12   D(4,1,13,14)           13.3425         calculate D2E/DX2 analytically  !
 ! D13   D(4,1,13,30)         -174.7499         calculate D2E/DX2 analytically  !
 ! D14   D(4,1,13,31)          -48.6246         calculate D2E/DX2 analytically  !
 ! D15   D(1,2,3,5)             -0.4121         calculate D2E/DX2 analytically  !
 ! D16   D(1,2,3,10)          -168.0446         calculate D2E/DX2 analytically  !
 ! D17   D(16,2,3,5)           172.5215         calculate D2E/DX2 analytically  !
 ! D18   D(16,2,3,10)            4.8891         calculate D2E/DX2 analytically  !
 ! D19   D(1,2,16,17)          170.2858         calculate D2E/DX2 analytically  !
 ! D20   D(1,2,16,19)           -9.123          calculate D2E/DX2 analytically  !
 ! D21   D(3,2,16,17)           -0.4123         calculate D2E/DX2 analytically  !
 ! D22   D(3,2,16,19)         -179.8211         calculate D2E/DX2 analytically  !
 ! D23   D(2,3,5,4)             -0.0993         calculate D2E/DX2 analytically  !
 ! D24   D(2,3,5,9)           -165.4241         calculate D2E/DX2 analytically  !
 ! D25   D(10,3,5,4)           168.3881         calculate D2E/DX2 analytically  !
 ! D26   D(10,3,5,9)             3.0633         calculate D2E/DX2 analytically  !
 ! D27   D(2,3,10,11)          169.2169         calculate D2E/DX2 analytically  !
 ! D28   D(2,3,10,18)           -5.8331         calculate D2E/DX2 analytically  !
 ! D29   D(5,3,10,11)            2.9212         calculate D2E/DX2 analytically  !
 ! D30   D(5,3,10,18)         -172.1288         calculate D2E/DX2 analytically  !
 ! D31   D(1,4,5,3)              0.5961         calculate D2E/DX2 analytically  !
 ! D32   D(1,4,5,9)            165.9281         calculate D2E/DX2 analytically  !
 ! D33   D(6,4,5,3)           -164.4011         calculate D2E/DX2 analytically  !
 ! D34   D(6,4,5,9)              0.9309         calculate D2E/DX2 analytically  !
 ! D35   D(1,4,6,7)           -168.4482         calculate D2E/DX2 analytically  !
 ! D36   D(1,4,6,15)             2.4329         calculate D2E/DX2 analytically  !
 ! D37   D(5,4,6,7)             -6.3513         calculate D2E/DX2 analytically  !
 ! D38   D(5,4,6,15)           164.5298         calculate D2E/DX2 analytically  !
 ! D39   D(3,5,9,8)            167.6381         calculate D2E/DX2 analytically  !
 ! D40   D(3,5,9,12)            -6.769          calculate D2E/DX2 analytically  !
 ! D41   D(4,5,9,8)              4.7941         calculate D2E/DX2 analytically  !
 ! D42   D(4,5,9,12)          -169.6131         calculate D2E/DX2 analytically  !
 ! D43   D(4,6,7,8)              6.1852         calculate D2E/DX2 analytically  !
 ! D44   D(4,6,7,33)          -177.0903         calculate D2E/DX2 analytically  !
 ! D45   D(15,6,7,8)          -162.7314         calculate D2E/DX2 analytically  !
 ! D46   D(15,6,7,33)           13.9932         calculate D2E/DX2 analytically  !
 ! D47   D(4,6,15,14)            5.0271         calculate D2E/DX2 analytically  !
 ! D48   D(4,6,15,32)         -168.0894         calculate D2E/DX2 analytically  !
 ! D49   D(7,6,15,14)          173.9647         calculate D2E/DX2 analytically  !
 ! D50   D(7,6,15,32)            0.8482         calculate D2E/DX2 analytically  !
 ! D51   D(6,7,8,9)             -0.6207         calculate D2E/DX2 analytically  !
 ! D52   D(6,7,8,34)           176.315          calculate D2E/DX2 analytically  !
 ! D53   D(33,7,8,9)          -177.3524         calculate D2E/DX2 analytically  !
 ! D54   D(33,7,8,34)           -0.4167         calculate D2E/DX2 analytically  !
 ! D55   D(7,8,9,5)             -4.8253         calculate D2E/DX2 analytically  !
 ! D56   D(7,8,9,12)           168.2799         calculate D2E/DX2 analytically  !
 ! D57   D(34,8,9,5)           178.2689         calculate D2E/DX2 analytically  !
 ! D58   D(34,8,9,12)           -8.6259         calculate D2E/DX2 analytically  !
 ! D59   D(5,9,12,11)            4.6962         calculate D2E/DX2 analytically  !
 ! D60   D(5,9,12,35)         -177.4452         calculate D2E/DX2 analytically  !
 ! D61   D(8,9,12,11)         -168.4009         calculate D2E/DX2 analytically  !
 ! D62   D(8,9,12,35)            9.4576         calculate D2E/DX2 analytically  !
 ! D63   D(3,10,11,12)          -4.748          calculate D2E/DX2 analytically  !
 ! D64   D(3,10,11,36)         177.8019         calculate D2E/DX2 analytically  !
 ! D65   D(18,10,11,12)        169.1321         calculate D2E/DX2 analytically  !
 ! D66   D(18,10,11,36)         -8.3179         calculate D2E/DX2 analytically  !
 ! D67   D(3,10,18,17)           2.6254         calculate D2E/DX2 analytically  !
 ! D68   D(3,10,18,37)        -179.3874         calculate D2E/DX2 analytically  !
 ! D69   D(11,10,18,17)       -171.3282         calculate D2E/DX2 analytically  !
 ! D70   D(11,10,18,37)          6.659          calculate D2E/DX2 analytically  !
 ! D71   D(10,11,12,9)           0.9121         calculate D2E/DX2 analytically  !
 ! D72   D(10,11,12,35)       -176.968          calculate D2E/DX2 analytically  !
 ! D73   D(36,11,12,9)         178.3738         calculate D2E/DX2 analytically  !
 ! D74   D(36,11,12,35)          0.4937         calculate D2E/DX2 analytically  !
 ! D75   D(1,13,14,15)          -6.7365         calculate D2E/DX2 analytically  !
 ! D76   D(30,13,14,15)       -178.7436         calculate D2E/DX2 analytically  !
 ! D77   D(31,13,14,15)         84.0967         calculate D2E/DX2 analytically  !
 ! D78   D(1,13,30,23)         -14.027          calculate D2E/DX2 analytically  !
 ! D79   D(1,13,30,29)         166.42           calculate D2E/DX2 analytically  !
 ! D80   D(14,13,30,23)        157.663          calculate D2E/DX2 analytically  !
 ! D81   D(14,13,30,29)        -21.89           calculate D2E/DX2 analytically  !
 ! D82   D(31,13,30,23)       -137.3115         calculate D2E/DX2 analytically  !
 ! D83   D(31,13,30,29)         43.1355         calculate D2E/DX2 analytically  !
 ! D84   D(13,14,15,6)          -2.7626         calculate D2E/DX2 analytically  !
 ! D85   D(13,14,15,32)        170.5469         calculate D2E/DX2 analytically  !
 ! D86   D(2,16,17,18)          -2.382          calculate D2E/DX2 analytically  !
 ! D87   D(2,16,17,22)         179.6473         calculate D2E/DX2 analytically  !
 ! D88   D(19,16,17,18)        177.0387         calculate D2E/DX2 analytically  !
 ! D89   D(19,16,17,22)         -0.932          calculate D2E/DX2 analytically  !
 ! D90   D(2,16,19,20)        -178.4744         calculate D2E/DX2 analytically  !
 ! D91   D(2,16,19,23)          -0.5581         calculate D2E/DX2 analytically  !
 ! D92   D(17,16,19,20)          2.1681         calculate D2E/DX2 analytically  !
 ! D93   D(17,16,19,23)       -179.9156         calculate D2E/DX2 analytically  !
 ! D94   D(16,17,18,10)          1.2411         calculate D2E/DX2 analytically  !
 ! D95   D(16,17,18,37)       -176.8152         calculate D2E/DX2 analytically  !
 ! D96   D(22,17,18,10)        179.2158         calculate D2E/DX2 analytically  !
 ! D97   D(22,17,18,37)          1.1596         calculate D2E/DX2 analytically  !
 ! D98   D(16,17,22,21)         -0.3105         calculate D2E/DX2 analytically  !
 ! D99   D(16,17,22,38)        179.8185         calculate D2E/DX2 analytically  !
 ! D100  D(18,17,22,21)       -178.3983         calculate D2E/DX2 analytically  !
 ! D101  D(18,17,22,38)          1.7306         calculate D2E/DX2 analytically  !
 ! D102  D(16,19,20,21)         -2.3175         calculate D2E/DX2 analytically  !
 ! D103  D(16,19,20,26)        176.5045         calculate D2E/DX2 analytically  !
 ! D104  D(23,19,20,21)        179.5781         calculate D2E/DX2 analytically  !
 ! D105  D(23,19,20,26)         -1.5999         calculate D2E/DX2 analytically  !
 ! D106  D(16,19,23,24)       -173.9231         calculate D2E/DX2 analytically  !
 ! D107  D(16,19,23,30)          7.0778         calculate D2E/DX2 analytically  !
 ! D108  D(20,19,23,24)          3.9125         calculate D2E/DX2 analytically  !
 ! D109  D(20,19,23,30)       -175.0866         calculate D2E/DX2 analytically  !
 ! D110  D(19,20,21,22)          1.2637         calculate D2E/DX2 analytically  !
 ! D111  D(19,20,21,39)       -179.0742         calculate D2E/DX2 analytically  !
 ! D112  D(26,20,21,22)       -177.634          calculate D2E/DX2 analytically  !
 ! D113  D(26,20,21,39)          2.0281         calculate D2E/DX2 analytically  !
 ! D114  D(19,20,26,25)         -1.5906         calculate D2E/DX2 analytically  !
 ! D115  D(19,20,26,40)        179.7555         calculate D2E/DX2 analytically  !
 ! D116  D(21,20,26,25)        177.3092         calculate D2E/DX2 analytically  !
 ! D117  D(21,20,26,40)         -1.3447         calculate D2E/DX2 analytically  !
 ! D118  D(20,21,22,17)          0.1738         calculate D2E/DX2 analytically  !
 ! D119  D(20,21,22,38)       -179.9576         calculate D2E/DX2 analytically  !
 ! D120  D(39,21,22,17)       -179.4783         calculate D2E/DX2 analytically  !
 ! D121  D(39,21,22,38)          0.3903         calculate D2E/DX2 analytically  !
 ! D122  D(19,23,24,25)         -3.4385         calculate D2E/DX2 analytically  !
 ! D123  D(19,23,24,27)        177.1316         calculate D2E/DX2 analytically  !
 ! D124  D(30,23,24,25)        175.7391         calculate D2E/DX2 analytically  !
 ! D125  D(30,23,24,27)         -3.6907         calculate D2E/DX2 analytically  !
 ! D126  D(19,23,30,13)          2.338          calculate D2E/DX2 analytically  !
 ! D127  D(19,23,30,29)       -178.1434         calculate D2E/DX2 analytically  !
 ! D128  D(24,23,30,13)       -176.6768         calculate D2E/DX2 analytically  !
 ! D129  D(24,23,30,29)          2.8418         calculate D2E/DX2 analytically  !
 ! D130  D(23,24,25,26)          0.4139         calculate D2E/DX2 analytically  !
 ! D131  D(23,24,25,41)       -179.097          calculate D2E/DX2 analytically  !
 ! D132  D(27,24,25,26)        179.8877         calculate D2E/DX2 analytically  !
 ! D133  D(27,24,25,41)          0.3768         calculate D2E/DX2 analytically  !
 ! D134  D(23,24,27,28)          1.7098         calculate D2E/DX2 analytically  !
 ! D135  D(23,24,27,42)       -178.8737         calculate D2E/DX2 analytically  !
 ! D136  D(25,24,27,28)       -177.759          calculate D2E/DX2 analytically  !
 ! D137  D(25,24,27,42)          1.6575         calculate D2E/DX2 analytically  !
 ! D138  D(24,25,26,20)          2.2168         calculate D2E/DX2 analytically  !
 ! D139  D(24,25,26,40)       -179.1622         calculate D2E/DX2 analytically  !
 ! D140  D(41,25,26,20)       -178.2865         calculate D2E/DX2 analytically  !
 ! D141  D(41,25,26,40)          0.3345         calculate D2E/DX2 analytically  !
 ! D142  D(24,27,28,29)          1.3423         calculate D2E/DX2 analytically  !
 ! D143  D(24,27,28,43)        179.9237         calculate D2E/DX2 analytically  !
 ! D144  D(42,27,28,29)       -178.0563         calculate D2E/DX2 analytically  !
 ! D145  D(42,27,28,43)          0.5252         calculate D2E/DX2 analytically  !
 ! D146  D(27,28,29,30)         -2.1779         calculate D2E/DX2 analytically  !
 ! D147  D(27,28,29,44)        175.2202         calculate D2E/DX2 analytically  !
 ! D148  D(43,28,29,30)        179.2242         calculate D2E/DX2 analytically  !
 ! D149  D(43,28,29,44)         -3.3777         calculate D2E/DX2 analytically  !
 ! D150  D(28,29,30,13)        179.5359         calculate D2E/DX2 analytically  !
 ! D151  D(28,29,30,23)         -0.0542         calculate D2E/DX2 analytically  !
 ! D152  D(44,29,30,13)          2.0543         calculate D2E/DX2 analytically  !
 ! D153  D(44,29,30,23)       -177.5358         calculate D2E/DX2 analytically  !
 --------------------------------------------------------------------------------
 Trust Radius=3.00D-01 FncErr=1.00D-07 GrdErr=1.00D-06 EigMax=2.50D+02 EigMin=1.00D-04
 Number of steps in this run=    264 maximum allowed number of steps=    264.
 Search for a saddle point of order  1.
 GradGradGradGradGradGradGradGradGradGradGradGradGradGradGradGradGradGrad

                          Input orientation:                          
 ---------------------------------------------------------------------
 Center     Atomic      Atomic             Coordinates (Angstroms)
 Number     Number       Type             X           Y           Z
 ---------------------------------------------------------------------
      1          6           0        0.698911   -0.922490   -0.193986
      2          6           0        0.547389    0.521425   -0.239516
      3          6           0        1.851344    1.045907   -0.324611
      4          6           0        2.071850   -1.207028   -0.234789
      5          6           0        2.782000   -0.001460   -0.323481
      6          6           0        2.693637   -2.406761    0.106898
      7          6           0        4.139941   -2.317669    0.214463
      8          6           0        4.820539   -1.117076    0.118259
      9          6           0        4.131739    0.138952   -0.110994
     10          6           0        2.243179    2.369882   -0.164272
     11          6           0        3.676372    2.570217   -0.066076
     12          6           0        4.572910    1.516824   -0.031316
     13          6           0       -0.199944   -1.983034   -0.018190
     14          6           0        0.375617   -3.340946    0.430730
     15          6           0        1.792657   -3.434336    0.483790
     16          6           0       -0.543100    1.365306   -0.068061
     17          6           0       -0.175579    2.783849    0.017091
     18          6           0        1.159467    3.252994   -0.017406
     19          6           0       -1.931135    0.906386    0.034108
     20          6           0       -2.884462    1.952734    0.172582
     21          6           0       -2.504164    3.333121    0.256752
     22          6           0       -1.217801    3.741510    0.185851
     23          6           0       -2.419694   -0.502592   -0.036074
     24          6           0       -3.861181   -0.662708   -0.042902
     25          6           0       -4.748761    0.444047    0.085656
     26          6           0       -4.282292    1.703921    0.212541
     27          6           0       -4.496328   -1.919290   -0.164686
     28          6           0       -3.769263   -3.074010   -0.249883
     29          6           0       -2.381901   -2.975221   -0.184093
     30          6           0       -1.692763   -1.770799   -0.080931
     31          1           0        0.150651   -2.818842   -0.827143
     32          1           0        2.188629   -4.333913    0.950754
     33          1           0        4.704672   -3.218617    0.429968
     34          1           0        5.895465   -1.117572    0.268657
     35          1           0        5.628223    1.736371    0.093119
     36          1           0        4.061098    3.580897    0.024267
     37          1           0        1.319088    4.319495    0.106351
     38          1           0       -0.961980    4.793074    0.253430
     39          1           0       -3.300681    4.059057    0.376616
     40          1           0       -4.958521    2.543770    0.323771
     41          1           0       -5.814159    0.243323    0.086722
     42          1           0       -5.580419   -1.940346   -0.178806
     43          1           0       -4.248309   -4.041665   -0.342227
     44          1           0       -1.778858   -3.874969   -0.170197
 ---------------------------------------------------------------------
                    Distance matrix (angstroms):
                    1          2          3          4          5
     1  C    0.000000
     2  C    1.452557   0.000000
     3  C    2.284678   1.408056   0.000000
     4  C    1.402707   2.304681   2.265482   0.000000
     5  C    2.281299   2.296507   1.401107   1.401989   0.000000
     6  C    2.504501   3.647006   3.580024   1.393818   2.445099
     7  C    3.735511   4.601411   4.103891   2.390053   2.738286
     8  C    4.138016   4.590479   3.700101   2.772729   2.365454
     9  C    3.594142   3.606989   2.463412   2.463763   1.373558
    10  C    3.636669   2.509613   1.390019   3.581705   2.436994
    11  C    4.591366   3.744084   2.391880   4.107376   2.734901
    12  C    4.580893   4.151986   2.777536   3.703522   2.365989
    13  C    1.401284   2.622939   3.670989   2.410425   3.593303
    14  C    2.518674   3.923856   4.689647   2.806016   4.184696
    15  C    2.822239   4.209740   4.552970   2.356948   3.662666
    16  C    2.606235   1.389496   2.429238   3.671875   3.604106
    17  C    3.813953   2.388952   2.691769   4.587099   4.076912
    18  C    4.204516   2.808103   2.333303   4.557575   3.649351
    19  C    3.211535   2.523122   3.802012   4.534613   4.813076
    20  C    4.608888   3.741132   4.847411   5.891950   6.014461
    21  C    5.345379   4.178982   4.953764   6.464864   6.276913
    22  C    5.056773   3.696726   4.116612   5.957077   5.501604
    23  C    3.150706   3.145406   4.552238   4.550790   5.233675
    24  C    4.569984   4.569061   5.969227   5.961037   6.681903
    25  C    5.623411   5.306687   6.640176   7.024918   7.555014
    26  C    5.645855   4.992842   6.192173   7.003488   7.286965
    27  C    5.290083   5.603728   7.007918   6.607056   7.528436
    28  C    4.959510   5.617895   6.969256   6.132247   7.236368
    29  C    3.702054   4.561836   5.840341   4.792178   5.960584
    30  C    2.540180   3.209006   4.533642   3.809701   4.817976
    31  H    2.073072   3.414687   4.252197   2.576787   3.887842
    32  H    3.894547   5.261627   5.539204   3.346126   4.554768
    33  H    4.659146   5.631973   5.186235   3.379370   3.822885
    34  H    5.220754   5.616624   4.624665   3.857654   3.360059
    35  H    5.608038   5.234655   3.862131   4.628057   3.360744
    36  H    5.624272   4.666487   3.380962   5.191189   3.819725
    37  H    5.287081   3.891077   3.344459   5.587977   4.582087
    38  H    5.968786   4.557211   4.721248   6.741195   6.110464
    39  H    6.413902   5.263279   6.009505   7.547818   7.346900
    40  H    6.655041   5.892556   7.002732   7.987903   8.173909
    41  H    6.622537   6.375976   7.718372   8.024713   8.609421
    42  H    6.361309   6.604092   8.010622   7.687530   8.585468
    43  H    5.850317   6.620503   7.942888   6.927562   8.108567
    44  H    3.854483   4.974385   6.116963   4.685086   5.985733
                    6          7          8          9         10
     6  C    0.000000
     7  C    1.453032   0.000000
     8  C    2.487394   1.383435   0.000000
     9  C    2.931939   2.478099   1.450727   0.000000
    10  C    4.805493   5.070925   4.345283   2.923448   0.000000
    11  C    5.076022   4.917828   3.865130   2.473950   1.450455
    12  C    4.352619   3.866679   2.649740   1.448969   2.484559
    13  C    2.927115   4.358980   5.096445   4.824408   4.993803
    14  C    2.520076   3.906917   4.980017   5.148942   6.037828
    15  C    1.417647   2.613278   3.830323   4.312013   5.857636
    16  C    4.973486   5.964478   5.913168   4.833209   2.963407
    17  C    5.931517   6.684920   6.339452   5.056172   2.460620
    18  C    5.865318   6.322126   5.702575   4.305858   1.405663
    19  C    5.689531   6.876411   7.048871   6.112974   4.427874
    20  C    7.079880   8.220726   8.294198   7.252399   5.155597
    21  C    7.745052   8.722233   8.571739   7.373816   4.862341
    22  C    7.287442   8.088255   7.750611   6.456324   3.739296
    23  C    5.458246   6.810733   7.267901   6.583196   5.478132
    24  C    6.784527   8.174539   8.695095   8.033310   6.817224
    25  C    7.969746   9.308743   9.695858   8.887915   7.256620
    26  C    8.097682   9.333124   9.530396   8.564445   6.570180
    27  C    7.211587   8.653762   9.355619   8.870332   7.988614
    28  C    6.507042   7.958843   8.817586   8.530431   8.111273
    29  C    5.115556   6.567012   7.444411   7.220175   7.068372
    30  C    4.436241   5.865728   6.549056   6.129672   5.713477
    31  H    2.740259   4.153378   5.059412   5.011035   5.633909
    32  H    2.163571   2.900859   4.238872   4.990942   6.796111
    33  H    2.192657   1.084929   2.127689   3.448791   6.135421
    34  H    3.455413   2.127213   1.085397   2.198572   5.068427
    35  H    5.077157   4.320295   2.965661   2.198380   3.453420
    36  H    6.142379   5.902158   4.759888   3.445326   2.192472
    37  H    6.865268   7.212548   6.466576   5.043331   2.174436
    38  H    8.076053   8.751787   8.269563   6.909387   4.039725
    39  H    8.821077   9.800601   9.633967   8.416998   5.820675
    40  H    9.116486  10.316373  10.443852   9.413023   7.220312
    41  H    8.911001  10.279061  10.721403   9.948411   8.337023
    42  H    8.292115   9.735627  10.437718   9.932477   8.932355
    43  H    7.145995   8.581655   9.539878   9.367830   9.125734
    44  H    4.715467   6.132318   7.158297   7.144944   7.427986
                   11         12         13         14         15
    11  C    0.000000
    12  C    1.383700   0.000000
    13  C    5.979984   5.918557   0.000000
    14  C    6.788494   6.436512   1.541663   0.000000
    15  C    6.317071   5.701677   2.515695   1.421105   0.000000
    16  C    4.388138   5.118385   3.366248   4.820959   5.366271
    17  C    3.858767   4.914859   4.767076   6.163443   6.538928
    18  C    2.608326   3.829631   5.409620   6.655471   6.735912
    19  C    5.850000   6.532956   3.368754   4.849561   5.736786
    20  C    6.594148   7.472884   4.767945   6.222363   7.140925
    21  C    6.235805   7.312106   5.800563   7.270941   8.019519
    22  C    5.038683   6.207151   5.817909   7.263617   7.787451
    23  C    6.826791   7.278363   2.668205   4.010975   5.158419
    24  C    8.201649   8.711164   3.892111   5.034654   6.318640
    25  C    8.690598   9.383927   5.156864   6.380008   7.615150
    26  C    8.010520   8.860535   5.505673   6.869818   7.961172
    27  C    9.325150   9.699265   4.299353   5.109939   6.501324
    28  C    9.344975   9.524462   3.739512   4.208862   5.621660
    29  C    8.213920   8.280773   2.402685   2.848801   4.252504
    30  C    6.904509   7.075986   1.509135   2.646763   3.903129
    31  H    6.484743   6.244014   1.214865   1.380379   2.189420
    32  H    7.135428   6.393777   3.488662   2.131530   1.088158
    33  H    5.900344   4.759679   5.077674   4.330783   2.920490
    34  H    4.316967   2.962968   6.163223   5.953014   4.716642
    35  H    2.128465   1.085067   6.914759   7.313207   6.449837
    36  H    1.085196   2.127308   7.008253   7.852381   7.387183
    37  H    2.940492   4.296659   6.484199   7.725135   7.777443
    38  H    5.153396   6.438160   6.824230   8.245173   8.679364
    39  H    7.147859   8.283888   6.802742   8.263059   9.061154
    40  H    8.643729   9.593168   6.576697   7.943195   9.018967
    41  H    9.772817  10.465512   6.040454   7.160911   8.458516
    42  H   10.297867  10.726783   5.383041   6.148787   7.552039
    43  H   10.324428  10.431077   4.553265   4.740165   6.127350
    44  H    8.444572   8.332807   2.468905   2.299577   3.657537
                   16         17         18         19         20
    16  C    0.000000
    17  C    1.467851   0.000000
    18  C    2.542571   1.415498   0.000000
    19  C    1.465499   2.570435   3.880856   0.000000
    20  C    2.425893   2.837777   4.252074   1.422270   0.000000
    21  C    2.797065   2.404464   3.674748   2.503393   1.434287
    22  C    2.483151   1.425420   2.435439   2.927422   2.444924
    23  C    2.647956   3.979896   5.187983   1.492928   2.507623
    24  C    3.888848   5.046386   6.367125   2.488587   2.800170
    25  C    4.308124   5.137448   6.542779   2.855771   2.399855
    26  C    3.764964   4.250828   5.662618   2.489144   1.420364
    27  C    5.140615   6.389165   7.665653   3.821541   4.207663
    28  C    5.490784   6.877525   8.023553   4.393509   5.121475
    29  C    4.715382   6.170512   7.166571   3.913780   4.966339
    30  C    3.340216   4.801695   5.777348   2.690237   3.917794
    31  H    4.308665   5.675324   6.208106   4.353494   5.742761
    32  H    6.401674   7.558025   7.717361   6.728553   8.115648
    33  H    6.985663   7.747058   7.392589   7.823445   9.187169
    34  H    6.908920   7.220938   6.450842   8.087465   9.301781
    35  H    6.184569   5.898060   4.720396   7.605015   8.515805
    36  H    5.110382   4.311006   2.920397   6.562009   7.135385
    37  H    3.496483   2.144809   1.085458   4.713648   4.824498
    38  H    3.468200   2.170545   2.635476   4.011696   3.430744
    39  H    3.880501   3.394359   4.549496   3.454316   2.156725
    40  H    4.586747   4.798773   6.168402   3.453983   2.161921
    41  H    5.391370   6.184877   7.596079   3.939581   3.393020
    42  H    6.026125   7.181134   8.510164   4.633194   4.748445
    43  H    6.560417   7.956374   9.086341   5.476690   6.169111
    44  H    5.384980   6.851674   7.711352   4.788140   5.941547
                   21         22         23         24         25
    21  C    0.000000
    22  C    1.351495   0.000000
    23  C    3.847802   4.416582   0.000000
    24  C    4.230595   5.141685   1.450368   0.000000
    25  C    3.662545   4.832285   2.517041   1.424511   0.000000
    26  C    2.412050   3.680161   2.898237   2.417337   1.349435
    27  C    5.633307   6.551051   2.517138   1.413238   2.389928
    28  C    6.550457   7.290483   2.911914   2.421914   3.667251
    29  C    6.324909   6.826893   2.477344   2.748803   4.167275
    30  C    5.179035   5.539162   1.462460   2.435436   3.777885
    31  H    6.787453   6.777687   3.549293   4.621552   5.956835
    32  H    9.015950   8.797801   6.073672   7.145999   8.467861
    33  H    9.742823   9.142136   7.638755   8.951543  10.144016
    34  H    9.505923   8.614876   8.343436   9.772211  10.759725
    35  H    8.289276   7.134229   8.354556   9.788916  10.457148
    36  H    6.574048   5.283813   7.660234   8.987502   9.351856
    37  H    3.951305   2.603112   6.103384   7.188867   7.199883
    38  H    2.123630   1.084342   5.500256   6.185365   5.769046
    39  H    1.084338   2.115565   4.664235   4.773387   3.905111
    40  H    2.579038   3.930215   3.981891   3.408828   2.123567
    41  H    4.531206   5.776993   3.477623   2.156807   1.084142
    42  H    6.120663   7.172789   3.475297   2.146301   2.539080
    43  H    7.601861   8.369030   3.995322   3.414208   4.533779
    44  H    7.257060   7.645411   3.435344   3.830260   5.247827
                   26         27         28         29         30
    26  C    0.000000
    27  C    3.649078   0.000000
    28  C    4.827594   1.367209   0.000000
    29  C    5.065883   2.363508   1.392430   0.000000
    30  C    4.343439   2.808744   2.457388   1.391469   0.000000
    31  H    6.417734   4.779378   3.970399   2.617592   2.247977
    32  H    8.881059   7.194669   6.206880   4.901394   4.764361
    33  H   10.249106   9.311298   8.502393   7.117291   6.579086
    34  H   10.561757  10.431678   9.874386   8.495330   7.624311
    35  H    9.911288  10.767398  10.562678   9.297206   8.119567
    36  H    8.553984  10.174345  10.279956   9.194473   7.858666
    37  H    6.182876   8.533168   8.982323   8.185020   6.796911
    38  H    4.535307   7.597517   8.368104   7.909109   6.612887
    39  H    2.556784   6.120720   7.175842   7.116152   6.064814
    40  H    1.083976   4.513437   5.770864   6.111968   5.426275
    41  H    2.120329   2.544952   3.911470   4.713042   4.590283
    42  H    3.888312   1.084387   2.137880   3.361772   3.892582
    43  H    5.772407   2.144180   1.083683   2.155409   3.428691
    44  H    6.126800   3.348037   2.146997   1.083236   2.107822
                   31         32         33         34         35
    31  H    0.000000
    32  H    3.099954   0.000000
    33  H    4.741229   2.800995   0.000000
    34  H    6.090812   4.954870   2.420413   0.000000
    35  H    7.183359   7.029558   5.051566   2.871798   0.000000
    36  H    7.548056   8.185886   6.841942   5.049776   2.421342
    37  H    7.293320   8.737882   8.269827   7.108535   5.024077
    38  H    7.768324   9.680624   9.814749   9.053205   7.266355
    39  H    7.788852  10.045103  10.819106  10.553589   9.230415
    40  H    7.495722   9.938681  11.251386  11.455020  10.619993
    41  H    6.766902   9.259711  11.079199  11.789844  11.539382
    42  H    5.834146   8.207507  10.382085  11.514039  11.799400
    43  H    4.591436   6.572015   9.023833  10.574481  11.450813
    44  H    2.295645   4.148266   6.544246   8.166460   9.296307
                   36         37         38         39         40
    36  H    0.000000
    37  H    2.840930   0.000000
    38  H    5.172350   2.334348   0.000000
    39  H    7.385701   4.634990   2.454278   0.000000
    40  H    9.083989   6.527545   4.586573   2.246624   0.000000
    41  H   10.424203   8.215764   6.653696   4.578366   2.465840
    42  H   11.112345   9.320414   8.176537   6.441936   4.554848
    43  H   11.282022  10.055154   9.444966   8.187578   6.657019
    44  H    9.472742   8.764872   8.716749   8.097143   7.180144
                   41         42         43         44
    41  H    0.000000
    42  H    2.212137   0.000000
    43  H    4.582249   2.493344   0.000000
    44  H    5.771481   4.265525   2.481042   0.000000
 Stoichiometry    C30H14
 Framework group  C1[X(C30H14)]
 Deg. of freedom   126
 Full point group                 C1      NOp   1
 Largest Abelian subgroup         C1      NOp   1
 Largest concise Abelian subgroup C1      NOp   1
                         Standard orientation:                         
 ---------------------------------------------------------------------
 Center     Atomic      Atomic             Coordinates (Angstroms)
 Number     Number       Type             X           Y           Z
 ---------------------------------------------------------------------
      1          6           0        0.698911   -0.922490   -0.193986
      2          6           0        0.547389    0.521425   -0.239516
      3          6           0        1.851344    1.045907   -0.324611
      4          6           0        2.071850   -1.207028   -0.234789
      5          6           0        2.782000   -0.001460   -0.323481
      6          6           0        2.693637   -2.406761    0.106898
      7          6           0        4.139941   -2.317669    0.214463
      8          6           0        4.820539   -1.117076    0.118259
      9          6           0        4.131739    0.138952   -0.110994
     10          6           0        2.243179    2.369882   -0.164272
     11          6           0        3.676372    2.570217   -0.066076
     12          6           0        4.572910    1.516824   -0.031316
     13          6           0       -0.199944   -1.983034   -0.018190
     14          6           0        0.375617   -3.340946    0.430730
     15          6           0        1.792657   -3.434336    0.483790
     16          6           0       -0.543100    1.365306   -0.068061
     17          6           0       -0.175579    2.783849    0.017091
     18          6           0        1.159467    3.252994   -0.017406
     19          6           0       -1.931135    0.906386    0.034108
     20          6           0       -2.884462    1.952734    0.172582
     21          6           0       -2.504164    3.333121    0.256752
     22          6           0       -1.217801    3.741510    0.185851
     23          6           0       -2.419694   -0.502592   -0.036074
     24          6           0       -3.861181   -0.662708   -0.042902
     25          6           0       -4.748761    0.444047    0.085656
     26          6           0       -4.282292    1.703921    0.212541
     27          6           0       -4.496328   -1.919290   -0.164686
     28          6           0       -3.769263   -3.074010   -0.249883
     29          6           0       -2.381901   -2.975221   -0.184093
     30          6           0       -1.692763   -1.770799   -0.080931
     31          1           0        0.150651   -2.818842   -0.827143
     32          1           0        2.188629   -4.333913    0.950754
     33          1           0        4.704672   -3.218617    0.429968
     34          1           0        5.895465   -1.117572    0.268657
     35          1           0        5.628223    1.736371    0.093119
     36          1           0        4.061098    3.580897    0.024267
     37          1           0        1.319088    4.319495    0.106351
     38          1           0       -0.961980    4.793074    0.253430
     39          1           0       -3.300681    4.059057    0.376616
     40          1           0       -4.958521    2.543770    0.323771
     41          1           0       -5.814159    0.243323    0.086722
     42          1           0       -5.580419   -1.940346   -0.178806
     43          1           0       -4.248309   -4.041665   -0.342227
     44          1           0       -1.778858   -3.874969   -0.170197
 ---------------------------------------------------------------------
 Rotational constants (GHZ):           0.2794386           0.1554194           0.1005469
 Standard basis: 6-311+G(d,p) (5D, 7F)
 There are   774 symmetry adapted cartesian basis functions of A   symmetry.
 There are   744 symmetry adapted basis functions of A   symmetry.
   744 basis functions,  1192 primitive gaussians,   774 cartesian basis functions
    97 alpha electrons       97 beta electrons
       nuclear repulsion energy      2573.0023486799 Hartrees.
 NAtoms=   44 NActive=   44 NUniq=   44 SFac= 1.00D+00 NAtFMM=   60 NAOKFM=F Big=F
 Integral buffers will be    131072 words long.
 Raffenetti 2 integral format.
 Two-electron integral symmetry is turned on.
 One-electron integrals computed using PRISM.
 NBasis=   744 RedAO= T EigKep=  1.17D-06  NBF=   744
 NBsUse=   721 1.00D-06 EigRej=  9.15D-07 NBFU=   721
 ExpMin= 4.38D-02 ExpMax= 4.56D+03 ExpMxC= 6.82D+02 IAcc=2 IRadAn=         4 AccDes= 0.00D+00
 Harris functional with IExCor=  402 and IRadAn=       4 diagonalized for initial guess.
 HarFok:  IExCor=  402 AccDes= 0.00D+00 IRadAn=         4 IDoV= 1 UseB2=F ITyADJ=14
 ICtDFT=  3500011 ScaDFX=  1.000000  1.000000  1.000000  1.000000
 FoFCou: FMM=F IPFlag=           0 FMFlag=      100000 FMFlg1=           0
         NFxFlg=           0 DoJE=T BraDBF=F KetDBF=T FulRan=T
         wScrn=  0.000000 ICntrl=       500 IOpCl=  0 I1Cent=   200000004 NGrid=           0
         NMat0=    1 NMatS0=      1 NMatT0=    0 NMatD0=    1 NMtDS0=    0 NMtDT0=    0
 Petite list used in FoFCou.
 Requested convergence on RMS density matrix=1.00D-08 within 128 cycles.
 Requested convergence on MAX density matrix=1.00D-06.
 Requested convergence on             energy=1.00D-06.
 No special actions if energy rises.
 SCF Done:  E(RB3LYP) =  -1151.77009223     A.U. after   17 cycles
            NFock= 17  Conv=0.98D-08     -V/T= 2.0044
 DoSCS=F DFT=T ScalE2(SS,OS)=  1.000000  1.000000
 Range of M.O.s used for correlation:     1   721
 NBasis=   744 NAE=    97 NBE=    97 NFC=     0 NFV=     0
 NROrb=    721 NOA=    97 NOB=    97 NVA=   624 NVB=   624

 **** Warning!!: The largest alpha MO coefficient is  0.12060785D+03


 **** Warning!!: The smallest alpha delta epsilon is  0.85914204D-01

 Symmetrizing basis deriv contribution to polar:
 IMax=3 JMax=2 DiffMx= 0.00D+00
 G2DrvN: will do    45 centers at a time, making    1 passes.
 Calling FoFCou, ICntrl=  3107 FMM=F I1Cent=   0 AccDes= 0.00D+00.
 End of G2Drv F.D. properties file   721 does not exist.
 End of G2Drv F.D. properties file   722 does not exist.
 End of G2Drv F.D. properties file   788 does not exist.
          IDoAtm=11111111111111111111111111111111111111111111
          Differentiating once with respect to nuclear coordinates.
 CalDSu exits because no D1Ps are significant.
          There are   135 degrees of freedom in the 1st order CPHF.  IDoFFX=6 NUNeed=     0.
    129 vectors produced by pass  0 Test12= 6.05D-14 1.00D-09 XBig12= 2.90D-01 1.35D-01.
 AX will form   129 AO Fock derivatives at one time.
    129 vectors produced by pass  1 Test12= 6.05D-14 1.00D-09 XBig12= 8.37D-02 6.07D-02.
    129 vectors produced by pass  2 Test12= 6.05D-14 1.00D-09 XBig12= 1.12D-03 6.02D-03.
    129 vectors produced by pass  3 Test12= 6.05D-14 1.00D-09 XBig12= 8.58D-06 2.24D-04.
    129 vectors produced by pass  4 Test12= 6.05D-14 1.00D-09 XBig12= 2.99D-08 1.26D-05.
    129 vectors produced by pass  5 Test12= 6.05D-14 1.00D-09 XBig12= 1.14D-10 1.03D-06.
    110 vectors produced by pass  6 Test12= 6.05D-14 1.00D-09 XBig12= 1.31D-11 3.31D-07.
     80 vectors produced by pass  7 Test12= 6.05D-14 1.00D-09 XBig12= 2.23D-12 9.61D-08.
     41 vectors produced by pass  8 Test12= 6.05D-14 1.00D-09 XBig12= 1.05D-13 2.74D-08.
      2 vectors produced by pass  9 Test12= 6.05D-14 1.00D-09 XBig12= 9.95D-16 1.91D-09.
      2 vectors produced by pass 10 Test12= 6.05D-14 1.00D-09 XBig12= 4.08D-16 1.15D-09.
      1 vectors produced by pass 11 Test12= 6.05D-14 1.00D-09 XBig12= 5.53D-16 1.47D-09.
 InvSVY:  IOpt=1 It=  1 EMax= 7.22D-16
 Solved reduced A of dimension  1010 with   135 vectors.
 End of Minotr F.D. properties file   721 does not exist.
 End of Minotr F.D. properties file   722 does not exist.
 End of Minotr F.D. properties file   788 does not exist.

 **********************************************************************

            Population analysis using the SCF Density.

 **********************************************************************

 Orbital symmetries:
       Occupied  (A) (A) (A) (A) (A) (A) (A) (A) (A) (A) (A) (A)
                 (A) (A) (A) (A) (A) (A) (A) (A) (A) (A) (A) (A)
                 (A) (A) (A) (A) (A) (A) (A) (A) (A) (A) (A) (A)
                 (A) (A) (A) (A) (A) (A) (A) (A) (A) (A) (A) (A)
                 (A) (A) (A) (A) (A) (A) (A) (A) (A) (A) (A) (A)
                 (A) (A) (A) (A) (A) (A) (A) (A) (A) (A) (A) (A)
                 (A) (A) (A) (A) (A) (A) (A) (A) (A) (A) (A) (A)
                 (A) (A) (A) (A) (A) (A) (A) (A) (A) (A) (A) (A)
                 (A)
       Virtual   (A) (A) (A) (A) (A) (A) (A) (A) (A) (A) (A) (A)
                 (A) (A) (A) (A) (A) (A) (A) (A) (A) (A) (A) (A)
                 (A) (A) (A) (A) (A) (A) (A) (A) (A) (A) (A) (A)
                 (A) (A) (A) (A) (A) (A) (A) (A) (A) (A) (A) (A)
                 (A) (A) (A) (A) (A) (A) (A) (A) (A) (A) (A) (A)
                 (A) (A) (A) (A) (A) (A) (A) (A) (A) (A) (A) (A)
                 (A) (A) (A) (A) (A) (A) (A) (A) (A) (A) (A) (A)
                 (A) (A) (A) (A) (A) (A) (A) (A) (A) (A) (A) (A)
                 (A) (A) (A) (A) (A) (A) (A) (A) (A) (A) (A) (A)
                 (A) (A) (A) (A) (A) (A) (A) (A) (A) (A) (A) (A)
                 (A) (A) (A) (A) (A) (A) (A) (A) (A) (A) (A) (A)
                 (A) (A) (A) (A) (A) (A) (A) (A) (A) (A) (A) (A)
                 (A) (A) (A) (A) (A) (A) (A) (A) (A) (A) (A) (A)
                 (A) (A) (A) (A) (A) (A) (A) (A) (A) (A) (A) (A)
                 (A) (A) (A) (A) (A) (A) (A) (A) (A) (A) (A) (A)
                 (A) (A) (A) (A) (A) (A) (A) (A) (A) (A) (A) (A)
                 (A) (A) (A) (A) (A) (A) (A) (A) (A) (A) (A) (A)
                 (A) (A) (A) (A) (A) (A) (A) (A) (A) (A) (A) (A)
                 (A) (A) (A) (A) (A) (A) (A) (A) (A) (A) (A) (A)
                 (A) (A) (A) (A) (A) (A) (A) (A) (A) (A) (A) (A)
                 (A) (A) (A) (A) (A) (A) (A) (A) (A) (A) (A) (A)
                 (A) (A) (A) (A) (A) (A) (A) (A) (A) (A) (A) (A)
                 (A) (A) (A) (A) (A) (A) (A) (A) (A) (A) (A) (A)
                 (A) (A) (A) (A) (A) (A) (A) (A) (A) (A) (A) (A)
                 (A) (A) (A) (A) (A) (A) (A) (A) (A) (A) (A) (A)
                 (A) (A) (A) (A) (A) (A) (A) (A) (A) (A) (A) (A)
                 (A) (A) (A) (A) (A) (A) (A) (A) (A) (A) (A) (A)
                 (A) (A) (A) (A) (A) (A) (A) (A) (A) (A) (A) (A)
                 (A) (A) (A) (A) (A) (A) (A) (A) (A) (A) (A) (A)
                 (A) (A) (A) (A) (A) (A) (A) (A) (A) (A) (A) (A)
                 (A) (A) (A) (A) (A) (A) (A) (A) (A) (A) (A) (A)
                 (A) (A) (A) (A) (A) (A) (A) (A) (A) (A) (A) (A)
                 (A) (A) (A) (A) (A) (A) (A) (A) (A) (A) (A) (A)
                 (A) (A) (A) (A) (A) (A) (A) (A) (A) (A) (A) (A)
                 (A) (A) (A) (A) (A) (A) (A) (A) (A) (A) (A) (A)
                 (A) (A) (A) (A) (A) (A) (A) (A) (A) (A) (A) (A)
                 (A) (A) (A) (A) (A) (A) (A) (A) (A) (A) (A) (A)
                 (A) (A) (A) (A) (A) (A) (A) (A) (A) (A) (A) (A)
                 (A) (A) (A) (A) (A) (A) (A) (A) (A) (A) (A) (A)
                 (A) (A) (A) (A) (A) (A) (A) (A) (A) (A) (A) (A)
                 (A) (A) (A) (A) (A) (A) (A) (A) (A) (A) (A) (A)
                 (A) (A) (A) (A) (A) (A) (A) (A) (A) (A) (A) (A)
                 (A) (A) (A) (A) (A) (A) (A) (A) (A) (A) (A) (A)
                 (A) (A) (A) (A) (A) (A) (A) (A) (A) (A) (A) (A)
                 (A) (A) (A) (A) (A) (A) (A) (A) (A) (A) (A) (A)
                 (A) (A) (A) (A) (A) (A) (A) (A) (A) (A) (A) (A)
                 (A) (A) (A) (A) (A) (A) (A) (A) (A) (A) (A) (A)
                 (A) (A) (A) (A) (A) (A) (A) (A) (A) (A) (A) (A)
                 (A) (A) (A) (A) (A) (A) (A) (A) (A) (A) (A) (A)
                 (A) (A) (A) (A) (A) (A) (A) (A) (A) (A) (A) (A)
                 (A) (A) (A) (A) (A) (A) (A) (A) (A) (A) (A) (A)
                 (A) (A) (A) (A) (A) (A) (A) (A) (A) (A) (A) (A)
 The electronic state is 1-A.
 Alpha  occ. eigenvalues --  -10.23245 -10.21980 -10.21455 -10.21373 -10.20730
 Alpha  occ. eigenvalues --  -10.20544 -10.20499 -10.20435 -10.20300 -10.20135
 Alpha  occ. eigenvalues --  -10.20065 -10.20046 -10.20006 -10.19950 -10.19904
 Alpha  occ. eigenvalues --  -10.19856 -10.19686 -10.19230 -10.19153 -10.18664
 Alpha  occ. eigenvalues --  -10.18514 -10.18437 -10.18182 -10.18144 -10.17972
 Alpha  occ. eigenvalues --  -10.17797 -10.17780 -10.17626 -10.17330 -10.17170
 Alpha  occ. eigenvalues --   -0.93464  -0.89593  -0.88703  -0.86458  -0.85491
 Alpha  occ. eigenvalues --   -0.83387  -0.81970  -0.80798  -0.79362  -0.76842
 Alpha  occ. eigenvalues --   -0.76263  -0.75248  -0.73312  -0.72339  -0.71664
 Alpha  occ. eigenvalues --   -0.67782  -0.66032  -0.64305  -0.63619  -0.62263
 Alpha  occ. eigenvalues --   -0.61381  -0.60575  -0.59042  -0.57459  -0.55340
 Alpha  occ. eigenvalues --   -0.53456  -0.52108  -0.51783  -0.51026  -0.50637
 Alpha  occ. eigenvalues --   -0.50026  -0.47808  -0.47471  -0.46236  -0.45752
 Alpha  occ. eigenvalues --   -0.45370  -0.45002  -0.44524  -0.43982  -0.43634
 Alpha  occ. eigenvalues --   -0.43044  -0.41640  -0.41576  -0.41362  -0.40782
 Alpha  occ. eigenvalues --   -0.40637  -0.39326  -0.39057  -0.37852  -0.37185
 Alpha  occ. eigenvalues --   -0.36500  -0.36282  -0.36040  -0.34944  -0.34253
 Alpha  occ. eigenvalues --   -0.34149  -0.33243  -0.32773  -0.31572  -0.29861
 Alpha  occ. eigenvalues --   -0.27526  -0.26248  -0.25738  -0.23965  -0.22379
 Alpha  occ. eigenvalues --   -0.21010  -0.19761
 Alpha virt. eigenvalues --   -0.11170  -0.07634  -0.05655  -0.04063  -0.03777
 Alpha virt. eigenvalues --   -0.01207  -0.00268  -0.00071   0.00251   0.00756
 Alpha virt. eigenvalues --    0.01312   0.01432   0.01602   0.02245   0.02950
 Alpha virt. eigenvalues --    0.02989   0.03421   0.03749   0.04189   0.04493
 Alpha virt. eigenvalues --    0.04729   0.04897   0.05185   0.05290   0.05945
 Alpha virt. eigenvalues --    0.06925   0.07083   0.07277   0.07308   0.07873
 Alpha virt. eigenvalues --    0.08145   0.08506   0.08804   0.08992   0.09564
 Alpha virt. eigenvalues --    0.09721   0.10181   0.10586   0.10995   0.11258
 Alpha virt. eigenvalues --    0.11775   0.11943   0.12107   0.12224   0.12540
 Alpha virt. eigenvalues --    0.12877   0.13126   0.13782   0.14399   0.14849
 Alpha virt. eigenvalues --    0.14980   0.15207   0.15352   0.15684   0.15822
 Alpha virt. eigenvalues --    0.16158   0.16281   0.16506   0.16698   0.16814
 Alpha virt. eigenvalues --    0.16955   0.17186   0.17375   0.17711   0.18008
 Alpha virt. eigenvalues --    0.18075   0.18256   0.18649   0.18692   0.19014
 Alpha virt. eigenvalues --    0.19517   0.19577   0.19667   0.19892   0.20049
 Alpha virt. eigenvalues --    0.20317   0.20439   0.20810   0.20984   0.21356
 Alpha virt. eigenvalues --    0.21607   0.21690   0.22015   0.22017   0.22378
 Alpha virt. eigenvalues --    0.22662   0.22919   0.23137   0.23324   0.23472
 Alpha virt. eigenvalues --    0.23926   0.23991   0.24117   0.24682   0.24820
 Alpha virt. eigenvalues --    0.25168   0.25347   0.25436   0.25674   0.26000
 Alpha virt. eigenvalues --    0.26112   0.26580   0.26668   0.27163   0.27321
 Alpha virt. eigenvalues --    0.27599   0.27764   0.27957   0.28480   0.28541
 Alpha virt. eigenvalues --    0.28975   0.29264   0.29769   0.29942   0.30388
 Alpha virt. eigenvalues --    0.30438   0.30902   0.31005   0.31331   0.31555
 Alpha virt. eigenvalues --    0.32044   0.32510   0.32724   0.32956   0.33390
 Alpha virt. eigenvalues --    0.33577   0.33730   0.34217   0.34521   0.35324
 Alpha virt. eigenvalues --    0.35361   0.35801   0.36391   0.37297   0.37363
 Alpha virt. eigenvalues --    0.38027   0.38313   0.38676   0.39002   0.39522
 Alpha virt. eigenvalues --    0.39679   0.40203   0.40970   0.41392   0.41889
 Alpha virt. eigenvalues --    0.42591   0.43057   0.43727   0.43858   0.45048
 Alpha virt. eigenvalues --    0.46321   0.46520   0.46915   0.47297   0.47326
 Alpha virt. eigenvalues --    0.48461   0.49393   0.50156   0.50737   0.50843
 Alpha virt. eigenvalues --    0.51399   0.52034   0.52580   0.52828   0.52970
 Alpha virt. eigenvalues --    0.53837   0.54171   0.54429   0.54544   0.55022
 Alpha virt. eigenvalues --    0.55856   0.56026   0.56141   0.56429   0.56893
 Alpha virt. eigenvalues --    0.57066   0.57731   0.57970   0.58345   0.58635
 Alpha virt. eigenvalues --    0.58859   0.59533   0.59684   0.60026   0.60277
 Alpha virt. eigenvalues --    0.60709   0.60933   0.61380   0.61766   0.62179
 Alpha virt. eigenvalues --    0.63050   0.63371   0.64251   0.64555   0.64895
 Alpha virt. eigenvalues --    0.65075   0.65709   0.66277   0.66569   0.66912
 Alpha virt. eigenvalues --    0.66931   0.67560   0.67978   0.68260   0.68854
 Alpha virt. eigenvalues --    0.69186   0.70042   0.70270   0.70635   0.70894
 Alpha virt. eigenvalues --    0.71243   0.71677   0.72152   0.72507   0.72611
 Alpha virt. eigenvalues --    0.72760   0.73080   0.73353   0.73750   0.73825
 Alpha virt. eigenvalues --    0.74248   0.74737   0.75058   0.75473   0.76199
 Alpha virt. eigenvalues --    0.76343   0.76443   0.77015   0.77706   0.78808
 Alpha virt. eigenvalues --    0.79989   0.80438   0.81423   0.83067   0.83378
 Alpha virt. eigenvalues --    0.83776   0.84517   0.84969   0.85734   0.86439
 Alpha virt. eigenvalues --    0.86864   0.87192   0.87823   0.88656   0.89186
 Alpha virt. eigenvalues --    0.89671   0.89747   0.89891   0.91086   0.91112
 Alpha virt. eigenvalues --    0.91672   0.91919   0.92191   0.92566   0.92892
 Alpha virt. eigenvalues --    0.93370   0.93465   0.93597   0.93973   0.94246
 Alpha virt. eigenvalues --    0.94729   0.95168   0.96024   0.96236   0.96917
 Alpha virt. eigenvalues --    0.97100   0.97256   0.97806   0.98194   0.98734
 Alpha virt. eigenvalues --    0.99511   0.99827   1.00245   1.01044   1.01328
 Alpha virt. eigenvalues --    1.01721   1.02348   1.03133   1.03624   1.04506
 Alpha virt. eigenvalues --    1.04659   1.04881   1.05562   1.05881   1.06791
 Alpha virt. eigenvalues --    1.08514   1.08730   1.09442   1.09882   1.10451
 Alpha virt. eigenvalues --    1.11409   1.12514   1.13175   1.13728   1.14003
 Alpha virt. eigenvalues --    1.15491   1.15993   1.17084   1.18214   1.18997
 Alpha virt. eigenvalues --    1.19815   1.20620   1.22179   1.23003   1.23730
 Alpha virt. eigenvalues --    1.25942   1.26924   1.28911   1.30966   1.31369
 Alpha virt. eigenvalues --    1.33288   1.34527   1.35686   1.36491   1.37162
 Alpha virt. eigenvalues --    1.37572   1.38485   1.39385   1.41108   1.41426
 Alpha virt. eigenvalues --    1.42982   1.43309   1.44195   1.44607   1.45540
 Alpha virt. eigenvalues --    1.46128   1.47259   1.47448   1.48152   1.48748
 Alpha virt. eigenvalues --    1.49637   1.49814   1.50432   1.50801   1.51936
 Alpha virt. eigenvalues --    1.52586   1.52681   1.53377   1.54426   1.54517
 Alpha virt. eigenvalues --    1.54923   1.56114   1.56703   1.57125   1.57941
 Alpha virt. eigenvalues --    1.58797   1.58928   1.59509   1.60332   1.60996
 Alpha virt. eigenvalues --    1.62283   1.62589   1.63984   1.64529   1.65350
 Alpha virt. eigenvalues --    1.65939   1.67108   1.67908   1.68896   1.69843
 Alpha virt. eigenvalues --    1.71087   1.71327   1.71694   1.72469   1.72797
 Alpha virt. eigenvalues --    1.73117   1.73495   1.74650   1.74869   1.75483
 Alpha virt. eigenvalues --    1.75982   1.77257   1.78276   1.79444   1.79894
 Alpha virt. eigenvalues --    1.80958   1.82402   1.82596   1.83194   1.83503
 Alpha virt. eigenvalues --    1.84567   1.84661   1.85018   1.85430   1.86103
 Alpha virt. eigenvalues --    1.86709   1.87770   1.88048   1.88530   1.88760
 Alpha virt. eigenvalues --    1.90066   1.90315   1.90886   1.91397   1.91916
 Alpha virt. eigenvalues --    1.93001   1.93963   1.94283   1.94645   1.95459
 Alpha virt. eigenvalues --    1.96052   1.96747   1.97355   1.98318   1.98864
 Alpha virt. eigenvalues --    1.99670   1.99907   2.00162   2.01904   2.02428
 Alpha virt. eigenvalues --    2.03497   2.03807   2.04256   2.05331   2.06832
 Alpha virt. eigenvalues --    2.07611   2.08221   2.09404   2.10176   2.10824
 Alpha virt. eigenvalues --    2.10990   2.11650   2.12638   2.13168   2.15025
 Alpha virt. eigenvalues --    2.15352   2.16042   2.17620   2.17887   2.20222
 Alpha virt. eigenvalues --    2.20427   2.21447   2.22063   2.22637   2.24029
 Alpha virt. eigenvalues --    2.25068   2.26356   2.27182   2.28875   2.29139
 Alpha virt. eigenvalues --    2.30611   2.31776   2.32453   2.34497   2.35668
 Alpha virt. eigenvalues --    2.36574   2.36946   2.37627   2.38764   2.40991
 Alpha virt. eigenvalues --    2.41792   2.41893   2.43118   2.45039   2.45900
 Alpha virt. eigenvalues --    2.47678   2.48442   2.48681   2.51834   2.52550
 Alpha virt. eigenvalues --    2.54686   2.54797   2.55827   2.56683   2.57311
 Alpha virt. eigenvalues --    2.58031   2.61140   2.61400   2.63656   2.65998
 Alpha virt. eigenvalues --    2.66719   2.67524   2.68232   2.69159   2.69834
 Alpha virt. eigenvalues --    2.70530   2.70785   2.71022   2.71379   2.71891
 Alpha virt. eigenvalues --    2.72298   2.72776   2.73609   2.73870   2.74394
 Alpha virt. eigenvalues --    2.75523   2.76274   2.76604   2.77122   2.77320
 Alpha virt. eigenvalues --    2.77369   2.78302   2.78808   2.79323   2.80512
 Alpha virt. eigenvalues --    2.81016   2.82634   2.83183   2.83743   2.84695
 Alpha virt. eigenvalues --    2.85187   2.85510   2.86188   2.86519   2.87169
 Alpha virt. eigenvalues --    2.88191   2.88472   2.89896   2.90516   2.92032
 Alpha virt. eigenvalues --    2.93034   2.93612   2.94690   2.95941   2.98358
 Alpha virt. eigenvalues --    2.99805   3.00656   3.02339   3.03284   3.04767
 Alpha virt. eigenvalues --    3.06415   3.07790   3.09703   3.11596   3.11849
 Alpha virt. eigenvalues --    3.13958   3.15794   3.17969   3.18265   3.19307
 Alpha virt. eigenvalues --    3.20363   3.21378   3.23048   3.24520   3.24875
 Alpha virt. eigenvalues --    3.26249   3.26936   3.28612   3.30383   3.32781
 Alpha virt. eigenvalues --    3.33104   3.35689   3.36619   3.37420   3.38367
 Alpha virt. eigenvalues --    3.40893   3.41160   3.42286   3.42819   3.43790
 Alpha virt. eigenvalues --    3.46573   3.47387   3.47933   3.49649   3.52209
 Alpha virt. eigenvalues --    3.52447   3.54144   3.57148   3.57482   3.60918
 Alpha virt. eigenvalues --    3.61623   3.61916   3.63264   3.67503   3.68363
 Alpha virt. eigenvalues --    3.72122   3.78875   3.82260   3.83632   3.86897
 Alpha virt. eigenvalues --    3.93680   3.97326   4.04598   4.04728   4.06264
 Alpha virt. eigenvalues --    4.07734   4.10015   4.12279   4.14546   4.20046
 Alpha virt. eigenvalues --    4.23464   4.29225   4.33045   4.45928   4.55435
 Alpha virt. eigenvalues --    4.68909   4.73160   4.76950   4.78024   4.79699
 Alpha virt. eigenvalues --    4.80451   4.82390   4.86762   4.88737  23.37179
 Alpha virt. eigenvalues --   23.58845  23.65295  23.73372  23.77524  23.79123
 Alpha virt. eigenvalues --   23.82504  23.84903  23.87153  23.88017  23.90257
 Alpha virt. eigenvalues --   23.92177  23.93740  23.96449  23.98710  23.99292
 Alpha virt. eigenvalues --   24.00332  24.01297  24.04307  24.06104  24.09214
 Alpha virt. eigenvalues --   24.10094  24.10287  24.10698  24.11264  24.15513
 Alpha virt. eigenvalues --   24.19546  24.21585  24.23161  24.24039
          Condensed to atoms (all electrons):
               1          2          3          4          5          6
     1  C    9.885207  -0.117443   0.441545  -0.962683  -0.103708  -0.103602
     2  C   -0.117443   8.568789  -0.178370  -0.732065  -0.741027  -0.348281
     3  C    0.441545  -0.178370   8.752142  -0.789080   0.409264  -0.650261
     4  C   -0.962683  -0.732065  -0.789080  10.166200   0.725346   1.971884
     5  C   -0.103708  -0.741027   0.409264   0.725346   8.875816   0.221795
     6  C   -0.103602  -0.348281  -0.650261   1.971884   0.221795  14.017610
     7  C   -0.648495  -0.098364  -0.285665  -1.383537   0.563931  -2.350422
     8  C   -1.014698  -0.307704  -2.172772   2.358305  -0.683347  -0.217595
     9  C   -0.184509  -0.391229  -0.520415   0.071604   0.917885  -0.321049
    10  C   -0.754116   0.695042   0.744141   0.215064  -0.436549  -0.082102
    11  C   -0.163853  -1.039575   0.231609  -0.369283   1.170725  -0.035074
    12  C    0.617317  -0.028559   1.866665  -1.482732  -0.433174  -0.229417
    13  C   -1.041550   1.309211  -0.392575  -0.828119   0.268487   0.096448
    14  C   -0.084469  -0.970961  -0.273247   1.072153  -0.092380  -0.010911
    15  C    0.235727   0.566656   0.624884  -2.689521  -1.921929  -5.297299
    16  C    0.685476   0.378998   0.040859  -0.351611  -0.429662  -0.350721
    17  C   -0.493322   0.774687   0.026149  -0.165115  -0.720479   0.096549
    18  C    0.046615   0.429612   0.487967  -0.155939  -0.559393  -0.024729
    19  C    0.496458   0.168327  -0.374079  -0.147539  -0.343816   0.090331
    20  C   -0.804636   0.058355  -0.076931   0.244866  -0.072490  -0.062202
    21  C    0.108153  -0.448793  -0.350322  -0.017559  -0.026753   0.016006
    22  C    0.556524  -0.530200  -1.243808  -0.115453  -0.020427   0.051603
    23  C    0.185172   0.498093  -0.150513  -0.255110  -0.113077  -0.220840
    24  C   -0.885481  -0.612943   0.240332   0.363713  -0.114637  -0.114400
    25  C   -0.031236  -0.095049  -0.031439   0.036711  -0.013929  -0.004073
    26  C   -0.008936   0.239209  -0.301706  -0.048874  -0.012584  -0.011267
    27  C    0.093332   0.148822  -0.001228  -0.068847   0.010442  -0.007656
    28  C    0.345476  -0.380128   0.012801  -0.093007   0.032903   0.025224
    29  C   -0.041133  -1.301119  -0.009216  -0.218212   0.001114   0.155113
    30  C    0.227559   0.866128  -0.240125  -0.624680  -0.552070  -0.526101
    31  H   -0.055555  -0.010705   0.004830   0.001386  -0.016830  -0.025829
    32  H   -0.028234   0.001567  -0.000304   0.006005  -0.001829  -0.093979
    33  H   -0.019072   0.002121  -0.003540   0.020319  -0.002611  -0.097599
    34  H   -0.005735   0.003873  -0.006633  -0.016504   0.027347  -0.034652
    35  H    0.003130  -0.002616   0.001289  -0.008992   0.025625   0.009572
    36  H    0.003294  -0.006402   0.029446  -0.003272  -0.012523  -0.000390
    37  H   -0.002209  -0.007472   0.028288   0.004280  -0.003122   0.000240
    38  H    0.000177  -0.011503   0.004955  -0.000361   0.000999  -0.000001
    39  H    0.000052  -0.001092   0.000936   0.000075   0.000060  -0.000002
    40  H   -0.000253   0.001794   0.000164   0.000063   0.000014  -0.000001
    41  H   -0.000166   0.000182   0.000067   0.000013  -0.000001   0.000010
    42  H   -0.000138  -0.000275   0.000089   0.000202   0.000010  -0.000028
    43  H    0.002113  -0.000053  -0.000000  -0.000285   0.000043   0.000274
    44  H    0.014276   0.002877   0.000061   0.001154   0.001153   0.001158
               7          8          9         10         11         12
     1  C   -0.648495  -1.014698  -0.184509  -0.754116  -0.163853   0.617317
     2  C   -0.098364  -0.307704  -0.391229   0.695042  -1.039575  -0.028559
     3  C   -0.285665  -2.172772  -0.520415   0.744141   0.231609   1.866665
     4  C   -1.383537   2.358305   0.071604   0.215064  -0.369283  -1.482732
     5  C    0.563931  -0.683347   0.917885  -0.436549   1.170725  -0.433174
     6  C   -2.350422  -0.217595  -0.321049  -0.082102  -0.035074  -0.229417
     7  C    9.363817   1.043081  -0.405836   0.123627  -0.151233  -0.565223
     8  C    1.043081  12.729501  -2.019088   0.155501  -0.128632  -2.475625
     9  C   -0.405836  -2.019088  13.077837   0.682858  -0.892835  -2.571788
    10  C    0.123627   0.155501   0.682858   9.828572  -1.461279  -1.650327
    11  C   -0.151233  -0.128632  -0.892835  -1.461279  10.417300   1.511298
    12  C   -0.565223  -2.475625  -2.571788  -1.650327   1.511298  10.847088
    13  C   -0.067854   0.241248  -0.465943  -0.021905  -0.233955  -0.106096
    14  C   -0.962020   0.360501  -0.073317  -0.167919   0.092172  -0.197737
    15  C    1.400897  -1.739148   0.996346   0.067935  -0.111333   0.345678
    16  C    0.008791  -0.230295  -0.447583  -0.916848  -0.735726   0.175262
    17  C   -0.101503  -0.061140  -0.440274  -0.060455  -0.373931   0.202639
    18  C   -0.042978   0.003745  -0.668318   0.910509  -1.076846   0.182515
    19  C    0.008572  -0.020426   0.094745  -0.584114  -0.161894  -0.040594
    20  C    0.007509  -0.021824  -0.061713   0.037232   0.045477   0.021410
    21  C   -0.002634  -0.002145  -0.044104  -0.105304  -0.150987  -0.004049
    22  C   -0.036064   0.032470  -0.175497  -1.121001  -0.393636  -0.054164
    23  C    0.031061  -0.063286  -0.003133  -0.139679  -0.051248  -0.000650
    24  C    0.024953  -0.019793   0.023768   0.123851   0.031071  -0.002536
    25  C    0.000756   0.000548   0.002028  -0.038561   0.000193  -0.001743
    26  C   -0.002218   0.002010  -0.016774  -0.050234  -0.000587   0.003414
    27  C    0.005787  -0.000798  -0.003763   0.024944   0.002135   0.001163
    28  C   -0.016506   0.008215   0.012969  -0.021172  -0.002922  -0.001397
    29  C   -0.044277   0.050813   0.059695  -0.107177  -0.021972  -0.023159
    30  C    0.167490  -0.144467   0.008343  -0.072111  -0.072436   0.031670
    31  H   -0.000024   0.005514   0.002500  -0.003866   0.000349  -0.000429
    32  H    0.039372   0.004746   0.007334   0.000434   0.000203   0.000975
    33  H    0.427969   0.017333  -0.052055   0.001932  -0.001606  -0.001268
    34  H    0.026521   0.381491  -0.067774   0.010394  -0.000954   0.006936
    35  H    0.003896   0.017234  -0.113522  -0.021667   0.008946   0.416315
    36  H   -0.001114  -0.000532  -0.063449  -0.099930   0.377640   0.016253
    37  H    0.000195   0.000555   0.012063  -0.007711   0.017239   0.004169
    38  H    0.000009  -0.000027  -0.000118   0.037993   0.007631   0.000428
    39  H   -0.000000   0.000001   0.000023   0.002237   0.000436   0.000013
    40  H    0.000000  -0.000000  -0.000000   0.000141   0.000018  -0.000001
    41  H    0.000001  -0.000000  -0.000000   0.000055   0.000002  -0.000000
[...]
 56,-0.00000010,0.00000399,-0.00001459,0.00000162,-0.00001539,0.0000118
 6,0.00000441,0.00000679,0.00001014,-0.00000227,0.00000632,0.00000825,0
 .00000332,0.00000080,0.00000537,-0.00000116,0.00014329,0.00021583,0.00
 000460,-0.00011516,0.00002226,0.00003629,0.00002027,0.00004167,-0.0000
 0500,0.00000807,-0.00006365,-0.00003100,-0.00000319,-0.00003021,0.0000
 0114,0.00001321,-0.00000709,-0.00000021,0.00036754,0.00041172,0.000011
 86,0.00185738,-0.00193556,-0.00011465,-0.00060162,0.00021641,0.0000501
 8,0.00003433,-0.00028311,-0.00002718,0.00035490,0.00303429,0.00030400,
 -0.01689425,-0.00529190,-0.00013633,-0.32452391,-0.04943068,0.00023730
 ,-0.00704024,0.00049910,0.00035717,0.00031780,-0.00296705,-0.00033995,
 0.00034707,0.00048439,0.00000161,0.00023295,-0.00002652,0.00004909,-0.
 00092519,-0.00060808,-0.00002177,-0.00001386,0.00001203,-0.00004870,-0
 .00001728,-0.00000168,-0.00001327,-0.00000215,0.00000360,-0.00000143,-
 0.00000543,-0.00000019,-0.00000128,-0.00000566,-0.00000058,-0.00000071
 ,-0.00000124,-0.00000447,-0.00000090,-0.00000042,-0.00000363,-0.000001
 25,-0.00006386,-0.00001346,0.00000471,0.00001099,-0.00002045,-0.000003
 94,0.00080487,-0.00026697,-0.00014405,0.34456590,-0.00000346,-0.000039
 57,0.00000871,-0.00011994,-0.00002739,0.00002322,0.00005592,0.00005365
 ,-0.00000639,-0.00004092,0.00002238,0.00000813,-0.00000735,0.00002244,
 -0.00000607,0.00001536,-0.00000836,-0.00002023,-0.00001382,-0.00000146
 ,-0.00000530,0.00000714,0.00001404,0.00000036,0.00000223,-0.00001176,0
 .00000499,0.00000269,-0.00004643,0.00000031,0.00001826,0.00000899,0.00
 000260,-0.00001014,0.00001008,-0.00000121,-0.00007543,-0.00024984,-0.0
 0000707,0.00010756,-0.00003187,-0.00004871,0.00001365,-0.00002952,0.00
 002601,0.00010502,0.00017126,0.00010124,0.00016605,-0.00007058,-0.0000
 2728,-0.00006018,0.00002686,0.00000024,0.00004046,-0.00074863,0.000006
 08,-0.00060291,-0.00505770,-0.00149779,-0.00131644,0.00042107,0.000138
 74,-0.00012627,-0.00049396,0.00003170,0.00157214,-0.00335301,-0.000757
 69,0.02286391,0.00568970,-0.00008696,-0.05056814,-0.06652395,-0.002200
 29,-0.03126554,-0.00066413,0.00006701,0.00305626,-0.00019655,0.0002072
 7,-0.00044881,0.00021166,0.00002050,0.00024061,0.00009108,-0.00001572,
 0.00114146,0.00023841,0.00001422,0.00001413,-0.00001591,0.00004222,0.0
 0000774,0.00000956,0.00001903,-0.00000071,0.00000190,0.00000008,-0.000
 00294,0.00000102,0.00000026,-0.00000297,0.00000109,-0.00000071,-0.0000
 0120,-0.00000294,-0.00000138,0.00000483,-0.00000007,-0.00000107,-0.000
 14538,-0.00005035,0.00000173,0.00004679,-0.00004703,-0.00001817,0.0003
 8034,0.00083956,0.00059370,0.05524461,0.07091977,-0.00003988,0.0000328
 2,-0.00000287,-0.00003211,-0.00006512,0.00001252,0.00005904,0.00002163
 ,0.00005160,0.00001241,-0.00000657,0.00001962,0.00000268,0.00002092,0.
 00001520,0.00000221,0.00003157,-0.00003659,-0.00000376,-0.00000947,0.0
 0000027,-0.00000106,0.00001314,0.00000072,0.00000575,-0.00000861,-0.00
 001360,0.00000312,-0.00004832,-0.00002094,0.00000869,-0.00000805,0.000
 00733,0.00000619,0.00000849,-0.00000214,0.00008636,-0.00023748,0.00006
 765,0.00004044,0.00018171,0.00007026,-0.00003232,-0.00008312,0.0000226
 8,-0.00010577,0.00006626,-0.00088843,0.00008787,-0.00003365,0.00010813
 ,-0.00005431,0.00000538,0.00002425,0.00009222,-0.00021160,-0.00071454,
 0.00013331,-0.00160722,0.00905915,-0.00017155,0.00012772,0.00005521,-0
 .00010395,-0.00004131,-0.00049376,0.00055091,-0.00051252,0.00423265,0.
 00205817,0.00089325,0.00286185,0.00037758,-0.00284630,-0.03781557,-0.0
 0282938,-0.00012837,0.00529672,0.00027382,0.00020132,-0.00248811,-0.00
 010794,0.00004284,-0.00002641,0.00004408,0.00004941,0.00002167,0.00006
 468,0.00004665,-0.00011875,-0.00002795,0.00006413,0.00000129,0.0000117
 9,-0.00000360,-0.00001060,-0.00000021,0.00000018,0.00000083,-0.0000002
 4,-0.00000035,0.00000122,-0.00000031,-0.00000002,0.00000157,0.00000086
 ,0.00000017,0.00000096,0.00000042,0.00000404,0.00000022,-0.00002174,-0
 .00000681,0.00003758,0.00001270,-0.00001124,0.00006990,-0.00011248,0.0
 0061130,-0.00511546,-0.00023266,0.00362747,0.02525680,-0.00002029,-0.0
 0000229,0.00000272,0.00003372,0.00004532,-0.00003248,-0.00004511,-0.00
 000732,0.00001577,-0.00002543,0.00001173,0.00000849,-0.00000788,-0.000
 01562,-0.00001250,-0.00006946,-0.00002257,0.00006024,0.00002918,0.0000
 0419,0.00001835,-0.00000568,-0.00003682,-0.00000221,-0.00002980,0.0000
 2313,0.00000329,0.00000791,0.00001035,0.00000252,-0.00000095,0.0000056
 7,0.00000097,0.00000589,0.00000078,-0.00000012,0.00008869,0.00002173,0
 .00003931,-0.00029468,0.00007529,-0.00015835,0.00005921,-0.00003665,0.
 00002361,0.00004486,-0.00026155,-0.00003119,-0.00008625,0.00001360,0.0
 0001979,0.00002125,-0.00002875,-0.00000336,-0.00064048,0.00052956,0.00
 004887,0.00022198,0.00012511,-0.00000428,0.00004470,-0.00000391,-0.000
 00323,0.00002947,-0.00003671,-0.00000338,0.00107519,-0.00209957,-0.000
 26300,-0.01253967,0.00138373,-0.00006035,0.00024833,0.00316638,0.00041
 471,0.00043458,-0.00044455,-0.00003156,-0.33265590,-0.00635327,-0.0043
 8071,-0.01252634,-0.00344187,-0.00048725,0.00025792,0.00399268,0.00020
 146,0.00052523,-0.00009408,0.00005365,0.00003100,-0.00001384,-0.000047
 76,-0.00001019,-0.00001103,-0.00004432,-0.00000304,0.00000490,-0.00000
 132,-0.00000648,-0.00000266,-0.00000440,-0.00000637,-0.00000138,-0.000
 00077,-0.00000159,-0.00000547,-0.00000020,-0.00000779,-0.00000784,-0.0
 0000319,0.00000007,-0.00000539,-0.00000077,0.00000517,-0.00002541,-0.0
 0000378,-0.00003208,-0.00007402,-0.00001190,0.00115960,-0.00023996,-0.
 00005411,0.35442463,0.00002599,-0.00006549,0.00002019,0.00002467,-0.00
 001422,0.00002217,-0.00000814,0.00002148,0.00000450,0.00003681,0.00000
 627,-0.00001113,-0.00000080,-0.00002770,0.00000005,0.00005732,0.000015
 77,-0.00005874,-0.00002583,0.00000547,-0.00002317,0.00001506,0.0000237
 7,0.00000704,0.00001870,-0.00001639,-0.00000099,0.00000498,0.00001022,
 -0.00000542,0.00000559,0.00000258,0.00000264,-0.00000758,0.00000538,-0
 .00000077,0.00002255,0.00006227,0.00007778,0.00024180,0.00001955,0.000
 13161,-0.00004807,0.00005030,-0.00001050,0.00006854,-0.00038504,-0.000
 03922,-0.00011217,-0.00003539,0.00000517,0.00001060,-0.00004920,-0.000
 00214,-0.00129029,0.00017397,0.00009256,-0.00027292,0.00006635,-0.0000
 0734,0.00012188,0.00004147,-0.00000168,-0.00004733,0.00000140,0.000005
 18,-0.00078830,-0.00406706,-0.00082663,-0.02684669,0.00090517,-0.00053
 273,-0.00310874,-0.00037305,0.00021399,0.00049877,0.00021763,0.0000302
 3,-0.00431427,-0.05774345,-0.00206527,0.02804305,0.00589758,0.00043486
 ,0.00258780,-0.00453593,-0.00088590,-0.00002913,-0.00103058,-0.0000056
 1,-0.00002879,0.00001794,0.00001648,0.00000054,0.00001054,0.00003741,0
 .00000227,-0.00000226,-0.00000013,0.00000166,0.00000319,0.00000364,0.0
 0000161,0.00000116,0.00000017,0.00000002,0.00000170,-0.00000079,-0.000
 01347,-0.00000255,0.00000074,0.00000584,0.00000212,-0.00000015,-0.0000
 0607,-0.00002659,-0.00000373,0.00000021,-0.00000382,-0.00001440,0.0006
 2878,-0.00105982,-0.00016493,0.00406267,0.06066742,0.00009185,0.000047
 51,-0.00002991,-0.00000359,0.00000934,-0.00005453,0.00000712,0.0000237
 1,-0.00000613,-0.00005121,0.00005466,0.00004680,0.00002090,0.00001084,
 0.00000244,-0.00009366,-0.00014558,-0.00003202,0.00007475,0.00006541,0
 .00005359,-0.00001350,-0.00007230,0.00000857,-0.00003431,0.00005903,-0
 .00000877,0.00004140,-0.00003437,0.00001424,-0.00002366,0.00001606,0.0
 0000228,0.00000399,-0.00003006,-0.00000043,-0.00001911,-0.00007804,-0.
 00090233,-0.00010725,-0.00001971,0.00033779,0.00024185,0.00003407,-0.0
 0019656,-0.00001022,-0.00010152,0.00012518,0.00003036,0.00002181,0.000
 09086,-0.00005216,-0.00000070,-0.00003819,-0.00014156,0.00000905,0.000
 00311,-0.00011157,0.00000252,0.00008827,0.00001811,0.00001766,-0.00000
 093,-0.00002362,0.00000965,-0.00002705,-0.00032762,-0.00060875,0.00514
 321,-0.00185643,0.00048154,0.00266478,-0.00036081,0.00019533,-0.003387
 59,0.00015555,0.00012015,0.00000670,-0.00396615,-0.00292084,-0.0367947
 3,0.00138866,0.00066431,0.00485417,0.00026666,-0.00081764,0.00777666,-
 0.00006116,-0.00045263,-0.00077597,0.00005088,0.00004474,-0.00001749,-
 0.00000200,0.00001227,0.00001768,-0.00000182,0.00000019,-0.00000051,0.
 00000343,-0.00000055,-0.00000975,-0.00000005,0.00000037,0.00000030,-0.
 00000046,-0.00000044,0.00000005,-0.00000400,0.00000021,-0.00001189,0.0
 0000004,-0.00000081,0.00000086,0.00000115,-0.00000419,0.00001589,0.000
 00488,-0.00001835,0.00016573,0.00003443,-0.00022044,0.00033760,0.00461
 110,0.00313507,0.02501274,-0.00056559,0.00036223,0.00005300,0.00001009
 ,0.00003805,-0.00000264,0.00000265,-0.00001042,0.00000781,0.00004325,-
 0.00014473,0.00001166,-0.00006572,-0.00000135,-0.00001594,-0.00003858,
 0.00004378,-0.00001274,0.00003779,0.00000446,0.00000160,-0.00001036,-0
 .00002975,0.00000488,-0.00000062,0.00001606,0.00000271,0.00002833,-0.0
 0003590,-0.00000439,-0.00002114,-0.00000110,-0.00000207,0.00000671,-0.
 00002322,0.00000032,0.00000008,-0.00169671,-0.00004458,-0.00002238,0.0
 0015961,0.00003274,-0.00005788,-0.00000551,0.00001417,0.00001875,0.000
 04405,0.00000459,0.00003718,-0.00003689,-0.00000386,-0.00004772,-0.000
 00404,0.00000187,0.00014812,-0.00027092,0.00002441,-0.00027661,-0.0000
 5395,-0.00000846,0.00007624,0.00005759,-0.00000052,-0.00007390,0.00002
 617,0.00000632,-0.00069869,0.00086243,0.00002720,-0.00142847,0.0032779
 0,0.00004840,0.00062568,0.00029682,0.00001305,0.00002319,0.00033331,0.
 00005402,0.01208600,0.01640980,0.00138244,-0.11308354,-0.10919283,-0.0
 1007615,-0.00930617,-0.02924590,-0.00232785,-0.00486607,0.00099977,-0.
 00055035,-0.00000345,0.00001478,-0.00005168,-0.00002667,-0.00000187,-0
 .00001162,-0.00000682,0.00000334,-0.00000419,-0.00000455,-0.00000209,-
 0.00000053,-0.00000432,-0.00000388,-0.00000053,-0.00000133,-0.00000290
 ,0.00000004,-0.00000031,-0.00000268,-0.00000158,-0.00000052,-0.0000028
 3,-0.00000019,0.00000286,-0.00000751,-0.00000087,0.00002431,0.00008347
 ,0.00001085,-0.00003751,-0.00000282,-0.00000892,0.00073596,-0.00059226
 ,0.00006203,0.11550828,-0.00002511,0.00006192,0.00001499,0.00001099,-0
 .00001404,-0.00000412,-0.00000911,-0.00001296,-0.00000329,-0.00000587,
 -0.00000333,-0.00000152,-0.00001283,0.00000367,-0.00000804,-0.00003088
 ,0.00001763,0.00002353,0.00001270,-0.00001233,0.00000926,-0.00000770,-
 0.00000826,-0.00000195,-0.00002248,-0.00000561,0.00000379,-0.00003099,
 0.00000068,0.00000574,0.00002436,0.00000014,0.00000152,-0.00000492,0.0
 0001738,0.00000004,0.00013308,-0.00018705,0.00002110,-0.00009814,0.000
 04314,-0.00008026,-0.00000886,-0.00004170,0.00002509,-0.00001898,-0.00
 003511,-0.00000455,-0.00006749,0.00002237,0.00000664,0.00003208,-0.000
 00223,-0.00000231,-0.00007063,0.00016052,0.00008376,0.00021670,0.00007
 177,0.00000108,-0.00005193,-0.00003124,-0.00000748,0.00004418,-0.00001
 312,-0.00000288,0.00045430,-0.00000598,0.00005973,0.00414219,-0.001822
 68,-0.00073650,-0.00108305,-0.00066008,-0.00004620,0.00028790,-0.00044
 840,-0.00002415,-0.01484521,-0.01827677,-0.00193351,-0.10868791,-0.280
 90279,-0.02048619,0.00105317,0.00238233,0.00002934,0.00058494,0.001860
 69,-0.00031883,-0.00002886,-0.00001215,-0.00003521,-0.00001045,-0.0000
 0266,-0.00002299,-0.00000403,0.00000458,-0.00000173,-0.00000574,-0.000
 00216,-0.00000197,-0.00000538,-0.00000074,-0.00000094,-0.00000166,-0.0
 0000522,-0.00000088,-0.00000238,-0.00000619,-0.00000101,-0.00000554,-0
 .00000756,-0.00000048,0.00000539,0.00000207,-0.00000059,-0.00004870,-0
 .00013015,-0.00001597,0.00005483,0.00000137,-0.00000157,0.00024574,0.0
 0088175,0.00039554,0.11806738,0.29649453,-0.00012309,0.00000824,-0.000
 18449,0.00001566,-0.00001444,0.00000127,-0.00003480,0.00001628,0.00000
 181,0.00008147,-0.00002496,-0.00000981,0.00001150,-0.00005001,0.000015
 79,-0.00006430,0.00005570,0.00000602,0.00001855,0.00000444,-0.00001052
 ,0.00000457,-0.00002656,-0.00000818,-0.00002075,0.00001630,0.00000518,
 0.00002160,-0.00002063,-0.00000209,-0.00000731,0.00000721,0.00000138,0
 .00000501,-0.00000335,-0.00000023,-0.00000761,-0.00010489,0.00006174,-
 0.00020092,0.00022284,-0.00005120,-0.00002331,-0.00009225,0.00007973,-
 0.00005357,0.00005177,0.00001295,0.00002046,-0.00003610,0.00002807,-0.
 00003226,0.00000933,0.00000449,0.00002349,0.00008655,-0.00102768,0.000
 06777,-0.00006439,0.00010733,0.00002381,0.00002998,0.00006687,-0.00002
 028,0.00001612,-0.00000604,-0.00005191,0.00011597,-0.00058990,0.000387
 17,-0.00066352,0.00852357,-0.00004355,0.00002189,0.00010300,-0.0000321
 3,0.00001319,-0.00054297,-0.00080156,-0.00150008,0.00373410,-0.0100006
 7,-0.02001601,-0.03959100,-0.00033863,-0.00083289,0.00306775,-0.000514
 80,-0.00017303,0.00628603,-0.00001111,-0.00008145,-0.00003305,-0.00000
 453,0.00000027,0.00000140,0.00000182,0.00000120,0.00000158,-0.00000195
 ,-0.00000147,0.00000244,-0.00000070,0.00000022,0.00000108,0.00000030,-
 0.00000036,0.00000153,0.00000143,0.00000103,0.00000419,-0.00000163,0.0
 0000100,0.00000111,0.00000129,0.00000091,-0.00000015,-0.00000348,-0.00
 000707,0.00000430,0.00000187,-0.00001763,0.00011861,0.00007457,0.00038
 948,-0.00432811,0.01107513,0.02275950,0.02753027,0.00044650,0.00121674
 ,-0.00028256,0.00008669,-0.00022219,0.00027345,0.00026533,0.00021394,-
 0.00006927,-0.00047317,0.00002074,0.00006853,-0.00000940,0.00017419,0.
 00013002,0.00063461,-0.00021621,-0.00039524,-0.00021712,0.00008569,-0.
 00020113,0.00011464,0.00022557,0.00004227,0.00000973,-0.00027287,-0.00
 003197,-0.00024049,0.00001175,-0.00000250,0.00025588,0.00001179,0.0000
 2794,-0.00013230,0.00020756,-0.00001506,-0.00109639,-0.00214536,-0.000
 51915,-0.00378333,-0.00289804,0.00192138,-0.00012161,0.00128554,-0.000
 57069,0.00028892,0.00007252,-0.00009875,-0.00015634,0.00001195,-0.0000
 1744,0.00017770,0.00004471,-0.00000816,0.00089754,-0.00031883,0.000072
 96,0.00012775,-0.00020664,0.00010482,-0.00008135,-0.00007449,0.0000427
 0,0.00013798,-0.00014453,-0.00002239,-0.00203751,-0.00327607,-0.001299
 86,-0.00033223,-0.00096010,0.00002903,-0.00024830,0.00040350,0.0001321
 3,-0.00008974,-0.00036785,-0.00009011,-0.00495969,-0.00123980,-0.00101
 498,-0.01232801,0.02475408,-0.00040936,-0.13873622,0.12744536,0.000630
 47,0.01304919,-0.01195854,-0.00091259,-0.00111686,-0.00063348,0.000726
 73,0.00001160,0.00010443,0.00033868,0.00000240,-0.00001701,0.00000173,
 0.00001909,0.00003414,0.00003540,0.00001183,0.00001346,-0.00000173,0.0
 0000098,0.00000813,-0.00001217,-0.00000753,0.00000163,0.00001182,-0.00
 001037,0.00000103,-0.00000342,-0.00001130,-0.00003598,-0.00001207,-0.0
 0000237,-0.00000688,-0.00000414,0.00007843,-0.00005180,0.00000534,-0.0
 0046910,0.00105311,0.00015681,0.00123347,-0.00017509,0.00055740,0.1488
 1046,-0.00003507,-0.00060410,0.00021208,-0.00010974,-0.00003336,0.0001
 8108,0.00001285,-0.00004163,-0.00002926,0.00029607,-0.00003371,-0.0000
 8672,-0.00009042,-0.00011472,-0.00005238,0.00048544,0.00018710,-0.0004
 5207,-0.00020405,-0.00006160,-0.00014196,0.00005304,0.00024172,0.00001
 304,0.00017290,-0.00014692,0.00003859,-0.00007060,0.00007727,0.0000093
 8,0.00005492,-0.00000500,0.00000246,-0.00004524,0.00003948,0.00000018,
 0.00015319,-0.00260935,0.00041579,0.00300962,0.00002675,0.00091362,-0.
 00021898,0.00019085,0.00008304,0.00004786,0.00008068,-0.00002533,-0.00
 006517,-0.00005715,-0.00000047,0.00008335,-0.00001433,-0.00000873,0.00
 106336,-0.00014663,-0.00006551,-0.00024537,-0.00034730,-0.00001866,0.0
 0008068,-0.00003389,-0.00002087,0.00002401,-0.00004927,-0.00000501,-0.
 00315374,-0.00270599,-0.00013508,-0.00067745,0.00001090,-0.00006547,0.
 00009473,0.00014575,-0.00001201,-0.00012795,0.00002412,0.00003104,-0.0
 0153197,0.00105818,0.00025471,-0.00418132,0.00818476,0.00003438,0.1248
 2219,-0.25231868,0.00157268,0.01339822,-0.02155019,0.00011147,-0.00079
 284,0.00000985,0.00010645,0.00000767,0.00008713,0.00022394,0.00000741,
 -0.00000833,-0.00000191,0.00000381,0.00001549,0.00003102,0.00000448,0.
 00000333,0.00000041,-0.00000303,0.00000359,-0.00000446,-0.00000303,0.0
 0000026,0.00000035,-0.00000350,0.00000021,0.00000125,-0.00001149,-0.00
 004318,-0.00000026,0.00001390,-0.00000414,-0.00000183,0.00004004,-0.00
 002504,-0.00001419,-0.00045006,0.00032608,0.00009587,0.00027104,0.0006
 2394,-0.00009833,-0.13217980,0.26961710,0.00046363,0.00091691,0.000058
 52,0.00013798,-0.00017222,0.00012879,0.00009533,0.00009143,-0.00002987
 ,-0.00038815,0.00022601,0.00015798,0.00001783,0.00009161,-0.00002178,-
 0.00023130,-0.00058814,0.00002942,0.00027971,0.00021861,0.00007974,-0.
 00003484,-0.00023072,0.00004225,-0.00007650,0.00023545,-0.00004480,0.0
 0017984,-0.00012384,-0.00001909,-0.00013158,0.00007926,-0.00000619,0.0
 0002050,-0.00016704,0.00001458,-0.00009645,-0.00002386,-0.00439600,-0.
 00129453,-0.00076080,0.00045594,0.00106878,0.00044811,-0.00072190,-0.0
 0028709,-0.00018669,-0.00002683,0.00013353,0.00018259,-0.00003564,-0.0
 0019820,0.00003717,0.00003281,0.00052750,0.00015332,0.00064796,-0.0002
 0318,-0.00007375,-0.00042352,0.00000673,-0.00000866,-0.00004924,0.0000
 0352,-0.00002166,-0.00000640,-0.00012683,-0.00167986,0.00648667,-0.000
 60431,-0.00021271,-0.00096600,0.00001686,-0.00007096,-0.00056016,0.000
 07754,0.00011772,0.00018580,-0.00030560,0.00014080,0.00620071,0.000250
 04,-0.00000086,0.00512578,-0.00295768,0.00372086,-0.04110696,0.0021005
 4,-0.00047583,0.00443667,0.00053812,0.00088425,-0.00001674,-0.00002199
 ,0.00003132,0.00009070,-0.00000418,-0.00000181,-0.00000161,0.00001548,
 0.00000274,-0.00001399,0.00000381,0.00000109,-0.00000277,-0.00000101,0
 .00000182,-0.00000112,-0.00000479,0.00000081,0.00000296,0.00000043,-0.
 00000117,0.00000784,-0.00000418,-0.00001081,-0.00002089,0.00000650,-0.
 00000735,0.00002825,0.00000551,-0.00000570,-0.00000629,0.00004708,0.00
 003041,-0.00014662,0.00029045,0.00030450,-0.00338814,0.00068517,-0.003
 09234,0.02779917\\-0.00000106,-0.00000151,-0.00000532,0.00000004,-0.00
 000006,-0.00000029,0.00000023,-0.00000048,-0.00000090,-0.00000036,-0.0
 0000019,0.00000021,-0.00000040,-0.00000093,-0.00000234,-0.00000021,-0.
 00000126,-0.00000564,-0.00000085,-0.00000150,-0.00000479,-0.00000027,-
 0.00000171,-0.00000548,0.00000020,-0.00000153,-0.00000298,0.00000055,-
 0.00000061,-0.00000027,0.00000082,-0.00000135,-0.00000158,0.00000056,-
 0.00000160,-0.00000308,-0.00000231,0.00000441,0.00000893,0.00000081,-0
 .00000154,-0.00000396,-0.00000137,-0.00000031,-0.00000165,0.00000037,0
 .00000032,0.00000104,0.00000099,0.00000009,0.00000170,0.00000112,-0.00
 000041,0.00000100,0.00000040,0.00000049,0.00000250,0.00000068,0.000000
 97,0.00000409,0.00000147,0.00000073,0.00000421,0.00000134,0.00000020,0
 .00000347,-0.00000050,0.00000119,0.00000187,-0.00000034,0.00000155,0.0
 0000260,0.00000027,0.00000168,0.00000430,0.00000080,0.00000132,0.00000
 456,-0.00000068,0.00000150,0.00000210,-0.00000147,0.00000163,0.0000010
 7,-0.00000106,0.00000096,-0.00000030,0.00000023,0.00000021,-0.00000289
 ,-0.00000276,-0.00000153,-0.00000611,-0.00000070,-0.00000166,-0.000005
 34,-0.00000081,-0.00000190,-0.00000597,-0.00000021,-0.00000225,-0.0000
 0569,0.00000066,-0.00000204,-0.00000342,0.00000130,-0.00000145,-0.0000
 0098,0.00000160,-0.00000053,0.00000181,0.00000186,0.00000018,0.0000039
 9,0.00000173,0.00000093,0.00000562,0.00000112,0.00000153,0.00000602,0.
 00000013,0.00000201,0.00000502,-0.00000085,0.00000207,0.00000329,-0.00
 000169,0.00000173,0.00000059,-0.00000137,0.00000064,-0.00000101\\\@


 OLD HORSE! OLD HORSE! WHAT BROUGHT YOU HERE?
 FROM SACARAP' TO PORTLAND PIER
 I'VE CARTED STONE THIS MANY A YEAR;
 TILL, KILLED BY BLOWS AND SORE ABUSE,
 THEY SALTED ME DOWN FOR SAILORS' USE.
 THE SAILORS THEY DO ME DESPISE;
 THEY TURN ME OVER AND DAMN MY EYES;
 CUT OFF MY MEAT, AND SCRAPE MY BONES,
 AND PITCH ME OVER TO DAVY JONES.

    SAILORS' COMPLAINT ABOUT THE BEEF
    SERVED ON SHIPBOARD, CIRCA 1835.
 Job cpu time:       0 days 21 hours 23 minutes 38.7 seconds.
 Elapsed time:       0 days  1 hours  4 minutes 21.6 seconds.
 File lengths (MBytes):  RWF=   2127 Int=      0 D2E=      0 Chk=     45 Scr=      1
 Normal termination of Gaussian 16 at Thu Jul  4 01:35:02 2019.
