 Entering Gaussian System, Link 0=/share/apps/gaussian16/g16/g16
 Initial command:
 /share/apps/gaussian16/g16/l1.exe "/home/amen01//scratch/749/Gau-40661.inp" -scrdir="/home/amen01//scratch/749/"
 Entering Link 1 = /share/apps/gaussian16/g16/l1.exe PID=     40662.
  
 Copyright (c) 1988-2017, Gaussian, Inc.  All Rights Reserved.
  
 This is part of the Gaussian(R) 16 program.  It is based on
 the Gaussian(R) 09 system (copyright 2009, Gaussian, Inc.),
 the Gaussian(R) 03 system (copyright 2003, Gaussian, Inc.),
 the Gaussian(R) 98 system (copyright 1998, Gaussian, Inc.),
 the Gaussian(R) 94 system (copyright 1995, Gaussian, Inc.),
 the Gaussian 92(TM) system (copyright 1992, Gaussian, Inc.),
 the Gaussian 90(TM) system (copyright 1990, Gaussian, Inc.),
 the Gaussian 88(TM) system (copyright 1988, Gaussian, Inc.),
 the Gaussian 86(TM) system (copyright 1986, Carnegie Mellon
 University), and the Gaussian 82(TM) system (copyright 1983,
 Carnegie Mellon University). Gaussian is a federally registered
 trademark of Gaussian, Inc.
  
 This software contains proprietary and confidential information,
 including trade secrets, belonging to Gaussian, Inc.
  
 This software is provided under written license and may be
 used, copied, transmitted, or stored only in accord with that
 written license.
  
 The following legend is applicable only to US Government
 contracts under FAR:
  
                    RESTRICTED RIGHTS LEGEND
  
 Use, reproduction and disclosure by the US Government is
 subject to restrictions as set forth in subparagraphs (a)
 and (c) of the Commercial Computer Software - Restricted
 Rights clause in FAR 52.227-19.
  
 Gaussian, Inc.
 340 Quinnipiac St., Bldg. 40, Wallingford CT 06492
  
  
 ---------------------------------------------------------------
 Warning -- This program may not be used in any manner that
 competes with the business of Gaussian, Inc. or will provide
 assistance to any competitor of Gaussian, Inc.  The licensee
 of this program is prohibited from giving any competitor of
 Gaussian, Inc. access to this program.  By using this program,
 the user acknowledges that Gaussian, Inc. is engaged in the
 business of creating and licensing software in the field of
 computational chemistry and represents and warrants to the
 licensee that it is not a competitor of Gaussian, Inc. and that
 it will not use this program in any manner prohibited above.
 ---------------------------------------------------------------
  

 Cite this work as:
 Gaussian 16, Revision B.01,
 M. J. Frisch, G. W. Trucks, H. B. Schlegel, G. E. Scuseria, 
 M. A. Robb, J. R. Cheeseman, G. Scalmani, V. Barone, 
 G. A. Petersson, H. Nakatsuji, X. Li, M. Caricato, A. V. Marenich, 
 J. Bloino, B. G. Janesko, R. Gomperts, B. Mennucci, H. P. Hratchian, 
 J. V. Ortiz, A. F. Izmaylov, J. L. Sonnenberg, D. Williams-Young, 
 F. Ding, F. Lipparini, F. Egidi, J. Goings, B. Peng, A. Petrone, 
 T. Henderson, D. Ranasinghe, V. G. Zakrzewski, J. Gao, N. Rega, 
 G. Zheng, W. Liang, M. Hada, M. Ehara, K. Toyota, R. Fukuda, 
 J. Hasegawa, M. Ishida, T. Nakajima, Y. Honda, O. Kitao, H. Nakai, 
 T. Vreven, K. Throssell, J. A. Montgomery, Jr., J. E. Peralta, 
 F. Ogliaro, M. J. Bearpark, J. J. Heyd, E. N. Brothers, K. N. Kudin, 
 V. N. Staroverov, T. A. Keith, R. Kobayashi, J. Normand, 
 K. Raghavachari, A. P. Rendell, J. C. Burant, S. S. Iyengar, 
 J. Tomasi, M. Cossi, J. M. Millam, M. Klene, C. Adamo, R. Cammi, 
 J. W. Ochterski, R. L. Martin, K. Morokuma, O. Farkas, 
 J. B. Foresman, and D. J. Fox, Gaussian, Inc., Wallingford CT, 2016.
 
 ******************************************
 Gaussian 16:  ES64L-G16RevB.01 20-Dec-2017
                 1-Aug-2019 
 ******************************************
 %nprocshared=20
 Will use up to   20 processors via shared memory.
 %mem=160GB
 %chk=7-memb2-haddTSguess-5b.chk
 ---------------------------------------------------------------
 # opt=(ts,calcfc,noeigen) freq b3lyp/6-311+g(d,p) int=grid=fine
 ---------------------------------------------------------------
 1/5=1,10=4,11=1,18=20,26=3,38=1/1,3;
 2/9=110,12=2,17=6,18=5,40=1/2;
 3/5=4,6=6,7=111,11=2,25=1,30=1,71=2,74=-5,75=-4,140=1/1,2,3;
 4//1;
 5/5=2,38=5/2;
 8/6=4,10=90,11=11/1;
 11/6=1,8=1,9=11,15=111,16=1/1,2,10;
 10/6=1,13=1/2;
 6/7=2,8=2,9=2,10=2,28=1/1;
 7/10=1,18=20,25=1/1,2,3,16;
 1/5=1,10=4,11=1,18=20,26=3/3(2);
 2/9=110/2;
 99//99;
 2/9=110/2;
 3/5=4,6=6,7=111,11=2,25=1,30=1,71=1,74=-5,75=-4/1,2,3;
 4/5=5,16=3,69=1/1;
 5/5=2,38=5/2;
 7//1,2,3,16;
 1/5=1,11=1,18=20,26=3/3(-5);
 2/9=110/2;
 6/7=2,8=2,9=2,10=2,19=2,28=1/1;
 99/9=1/99;
 ----------------------
 7-memb2-haddTSguess-5b
 ----------------------
 Symbolic Z-matrix:
 Charge =  0 Multiplicity = 1
 C                    -0.69261  -0.93668   0.10024 
 C                    -0.53077   0.51596   0.20443 
 C                    -1.83022   1.05111   0.27044 
 C                    -2.08613  -1.18934   0.0911 
 C                    -2.77298   0.01702   0.20297 
 C                    -2.7286   -2.38816  -0.15793 
 C                    -4.16545  -2.28314  -0.24434 
 C                    -4.83621  -1.06811  -0.14059 
 C                    -4.13296   0.17368   0.0659 
 C                    -2.20974   2.38743   0.20923 
 C                    -3.64683   2.60314   0.14683 
 C                    -4.55535   1.56391   0.07679 
 C                     0.16556  -1.98433  -0.07492 
 C                    -0.45127  -3.26897  -0.29697 
 C                    -1.82144  -3.47664  -0.3547 
 C                     0.55758   1.36527   0.08315 
 C                     0.20916   2.78663   0.06294 
 C                    -1.12029   3.26943   0.12843 
 C                     1.94389   0.89922  -0.05131 
 C                     2.91215   1.93977  -0.20682 
 C                     2.54401   3.32594  -0.22126 
 C                     1.26365   3.73778  -0.08258 
 C                     2.41465  -0.48914  -0.01336 
 C                     3.83301  -0.68624  -0.03831 
 C                     4.73963   0.38365  -0.25103 
 C                     4.29077   1.65961  -0.34483 
 C                     4.44469  -1.94994   0.24231 
 C                     3.72234  -3.05374   0.56474 
 C                     2.30573  -3.08098   0.40496 
 C                     1.66505  -1.8191    0.02513 
 H                    -2.18932  -4.47743  -0.55628 
 H                    -4.75117  -3.17909  -0.42362 
 H                    -5.91646  -1.06495  -0.24463 
 H                    -5.61112   1.80416   0.00221 
 H                    -4.02257   3.62099   0.12547 
 H                    -1.26878   4.34328   0.07397 
 H                     1.01808   4.79408  -0.09348 
 H                     3.34142   4.05073  -0.3421 
 H                     4.97906   2.48382  -0.49429 
 H                     5.79866   0.15932  -0.30671 
 H                     5.53156  -1.97918   0.22695 
 H                     4.22191  -3.95683   0.90367 
 H                     2.06999  -2.51392  -0.86558 
 H                     0.21269  -4.11528  -0.40947 
 

 GradGradGradGradGradGradGradGradGradGradGradGradGradGradGradGradGradGrad
 Berny optimization.
 Initialization pass.
                           ----------------------------
                           !    Initial Parameters    !
                           ! (Angstroms and Degrees)  !
 --------------------------                            --------------------------
 ! Name  Definition              Value          Derivative Info.                !
 --------------------------------------------------------------------------------
 ! R1    R(1,2)                  1.4653         calculate D2E/DX2 analytically  !
 ! R2    R(1,4)                  1.4163         calculate D2E/DX2 analytically  !
 ! R3    R(1,13)                 1.3655         calculate D2E/DX2 analytically  !
 ! R4    R(2,3)                  1.4069         calculate D2E/DX2 analytically  !
 ! R5    R(2,16)                 1.3858         calculate D2E/DX2 analytically  !
 ! R6    R(3,5)                  1.401          calculate D2E/DX2 analytically  !
 ! R7    R(3,10)                 1.3905         calculate D2E/DX2 analytically  !
 ! R8    R(4,5)                  1.3927         calculate D2E/DX2 analytically  !
 ! R9    R(4,6)                  1.3827         calculate D2E/DX2 analytically  !
 ! R10   R(5,9)                  1.3758         calculate D2E/DX2 analytically  !
 ! R11   R(6,7)                  1.4433         calculate D2E/DX2 analytically  !
 ! R12   R(6,15)                 1.4305         calculate D2E/DX2 analytically  !
 ! R13   R(7,8)                  1.3917         calculate D2E/DX2 analytically  !
 ! R14   R(7,32)                 1.0853         calculate D2E/DX2 analytically  !
 ! R15   R(8,9)                  1.442          calculate D2E/DX2 analytically  !
 ! R16   R(8,33)                 1.0853         calculate D2E/DX2 analytically  !
 ! R17   R(9,12)                 1.453          calculate D2E/DX2 analytically  !
 ! R18   R(10,11)                1.4545         calculate D2E/DX2 analytically  !
 ! R19   R(10,18)                1.404          calculate D2E/DX2 analytically  !
 ! R20   R(11,12)                1.3821         calculate D2E/DX2 analytically  !
 ! R21   R(11,35)                1.0852         calculate D2E/DX2 analytically  !
 ! R22   R(12,34)                1.0853         calculate D2E/DX2 analytically  !
 ! R23   R(13,14)                1.4422         calculate D2E/DX2 analytically  !
 ! R24   R(13,30)                1.5119         calculate D2E/DX2 analytically  !
 ! R25   R(14,15)                1.387          calculate D2E/DX2 analytically  !
 ! R26   R(14,44)                1.0815         calculate D2E/DX2 analytically  !
 ! R27   R(15,31)                1.0851         calculate D2E/DX2 analytically  !
 ! R28   R(16,17)                1.4636         calculate D2E/DX2 analytically  !
 ! R29   R(16,19)                1.4687         calculate D2E/DX2 analytically  !
 ! R30   R(17,18)                1.4159         calculate D2E/DX2 analytically  !
 ! R31   R(17,22)                1.4275         calculate D2E/DX2 analytically  !
 ! R32   R(18,36)                1.0854         calculate D2E/DX2 analytically  !
 ! R33   R(19,20)                1.4298         calculate D2E/DX2 analytically  !
 ! R34   R(19,23)                1.4665         calculate D2E/DX2 analytically  !
 ! R35   R(20,21)                1.4343         calculate D2E/DX2 analytically  !
 ! R36   R(20,26)                1.4136         calculate D2E/DX2 analytically  !
 ! R37   R(21,22)                1.3521         calculate D2E/DX2 analytically  !
 ! R38   R(21,38)                1.0843         calculate D2E/DX2 analytically  !
 ! R39   R(22,37)                1.0845         calculate D2E/DX2 analytically  !
 ! R40   R(23,24)                1.4322         calculate D2E/DX2 analytically  !
 ! R41   R(23,30)                1.5271         calculate D2E/DX2 analytically  !
 ! R42   R(24,25)                1.4184         calculate D2E/DX2 analytically  !
 ! R43   R(24,27)                1.4317         calculate D2E/DX2 analytically  !
 ! R44   R(25,26)                1.3559         calculate D2E/DX2 analytically  !
 ! R45   R(25,40)                1.084          calculate D2E/DX2 analytically  !
 ! R46   R(26,39)                1.0842         calculate D2E/DX2 analytically  !
 ! R47   R(27,28)                1.358          calculate D2E/DX2 analytically  !
 ! R48   R(27,41)                1.0874         calculate D2E/DX2 analytically  !
 ! R49   R(28,29)                1.4259         calculate D2E/DX2 analytically  !
 ! R50   R(28,42)                1.0863         calculate D2E/DX2 analytically  !
 ! R51   R(29,30)                1.4653         calculate D2E/DX2 analytically  !
 ! R52   R(30,43)                1.2            calculate D2E/DX2 analytically  !
 ! A1    A(2,1,4)              106.6175         calculate D2E/DX2 analytically  !
 ! A2    A(2,1,13)             134.449          calculate D2E/DX2 analytically  !
 ! A3    A(4,1,13)             118.7278         calculate D2E/DX2 analytically  !
 ! A4    A(1,2,3)              106.1657         calculate D2E/DX2 analytically  !
 ! A5    A(1,2,16)             133.4763         calculate D2E/DX2 analytically  !
 ! A6    A(3,2,16)             119.7589         calculate D2E/DX2 analytically  !
 ! A7    A(2,3,5)              109.7864         calculate D2E/DX2 analytically  !
 ! A8    A(2,3,10)             127.9944         calculate D2E/DX2 analytically  !
 ! A9    A(5,3,10)             121.5726         calculate D2E/DX2 analytically  !
 ! A10   A(1,4,5)              109.2819         calculate D2E/DX2 analytically  !
 ! A11   A(1,4,6)              127.8076         calculate D2E/DX2 analytically  !
 ! A12   A(5,4,6)              122.4324         calculate D2E/DX2 analytically  !
 ! A13   A(3,5,4)              108.1412         calculate D2E/DX2 analytically  !
 ! A14   A(3,5,9)              125.8692         calculate D2E/DX2 analytically  !
 ! A15   A(4,5,9)              125.3198         calculate D2E/DX2 analytically  !
 ! A16   A(4,6,7)              114.2218         calculate D2E/DX2 analytically  !
 ! A17   A(4,6,15)             112.9423         calculate D2E/DX2 analytically  !
 ! A18   A(7,6,15)             132.7226         calculate D2E/DX2 analytically  !
 ! A19   A(6,7,8)              122.6066         calculate D2E/DX2 analytically  !
 ! A20   A(6,7,32)             119.1494         calculate D2E/DX2 analytically  !
 ! A21   A(8,7,32)             118.2234         calculate D2E/DX2 analytically  !
 ! A22   A(7,8,9)              121.834          calculate D2E/DX2 analytically  !
 ! A23   A(7,8,33)             118.3675         calculate D2E/DX2 analytically  !
 ! A24   A(9,8,33)             119.7802         calculate D2E/DX2 analytically  !
 ! A25   A(5,9,8)              113.4716         calculate D2E/DX2 analytically  !
 ! A26   A(5,9,12)             113.3001         calculate D2E/DX2 analytically  !
 ! A27   A(8,9,12)             133.0998         calculate D2E/DX2 analytically  !
 ! A28   A(3,10,11)            114.4607         calculate D2E/DX2 analytically  !
 ! A29   A(3,10,18)            113.2321         calculate D2E/DX2 analytically  !
 ! A30   A(11,10,18)           132.1445         calculate D2E/DX2 analytically  !
 ! A31   A(10,11,12)           122.6913         calculate D2E/DX2 analytically  !
 ! A32   A(10,11,35)           118.8183         calculate D2E/DX2 analytically  !
 ! A33   A(12,11,35)           118.4665         calculate D2E/DX2 analytically  !
 ! A34   A(9,12,11)            121.9181         calculate D2E/DX2 analytically  !
 ! A35   A(9,12,34)            119.6079         calculate D2E/DX2 analytically  !
 ! A36   A(11,12,34)           118.4547         calculate D2E/DX2 analytically  !
 ! A37   A(1,13,14)            115.7433         calculate D2E/DX2 analytically  !
 ! A38   A(1,13,30)            122.0701         calculate D2E/DX2 analytically  !
 ! A39   A(14,13,30)           122.1214         calculate D2E/DX2 analytically  !
 ! A40   A(13,14,15)           124.2124         calculate D2E/DX2 analytically  !
 ! A41   A(13,14,44)           116.7725         calculate D2E/DX2 analytically  !
 ! A42   A(15,14,44)           119.0091         calculate D2E/DX2 analytically  !
 ! A43   A(6,15,14)            120.45           calculate D2E/DX2 analytically  !
 ! A44   A(6,15,31)            120.8174         calculate D2E/DX2 analytically  !
 ! A45   A(14,15,31)           118.7319         calculate D2E/DX2 analytically  !
 ! A46   A(2,16,17)            114.1686         calculate D2E/DX2 analytically  !
 ! A47   A(2,16,19)            123.6977         calculate D2E/DX2 analytically  !
 ! A48   A(17,16,19)           122.1141         calculate D2E/DX2 analytically  !
 ! A49   A(16,17,18)           123.644          calculate D2E/DX2 analytically  !
 ! A50   A(16,17,22)           118.205          calculate D2E/DX2 analytically  !
 ! A51   A(18,17,22)           118.1054         calculate D2E/DX2 analytically  !
 ! A52   A(10,18,17)           121.1319         calculate D2E/DX2 analytically  !
 ! A53   A(10,18,36)           121.2123         calculate D2E/DX2 analytically  !
 ! A54   A(17,18,36)           117.6117         calculate D2E/DX2 analytically  !
 ! A55   A(16,19,20)           114.7218         calculate D2E/DX2 analytically  !
 ! A56   A(16,19,23)           126.945          calculate D2E/DX2 analytically  !
 ! A57   A(20,19,23)           118.3198         calculate D2E/DX2 analytically  !
 ! A58   A(19,20,21)           122.0463         calculate D2E/DX2 analytically  !
 ! A59   A(19,20,26)           121.7915         calculate D2E/DX2 analytically  !
 ! A60   A(21,20,26)           116.1605         calculate D2E/DX2 analytically  !
 ! A61   A(20,21,22)           122.4383         calculate D2E/DX2 analytically  !
 ! A62   A(20,21,38)           117.2817         calculate D2E/DX2 analytically  !
 ! A63   A(22,21,38)           120.2785         calculate D2E/DX2 analytically  !
 ! A64   A(17,22,21)           120.4643         calculate D2E/DX2 analytically  !
 ! A65   A(17,22,37)           118.8633         calculate D2E/DX2 analytically  !
 ! A66   A(21,22,37)           120.6672         calculate D2E/DX2 analytically  !
 ! A67   A(19,23,24)           116.599          calculate D2E/DX2 analytically  !
 ! A68   A(19,23,30)           131.8789         calculate D2E/DX2 analytically  !
 ! A69   A(24,23,30)           111.5124         calculate D2E/DX2 analytically  !
 ! A70   A(23,24,25)           122.1281         calculate D2E/DX2 analytically  !
 ! A71   A(23,24,27)           122.7622         calculate D2E/DX2 analytically  !
 ! A72   A(25,24,27)           114.9662         calculate D2E/DX2 analytically  !
 ! A73   A(24,25,26)           120.5713         calculate D2E/DX2 analytically  !
 ! A74   A(24,25,40)           118.4298         calculate D2E/DX2 analytically  !
 ! A75   A(26,25,40)           120.974          calculate D2E/DX2 analytically  !
 ! A76   A(20,26,25)           120.1746         calculate D2E/DX2 analytically  !
 ! A77   A(20,26,39)           118.8134         calculate D2E/DX2 analytically  !
 ! A78   A(25,26,39)           120.9834         calculate D2E/DX2 analytically  !
 ! A79   A(24,27,28)           122.46           calculate D2E/DX2 analytically  !
 ! A80   A(24,27,41)           116.6159         calculate D2E/DX2 analytically  !
 ! A81   A(28,27,41)           120.8753         calculate D2E/DX2 analytically  !
 ! A82   A(27,28,29)           121.1581         calculate D2E/DX2 analytically  !
 ! A83   A(27,28,42)           120.3446         calculate D2E/DX2 analytically  !
 ! A84   A(29,28,42)           118.4236         calculate D2E/DX2 analytically  !
 ! A85   A(28,29,30)           116.5514         calculate D2E/DX2 analytically  !
 ! A86   A(13,30,23)           125.4745         calculate D2E/DX2 analytically  !
 ! A87   A(13,30,29)           110.8972         calculate D2E/DX2 analytically  !
 ! A88   A(13,30,43)           102.843          calculate D2E/DX2 analytically  !
 ! A89   A(23,30,29)           122.8126         calculate D2E/DX2 analytically  !
 ! A90   A(23,30,43)           108.6564         calculate D2E/DX2 analytically  !
 ! A91   A(29,30,43)            63.0149         calculate D2E/DX2 analytically  !
 ! D1    D(4,1,2,3)              0.79           calculate D2E/DX2 analytically  !
 ! D2    D(4,1,2,16)          -169.9668         calculate D2E/DX2 analytically  !
 ! D3    D(13,1,2,3)           175.294          calculate D2E/DX2 analytically  !
 ! D4    D(13,1,2,16)            4.5372         calculate D2E/DX2 analytically  !
 ! D5    D(2,1,4,5)             -0.867          calculate D2E/DX2 analytically  !
 ! D6    D(2,1,4,6)            171.2623         calculate D2E/DX2 analytically  !
 ! D7    D(13,1,4,5)          -176.3952         calculate D2E/DX2 analytically  !
 ! D8    D(13,1,4,6)            -4.2658         calculate D2E/DX2 analytically  !
 ! D9    D(2,1,13,14)         -172.1705         calculate D2E/DX2 analytically  !
 ! D10   D(2,1,13,30)           10.71           calculate D2E/DX2 analytically  !
 ! D11   D(4,1,13,14)            1.822          calculate D2E/DX2 analytically  !
 ! D12   D(4,1,13,30)         -175.2974         calculate D2E/DX2 analytically  !
 ! D13   D(1,2,3,5)             -0.4381         calculate D2E/DX2 analytically  !
 ! D14   D(1,2,3,10)          -171.2182         calculate D2E/DX2 analytically  !
 ! D15   D(16,2,3,5)           171.8457         calculate D2E/DX2 analytically  !
 ! D16   D(16,2,3,10)            1.0657         calculate D2E/DX2 analytically  !
 ! D17   D(1,2,16,17)          170.922          calculate D2E/DX2 analytically  !
 ! D18   D(1,2,16,19)           -7.4931         calculate D2E/DX2 analytically  !
 ! D19   D(3,2,16,17)            1.1584         calculate D2E/DX2 analytically  !
 ! D20   D(3,2,16,19)         -177.2567         calculate D2E/DX2 analytically  !
 ! D21   D(2,3,5,4)             -0.0903         calculate D2E/DX2 analytically  !
 ! D22   D(2,3,5,9)           -171.0813         calculate D2E/DX2 analytically  !
 ! D23   D(10,3,5,4)           171.3867         calculate D2E/DX2 analytically  !
 ! D24   D(10,3,5,9)             0.3957         calculate D2E/DX2 analytically  !
 ! D25   D(2,3,10,11)          173.0512         calculate D2E/DX2 analytically  !
 ! D26   D(2,3,10,18)           -2.8855         calculate D2E/DX2 analytically  !
 ! D27   D(5,3,10,11)            3.2439         calculate D2E/DX2 analytically  !
 ! D28   D(5,3,10,18)         -172.6928         calculate D2E/DX2 analytically  !
 ! D29   D(1,4,5,3)              0.6088         calculate D2E/DX2 analytically  !
 ! D30   D(1,4,5,9)            171.6619         calculate D2E/DX2 analytically  !
 ! D31   D(6,4,5,3)           -172.0266         calculate D2E/DX2 analytically  !
 ! D32   D(6,4,5,9)             -0.9734         calculate D2E/DX2 analytically  !
 ! D33   D(1,4,6,7)           -173.2088         calculate D2E/DX2 analytically  !
 ! D34   D(1,4,6,15)             3.4232         calculate D2E/DX2 analytically  !
 ! D35   D(5,4,6,7)             -2.0179         calculate D2E/DX2 analytically  !
 ! D36   D(5,4,6,15)           174.6141         calculate D2E/DX2 analytically  !
 ! D37   D(3,5,9,8)            172.761          calculate D2E/DX2 analytically  !
 ! D38   D(3,5,9,12)            -3.6689         calculate D2E/DX2 analytically  !
 ! D39   D(4,5,9,8)              3.269          calculate D2E/DX2 analytically  !
 ! D40   D(4,5,9,12)          -173.1608         calculate D2E/DX2 analytically  !
 ! D41   D(4,6,7,8)              2.5406         calculate D2E/DX2 analytically  !
 ! D42   D(4,6,7,32)          -179.1387         calculate D2E/DX2 analytically  !
 ! D43   D(15,6,7,8)          -173.2361         calculate D2E/DX2 analytically  !
 ! D44   D(15,6,7,32)            5.0845         calculate D2E/DX2 analytically  !
 ! D45   D(4,6,15,14)           -0.4789         calculate D2E/DX2 analytically  !
 ! D46   D(4,6,15,31)          179.8188         calculate D2E/DX2 analytically  !
 ! D47   D(7,6,15,14)          175.3389         calculate D2E/DX2 analytically  !
 ! D48   D(7,6,15,31)           -4.3634         calculate D2E/DX2 analytically  !
 ! D49   D(6,7,8,9)             -0.2036         calculate D2E/DX2 analytically  !
 ! D50   D(6,7,8,33)           178.2351         calculate D2E/DX2 analytically  !
 ! D51   D(32,7,8,9)          -178.539          calculate D2E/DX2 analytically  !
 ! D52   D(32,7,8,33)           -0.1003         calculate D2E/DX2 analytically  !
 ! D53   D(7,8,9,5)             -2.6222         calculate D2E/DX2 analytically  !
 ! D54   D(7,8,9,12)           172.8854         calculate D2E/DX2 analytically  !
 ! D55   D(33,8,9,5)           178.9606         calculate D2E/DX2 analytically  !
 ! D56   D(33,8,9,12)           -5.5318         calculate D2E/DX2 analytically  !
 ! D57   D(5,9,12,11)            3.2595         calculate D2E/DX2 analytically  !
 ! D58   D(5,9,12,34)         -178.3641         calculate D2E/DX2 analytically  !
 ! D59   D(8,9,12,11)         -172.2539         calculate D2E/DX2 analytically  !
 ! D60   D(8,9,12,34)            6.1225         calculate D2E/DX2 analytically  !
 ! D61   D(3,10,11,12)          -3.529          calculate D2E/DX2 analytically  !
 ! D62   D(3,10,11,35)         178.2808         calculate D2E/DX2 analytically  !
 ! D63   D(18,10,11,12)        171.4329         calculate D2E/DX2 analytically  !
 ! D64   D(18,10,11,35)         -6.7573         calculate D2E/DX2 analytically  !
 ! D65   D(3,10,18,17)           2.438          calculate D2E/DX2 analytically  !
 ! D66   D(3,10,18,36)         179.9656         calculate D2E/DX2 analytically  !
 ! D67   D(11,10,18,17)       -172.5716         calculate D2E/DX2 analytically  !
 ! D68   D(11,10,18,36)          4.956          calculate D2E/DX2 analytically  !
 ! D69   D(10,11,12,9)           0.2455         calculate D2E/DX2 analytically  !
 ! D70   D(10,11,12,34)       -178.149          calculate D2E/DX2 analytically  !
 ! D71   D(35,11,12,9)         178.4417         calculate D2E/DX2 analytically  !
 ! D72   D(35,11,12,34)          0.0472         calculate D2E/DX2 analytically  !
 ! D73   D(1,13,14,15)           0.8035         calculate D2E/DX2 analytically  !
 ! D74   D(1,13,14,44)        -178.2961         calculate D2E/DX2 analytically  !
 ! D75   D(30,13,14,15)        177.9213         calculate D2E/DX2 analytically  !
 ! D76   D(30,13,14,44)         -1.1783         calculate D2E/DX2 analytically  !
 ! D77   D(1,13,30,23)         -15.6328         calculate D2E/DX2 analytically  !
 ! D78   D(1,13,30,29)         154.216          calculate D2E/DX2 analytically  !
 ! D79   D(1,13,30,43)        -140.0596         calculate D2E/DX2 analytically  !
 ! D80   D(14,13,30,23)        167.431          calculate D2E/DX2 analytically  !
 ! D81   D(14,13,30,29)        -22.7202         calculate D2E/DX2 analytically  !
 ! D82   D(14,13,30,43)         43.0043         calculate D2E/DX2 analytically  !
 ! D83   D(13,14,15,6)          -1.5224         calculate D2E/DX2 analytically  !
 ! D84   D(13,14,15,31)        178.1861         calculate D2E/DX2 analytically  !
 ! D85   D(44,14,15,6)         177.5585         calculate D2E/DX2 analytically  !
 ! D86   D(44,14,15,31)         -2.733          calculate D2E/DX2 analytically  !
 ! D87   D(2,16,17,18)          -1.4359         calculate D2E/DX2 analytically  !
 ! D88   D(2,16,17,22)        -178.9321         calculate D2E/DX2 analytically  !
 ! D89   D(19,16,17,18)        177.0074         calculate D2E/DX2 analytically  !
 ! D90   D(19,16,17,22)         -0.4889         calculate D2E/DX2 analytically  !
 ! D91   D(2,16,19,20)         178.0722         calculate D2E/DX2 analytically  !
 ! D92   D(2,16,19,23)          -3.2935         calculate D2E/DX2 analytically  !
 ! D93   D(17,16,19,20)         -0.2206         calculate D2E/DX2 analytically  !
 ! D94   D(17,16,19,23)        178.4136         calculate D2E/DX2 analytically  !
 ! D95   D(16,17,18,10)         -0.4635         calculate D2E/DX2 analytically  !
 ! D96   D(16,17,18,36)       -178.0773         calculate D2E/DX2 analytically  !
 ! D97   D(22,17,18,10)        177.035          calculate D2E/DX2 analytically  !
 ! D98   D(22,17,18,36)         -0.5787         calculate D2E/DX2 analytically  !
 ! D99   D(16,17,22,21)          1.1548         calculate D2E/DX2 analytically  !
 ! D100  D(16,17,22,37)       -179.6712         calculate D2E/DX2 analytically  !
 ! D101  D(18,17,22,21)       -176.4823         calculate D2E/DX2 analytically  !
 ! D102  D(18,17,22,37)          2.6918         calculate D2E/DX2 analytically  !
 ! D103  D(16,19,20,21)          0.3168         calculate D2E/DX2 analytically  !
 ! D104  D(16,19,20,26)        179.8124         calculate D2E/DX2 analytically  !
 ! D105  D(23,19,20,21)       -178.4433         calculate D2E/DX2 analytically  !
 ! D106  D(23,19,20,26)          1.0523         calculate D2E/DX2 analytically  !
 ! D107  D(16,19,23,24)       -174.1554         calculate D2E/DX2 analytically  !
 ! D108  D(16,19,23,30)          7.0932         calculate D2E/DX2 analytically  !
 ! D109  D(20,19,23,24)          4.4353         calculate D2E/DX2 analytically  !
 ! D110  D(20,19,23,30)       -174.316          calculate D2E/DX2 analytically  !
 ! D111  D(19,20,21,22)          0.3422         calculate D2E/DX2 analytically  !
 ! D112  D(19,20,21,38)        179.8951         calculate D2E/DX2 analytically  !
 ! D113  D(26,20,21,22)       -179.1802         calculate D2E/DX2 analytically  !
 ! D114  D(26,20,21,38)          0.3727         calculate D2E/DX2 analytically  !
 ! D115  D(19,20,26,25)         -4.0149         calculate D2E/DX2 analytically  !
 ! D116  D(19,20,26,39)        177.9085         calculate D2E/DX2 analytically  !
 ! D117  D(21,20,26,25)        175.5088         calculate D2E/DX2 analytically  !
 ! D118  D(21,20,26,39)         -2.5678         calculate D2E/DX2 analytically  !
 ! D119  D(20,21,22,17)         -1.1074         calculate D2E/DX2 analytically  !
 ! D120  D(20,21,22,37)        179.7335         calculate D2E/DX2 analytically  !
 ! D121  D(38,21,22,17)        179.3527         calculate D2E/DX2 analytically  !
 ! D122  D(38,21,22,37)          0.1936         calculate D2E/DX2 analytically  !
 ! D123  D(19,23,24,25)         -7.4076         calculate D2E/DX2 analytically  !
 ! D124  D(19,23,24,27)        168.0168         calculate D2E/DX2 analytically  !
 ! D125  D(30,23,24,25)        171.5931         calculate D2E/DX2 analytically  !
 ! D126  D(30,23,24,27)        -12.9825         calculate D2E/DX2 analytically  !
 ! D127  D(19,23,30,13)          4.9994         calculate D2E/DX2 analytically  !
 ! D128  D(19,23,30,29)       -163.7026         calculate D2E/DX2 analytically  !
 ! D129  D(19,23,30,43)        126.9162         calculate D2E/DX2 analytically  !
 ! D130  D(24,23,30,13)       -173.8005         calculate D2E/DX2 analytically  !
 ! D131  D(24,23,30,29)         17.4974         calculate D2E/DX2 analytically  !
 ! D132  D(24,23,30,43)        -51.8837         calculate D2E/DX2 analytically  !
 ! D133  D(23,24,25,26)          4.7479         calculate D2E/DX2 analytically  !
 ! D134  D(23,24,25,40)       -177.0501         calculate D2E/DX2 analytically  !
 ! D135  D(27,24,25,26)       -171.0085         calculate D2E/DX2 analytically  !
 ! D136  D(27,24,25,40)          7.1936         calculate D2E/DX2 analytically  !
 ! D137  D(23,24,27,28)         -0.5846         calculate D2E/DX2 analytically  !
 ! D138  D(23,24,27,41)       -178.0649         calculate D2E/DX2 analytically  !
 ! D139  D(25,24,27,28)        175.1417         calculate D2E/DX2 analytically  !
 ! D140  D(25,24,27,41)         -2.3386         calculate D2E/DX2 analytically  !
 ! D141  D(24,25,26,20)          1.1517         calculate D2E/DX2 analytically  !
 ! D142  D(24,25,26,39)        179.1859         calculate D2E/DX2 analytically  !
 ! D143  D(40,25,26,20)       -177.0042         calculate D2E/DX2 analytically  !
 ! D144  D(40,25,26,39)          1.03           calculate D2E/DX2 analytically  !
 ! D145  D(24,27,28,29)         11.6164         calculate D2E/DX2 analytically  !
 ! D146  D(24,27,28,42)       -171.5552         calculate D2E/DX2 analytically  !
 ! D147  D(41,27,28,29)       -171.0084         calculate D2E/DX2 analytically  !
 ! D148  D(41,27,28,42)          5.82           calculate D2E/DX2 analytically  !
 ! D149  D(27,28,29,30)         -6.7213         calculate D2E/DX2 analytically  !
 ! D150  D(42,28,29,30)        176.3909         calculate D2E/DX2 analytically  !
 ! D151  D(28,29,30,13)       -178.583          calculate D2E/DX2 analytically  !
 ! D152  D(28,29,30,23)         -8.4161         calculate D2E/DX2 analytically  !
 ! D153  D(28,29,30,43)         87.2545         calculate D2E/DX2 analytically  !
 --------------------------------------------------------------------------------
 Trust Radius=3.00D-01 FncErr=1.00D-07 GrdErr=1.00D-06 EigMax=2.50D+02 EigMin=1.00D-04
 Number of steps in this run=    264 maximum allowed number of steps=    264.
 Search for a saddle point of order  1.
 GradGradGradGradGradGradGradGradGradGradGradGradGradGradGradGradGradGrad

                          Input orientation:                          
 ---------------------------------------------------------------------
 Center     Atomic      Atomic             Coordinates (Angstroms)
 Number     Number       Type             X           Y           Z
 ---------------------------------------------------------------------
      1          6           0       -0.692607   -0.936677    0.100244
      2          6           0       -0.530772    0.515957    0.204434
      3          6           0       -1.830221    1.051114    0.270437
      4          6           0       -2.086125   -1.189339    0.091102
      5          6           0       -2.772981    0.017016    0.202974
      6          6           0       -2.728603   -2.388158   -0.157932
      7          6           0       -4.165455   -2.283137   -0.244340
      8          6           0       -4.836208   -1.068109   -0.140593
      9          6           0       -4.132963    0.173678    0.065895
     10          6           0       -2.209735    2.387432    0.209229
     11          6           0       -3.646827    2.603141    0.146832
     12          6           0       -4.555347    1.563907    0.076792
     13          6           0        0.165557   -1.984331   -0.074923
     14          6           0       -0.451271   -3.268968   -0.296967
     15          6           0       -1.821436   -3.476640   -0.354702
     16          6           0        0.557578    1.365273    0.083150
     17          6           0        0.209156    2.786630    0.062944
     18          6           0       -1.120286    3.269432    0.128433
     19          6           0        1.943885    0.899218   -0.051308
     20          6           0        2.912148    1.939769   -0.206816
     21          6           0        2.544013    3.325935   -0.221262
     22          6           0        1.263645    3.737779   -0.082581
     23          6           0        2.414651   -0.489143   -0.013364
     24          6           0        3.833012   -0.686236   -0.038305
     25          6           0        4.739631    0.383651   -0.251030
     26          6           0        4.290766    1.659609   -0.344831
     27          6           0        4.444690   -1.949935    0.242311
     28          6           0        3.722339   -3.053738    0.564742
     29          6           0        2.305730   -3.080980    0.404956
     30          6           0        1.665045   -1.819100    0.025125
     31          1           0       -2.189315   -4.477430   -0.556277
     32          1           0       -4.751171   -3.179085   -0.423622
     33          1           0       -5.916464   -1.064948   -0.244626
     34          1           0       -5.611123    1.804162    0.002213
     35          1           0       -4.022566    3.620985    0.125466
     36          1           0       -1.268784    4.343282    0.073971
     37          1           0        1.018080    4.794078   -0.093484
     38          1           0        3.341424    4.050731   -0.342096
     39          1           0        4.979062    2.483822   -0.494291
     40          1           0        5.798656    0.159321   -0.306709
     41          1           0        5.531557   -1.979183    0.226953
     42          1           0        4.221909   -3.956833    0.903665
     43          1           0        2.069986   -2.513916   -0.865580
     44          1           0        0.212688   -4.115280   -0.409470
 ---------------------------------------------------------------------
                    Distance matrix (angstroms):
                    1          2          3          4          5
     1  C    0.000000
     2  C    1.465330   0.000000
     3  C    2.296616   1.406882   0.000000
     4  C    1.416268   2.310844   2.262140   0.000000
     5  C    2.290860   2.297051   1.400966   1.392688   0.000000
     6  C    2.513709   3.660007   3.580389   1.382737   2.432506
     7  C    3.740637   4.609473   4.103114   2.373295   2.725762
     8  C    4.152675   4.600553   3.700812   2.762487   2.356362
     9  C    3.615262   3.621067   2.472722   2.459267   1.375821
    10  C    3.655579   2.514231   1.390512   3.580855   2.436423
    11  C    4.610846   3.750927   2.392514   4.101439   2.730348
    12  C    4.601547   4.160733   2.779706   3.698327   2.363392
    13  C    1.365543   2.610432   3.649155   2.393668   3.566178
    14  C    2.378151   3.818819   4.570181   2.673612   4.054377
    15  C    2.816495   4.233117   4.570715   2.345325   3.663615
    16  C    2.619586   1.385840   2.415648   3.676312   3.595105
    17  C    3.831133   2.392377   2.685913   4.591017   4.072286
    18  C    4.227890   2.816900   2.333475   4.562332   3.648995
    19  C    3.216297   2.517185   3.790840   4.541292   4.805389
    20  C    4.621957   3.748342   4.848458   5.904473   6.015447
    21  C    5.361803   4.187063   4.954846   6.474832   6.276890
    22  C    5.070590   3.698979   4.112760   5.960505   5.497269
    23  C    3.141376   3.119804   4.524585   4.556114   5.216754
    24  C    4.534660   4.532858   5.931772   5.941889   6.647701
    25  C    5.601417   5.291701   6.624228   7.013009   7.535243
    26  C    5.636737   4.985666   6.181853   6.997948   7.272876
    27  C    5.238196   5.553132   6.955688   6.576695   7.480990
    28  C    4.918278   5.564306   6.911393   6.118707   7.193719
    29  C    3.698771   4.585184   5.847939   4.792202   5.952452
    30  C    2.518499   3.210336   4.529370   3.804238   4.806145
    31  H    3.899755   5.316330   5.601536   3.352803   4.595343
    32  H    4.666344   5.644427   5.187316   3.365487   3.810632
    33  H    5.236800   5.630861   4.630377   3.847036   3.354471
    34  H    5.631484   5.245029   3.864485   4.625425   3.359947
    35  H    5.644603   4.673335   3.381069   5.185576   3.815241
    36  H    5.311369   3.900013   3.345472   5.592695   4.582120
    37  H    5.983773   4.559607   4.717524   6.743251   6.105764
    38  H    6.429876   5.271359   6.009893   7.556738   7.345332
    39  H    6.649896   5.892281   7.000271   7.984464   8.164893
    40  H    6.595704   6.360041   7.702477   8.009177   8.587956
    41  H    6.312138   6.555766   7.961179   7.659725   8.541120
    42  H    5.824027   6.563745   7.880913   6.936179   8.075328
    43  H    3.324518   4.133885   5.404775   4.465759   5.567922
    44  H    3.344082   4.730536   5.597087   3.754497   5.134703
                    6          7          8          9         10
     6  C    0.000000
     7  C    1.443274   0.000000
     8  C    2.486932   1.391749   0.000000
     9  C    2.930073   2.476538   1.441952   0.000000
    10  C    4.817706   5.083776   4.354480   2.935993   0.000000
    11  C    5.084199   4.929270   3.869795   2.478945   1.454530
    12  C    4.360150   3.880063   2.655870   1.453019   2.489504
    13  C    2.923376   4.344612   5.085413   4.811871   4.983479
    14  C    2.445690   3.843149   4.908758   5.053547   5.945022
    15  C    1.430547   2.632690   3.864675   4.341069   5.903908
    16  C    4.994532   5.977055   5.921515   4.839563   2.952749
    17  C    5.954632   6.703296   6.352648   5.067694   2.455971
    18  C    5.888719   6.343740   5.717929   4.320165   1.404048
    19  C    5.714049   6.891203   7.060312   6.121130   4.419866
    20  C    7.109952   8.241772   8.311963   7.268221   5.158215
    21  C    7.775304   8.745238   8.589633   7.389262   4.864589
    22  C    7.312375   8.108805   7.765831   6.469021   3.738042
    23  C    5.484544   6.824189   7.275049   6.581555   5.450613
    24  C    6.779796   8.158923   8.678229   8.012931   6.784062
    25  C    7.966562   9.295825   9.685892   8.880735   7.247114
    26  C    8.104992   9.330757   9.528054   8.563638   6.564543
    27  C    7.197803   8.630322   9.330557   8.838381   7.943250
    28  C    6.525328   7.966538   8.814133   8.507105   8.057433
    29  C    5.112862   6.552433   7.440198   7.222502   7.094453
    30  C    4.434127   5.855141   6.546582   6.131046   5.722126
    31  H    2.194212   2.969403   4.336163   5.079141   6.907441
    32  H    2.187907   1.085324   2.131562   3.444246   6.151870
    33  H    3.452660   2.133077   1.085258   2.193512   5.085740
    34  H    5.090198   4.342437   2.978393   2.201702   3.457239
    35  H    6.153410   5.917418   4.766592   3.449589   2.194317
    36  H    6.891817   7.238885   6.485037   5.058575   2.174634
    37  H    8.101006   8.773754   8.284935   6.921470   4.037619
    38  H    8.850900   9.822458   9.649704   8.429974   5.821159
    39  H    9.124551  10.315453  10.444177   9.416983   7.223783
    40  H    8.900895  10.259288  10.706751   9.938616   8.328565
    41  H    8.279229   9.713215  10.414206   9.902712   8.887927
    42  H    7.203981   8.629429   9.564763   9.357717   9.060794
    43  H    4.852117   6.270560   7.093059   6.824030   6.595031
    44  H    3.420148   4.748911   5.903295   6.124199   6.966792
                   11         12         13         14         15
    11  C    0.000000
    12  C    1.382144   0.000000
    13  C    5.968949   5.907618   0.000000
    14  C    6.700015   6.351363   1.442246   0.000000
    15  C    6.367678   5.750441   2.500681   1.387016   0.000000
    16  C    4.383309   5.116786   3.376169   4.757989   5.412536
    17  C    3.861258   4.918916   4.773152   6.102128   6.597445
    18  C    2.612985   3.835509   5.412649   6.586290   6.799597
    19  C    5.847963   6.534389   3.387899   4.813616   5.780815
    20  C    6.601915   7.482325   4.791630   6.200940   7.194871
    21  C    6.243751   7.320826   5.820429   7.243632   8.083933
    22  C    5.045074   6.213838   5.826525   7.216745   7.851090
    23  C    6.806570   7.266637   2.701444   4.002670   5.194813
    24  C    8.173265   8.685675   3.890581   5.009241   6.313418
    25  C    8.684302   9.375345   5.153689   6.347377   7.613159
    26  C    8.008581   8.856672   5.510762   6.839596   7.983744
    27  C    9.285056   9.663082   4.291014   5.099128   6.477005
    28  C    9.299437   9.491092   3.768753   4.267070   5.635394
    29  C    8.234610   8.291987   2.452196   2.851156   4.215107
    30  C    6.912815   7.081009   1.511878   2.585470   3.879079
    31  H    7.263139   6.518944   3.463043   2.132702   1.085149
    32  H    5.914316   4.773336   5.071809   4.302704   2.945613
    33  H    4.331209   2.977722   6.153458   5.893113   4.753696
    34  H    2.125498   1.085333   6.908593   7.242253   6.509684
    35  H    1.085192   2.125510   7.000007   7.772004   7.446598
    36  H    2.947624   4.304234   6.489853   7.665003   7.851138
    37  H    5.159391   6.444074   6.831835   8.198360   8.748478
    38  H    7.153336   8.289677   6.824917   8.244062   9.127793
    39  H    8.650505   9.595694   6.581040   7.913409   9.043968
    40  H    9.767042  10.455875   6.031648   7.128453   8.443241
    41  H   10.258989  10.692131   5.374487   6.142660   7.526434
    42  H   10.272442  10.402044   4.615451   4.873734   6.191615
    43  H    7.738941   7.836564   2.128955   2.692612   4.041163
    44  H    7.768044   7.431270   2.157565   1.081546   2.132726
                   16         17         18         19         20
    16  C    0.000000
    17  C    1.463578   0.000000
    18  C    2.538326   1.415911   0.000000
    19  C    1.468718   2.566060   3.878062   0.000000
    20  C    2.440927   2.845366   4.259216   1.429847   0.000000
    21  C    2.807630   2.413127   3.681381   2.505592   1.434290
    22  C    2.480883   1.427518   2.438648   2.919098   2.442506
    23  C    2.626194   3.949775   5.161664   1.466495   2.486874
    24  C    3.866770   5.020297   6.341157   2.466300   2.787882
    25  C    4.308692   5.137907   6.542962   2.849894   2.400657
    26  C    3.769150   4.253939   5.665244   2.484391   1.413551
    27  C    5.111318   6.356648   7.630447   3.802356   4.204783
    28  C    5.456675   6.834044   7.976457   4.378159   5.117306
    29  C    4.788399   6.240308   7.220927   4.022572   5.094107
    30  C    3.371955   4.830506   5.801888   2.733651   3.967135
    31  H    6.487794   7.674807   7.850192   6.800491   8.205333
    32  H    7.006484   7.773760   7.421015   7.848245   9.218250
    33  H    6.922906   7.242408   6.475287   8.104345   9.325993
    34  H    6.184824   5.902930   4.725523   7.609201   8.526912
    35  H    5.105658   4.313644   2.923496   6.560320   7.143330
    36  H    3.493454   2.146531   1.085436   4.711530   4.830725
    37  H    3.464097   2.169948   2.635603   4.003602   3.427451
    38  H    3.891313   3.401928   4.553974   3.459726   2.158411
    39  H    4.597185   4.811882   6.181182   3.452463   2.156564
    40  H    5.392143   6.187237   7.598283   3.933438   3.392919
    41  H    5.995543   7.146176   8.473764   4.608038   4.733671
    42  H    6.513477   7.891976   9.019919   5.448174   6.141544
    43  H    4.270313   5.693912   6.679297   3.511186   4.580231
    44  H    5.513446   6.918060   7.523306   5.317002   6.632629
                   21         22         23         24         25
    21  C    0.000000
    22  C    1.352106   0.000000
    23  C    3.822928   4.381378   0.000000
    24  C    4.218117   5.116201   1.432207   0.000000
    25  C    3.671329   4.833325   2.494752   1.418403   0.000000
    26  C    2.417242   3.681172   2.871726   2.409665   1.355857
    27  C    5.626924   6.524929   2.514029   1.431723   2.403331
    28  C    6.535020   7.251821   2.936222   2.445604   3.676413
    29  C    6.441854   6.915136   2.627637   2.874695   4.284607
    30  C    5.225388   5.572399   1.527146   2.446934   3.792289
    31  H    9.132860   8.923955   6.115365   7.135115   8.469568
    32  H    9.776295   9.172640   7.665057   8.947120  10.138945
    33  H    9.532055   8.639815   8.354191   9.759010  10.754108
    34  H    8.298914   7.142024   8.347008   9.767057  10.450842
    35  H    6.582343   5.291592   7.638730   8.960417   9.348699
    36  H    3.957219   2.608513   6.076813   7.164983   7.203149
    37  H    2.121378   1.084522   5.465277   6.161228   5.772922
    38  H    1.084341   2.117180   4.645151   4.772086   3.925653
    39  H    2.590977   3.942872   3.955504   3.401562   2.127727
    40  H    4.541745   5.781169   3.458041   2.156563   1.083955
    41  H    6.104965   7.141046   3.463102   2.151076   2.537439
    42  H    7.557745   8.302473   4.016466   3.425690   4.521190
    43  H    5.894379   6.351926   2.223684   2.670779   3.987552
    44  H    7.800140   7.929811   4.260799   5.000285   6.384254
                   26         27         28         29         30
    26  C    0.000000
    27  C    3.660224   0.000000
    28  C    4.833847   1.357989   0.000000
    29  C    5.193817   2.425050   1.425852   0.000000
    30  C    4.374094   2.791185   2.459263   1.465295   0.000000
    31  H    8.927452   7.143948   6.183141   4.804110   4.718139
    32  H   10.255525   9.301513   8.531878   7.106055   6.574098
    33  H   10.565074  10.410275   9.875064   8.490631   7.623699
    34  H    9.909023  10.736399  10.537037   9.311465   8.128418
    35  H    8.554511  10.136233  10.233692   9.221810   7.871055
    36  H    6.187576   8.501571   8.936894   8.246597   6.825298
    37  H    4.538562   7.572062   8.326734   7.995188   6.645807
    38  H    2.572688   6.129170   7.172233   7.245140   6.115555
    39  H    1.084166   4.526184   5.776286   6.238780   5.455973
    40  H    2.127451   2.565854   3.923553   4.817318   4.594671
    41  H    3.886812   1.087369   2.131206   3.413444   3.875084
    42  H    5.753947   2.124773   1.086287   2.165080   3.446634
    43  H    4.756191   2.680432   2.251111   1.411169   1.200042
    44  H    7.069953   4.798268   3.793891   2.472628   2.751483
                   31         32         33         34         35
    31  H    0.000000
    32  H    2.875135   0.000000
    33  H    5.062983   2.420645   0.000000
    34  H    7.174892   5.074801   2.895851   0.000000
    35  H    8.331261   6.861000   5.067720   2.416516   0.000000
    36  H    8.890981   8.304253   7.138024   5.030724   2.847399
    37  H    9.821528   9.847059   9.079589   7.272901   5.179981
    38  H   10.166832  10.852050  10.577720   9.236543   7.391322
    39  H    9.992422  11.258372  11.461614  10.623581   9.094314
    40  H    9.239558  11.066050  11.779080  11.531869  10.422394
    41  H    8.152702  10.372922  11.494146  11.769602  11.074902
    42  H    6.595926   9.103996  10.605102  11.431981  11.224985
    43  H    4.700287   6.867748   8.140545   8.854281   8.702780
    44  H    2.433582   5.051392   6.848226   8.314208   8.835911
                   36         37         38         39         40
    36  H    0.000000
    37  H    2.336879   0.000000
    38  H    4.638180   2.451999   0.000000
    39  H    6.543401   4.602967   2.271613   0.000000
    40  H    8.221871   6.661857   4.602425   2.471887   0.000000
    41  H    9.286636   8.145626   6.440525   4.554542   2.220211
    42  H    9.986391   9.372154   8.151580   6.633973   4.570980
    43  H    7.684485   7.423572   6.707099   5.794650   4.621852
    44  H    8.600915   8.951266   8.745128   8.140864   7.034615
                   41         42         43         44
    41  H    0.000000
    42  H    2.466620   0.000000
    43  H    3.669065   3.137357   0.000000
    44  H    5.767002   4.221763   2.494385   0.000000
 Stoichiometry    C30H14
 Framework group  C1[X(C30H14)]
 Deg. of freedom   126
 Full point group                 C1      NOp   1
 Largest Abelian subgroup         C1      NOp   1
 Largest concise Abelian subgroup C1      NOp   1
                         Standard orientation:                         
 ---------------------------------------------------------------------
 Center     Atomic      Atomic             Coordinates (Angstroms)
 Number     Number       Type             X           Y           Z
 ---------------------------------------------------------------------
      1          6           0       -0.692607   -0.936677    0.100244
      2          6           0       -0.530772    0.515957    0.204434
      3          6           0       -1.830221    1.051114    0.270437
      4          6           0       -2.086125   -1.189339    0.091102
      5          6           0       -2.772981    0.017016    0.202974
      6          6           0       -2.728603   -2.388158   -0.157932
      7          6           0       -4.165455   -2.283137   -0.244340
      8          6           0       -4.836208   -1.068109   -0.140593
      9          6           0       -4.132963    0.173678    0.065895
     10          6           0       -2.209735    2.387432    0.209229
     11          6           0       -3.646827    2.603141    0.146832
     12          6           0       -4.555347    1.563907    0.076792
     13          6           0        0.165557   -1.984331   -0.074923
     14          6           0       -0.451271   -3.268968   -0.296967
     15          6           0       -1.821436   -3.476640   -0.354702
     16          6           0        0.557578    1.365273    0.083150
     17          6           0        0.209156    2.786630    0.062944
     18          6           0       -1.120286    3.269432    0.128433
     19          6           0        1.943885    0.899218   -0.051308
     20          6           0        2.912148    1.939769   -0.206816
     21          6           0        2.544013    3.325935   -0.221262
     22          6           0        1.263645    3.737779   -0.082581
     23          6           0        2.414651   -0.489143   -0.013364
     24          6           0        3.833012   -0.686236   -0.038305
     25          6           0        4.739631    0.383651   -0.251030
     26          6           0        4.290766    1.659609   -0.344831
     27          6           0        4.444690   -1.949935    0.242311
     28          6           0        3.722339   -3.053738    0.564742
     29          6           0        2.305730   -3.080980    0.404956
     30          6           0        1.665045   -1.819100    0.025125
     31          1           0       -2.189315   -4.477430   -0.556277
     32          1           0       -4.751171   -3.179085   -0.423622
     33          1           0       -5.916464   -1.064948   -0.244626
     34          1           0       -5.611123    1.804162    0.002213
     35          1           0       -4.022566    3.620985    0.125466
     36          1           0       -1.268784    4.343282    0.073971
     37          1           0        1.018080    4.794078   -0.093484
     38          1           0        3.341424    4.050731   -0.342096
     39          1           0        4.979062    2.483822   -0.494291
     40          1           0        5.798656    0.159321   -0.306709
     41          1           0        5.531557   -1.979183    0.226953
     42          1           0        4.221909   -3.956833    0.903665
     43          1           0        2.069986   -2.513916   -0.865580
     44          1           0        0.212688   -4.115280   -0.409470
 ---------------------------------------------------------------------
 Rotational constants (GHZ):           0.2779451           0.1557876           0.1006257
 Standard basis: 6-311+G(d,p) (5D, 7F)
 There are   774 symmetry adapted cartesian basis functions of A   symmetry.
 There are   744 symmetry adapted basis functions of A   symmetry.
   744 basis functions,  1192 primitive gaussians,   774 cartesian basis functions
    97 alpha electrons       97 beta electrons
       nuclear repulsion energy      2572.3172341662 Hartrees.
 NAtoms=   44 NActive=   44 NUniq=   44 SFac= 1.00D+00 NAtFMM=   60 NAOKFM=F Big=F
 Integral buffers will be    131072 words long.
 Raffenetti 2 integral format.
 Two-electron integral symmetry is turned on.
 One-electron integrals computed using PRISM.
 NBasis=   744 RedAO= T EigKep=  1.05D-06  NBF=   744
 NBsUse=   721 1.00D-06 EigRej=  8.63D-07 NBFU=   721
 ExpMin= 4.38D-02 ExpMax= 4.56D+03 ExpMxC= 6.82D+02 IAcc=2 IRadAn=         4 AccDes= 0.00D+00
 Harris functional with IExCor=  402 and IRadAn=       4 diagonalized for initial guess.
 HarFok:  IExCor=  402 AccDes= 0.00D+00 IRadAn=         4 IDoV= 1 UseB2=F ITyADJ=14
 ICtDFT=  3500011 ScaDFX=  1.000000  1.000000  1.000000  1.000000
 FoFCou: FMM=F IPFlag=           0 FMFlag=      100000 FMFlg1=           0
         NFxFlg=           0 DoJE=T BraDBF=F KetDBF=T FulRan=T
         wScrn=  0.000000 ICntrl=       500 IOpCl=  0 I1Cent=   200000004 NGrid=           0
         NMat0=    1 NMatS0=      1 NMatT0=    0 NMatD0=    1 NMtDS0=    0 NMtDT0=    0
 Petite list used in FoFCou.
 Requested convergence on RMS density matrix=1.00D-08 within 128 cycles.
 Requested convergence on MAX density matrix=1.00D-06.
 Requested convergence on             energy=1.00D-06.
 No special actions if energy rises.
 SCF Done:  E(RB3LYP) =  -1151.78416505     A.U. after   17 cycles
            NFock= 17  Conv=0.77D-08     -V/T= 2.0044
 DoSCS=F DFT=T ScalE2(SS,OS)=  1.000000  1.000000
 Range of M.O.s used for correlation:     1   721
 NBasis=   744 NAE=    97 NBE=    97 NFC=     0 NFV=     0
 NROrb=    721 NOA=    97 NOB=    97 NVA=   624 NVB=   624

 **** Warning!!: The largest alpha MO coefficient is  0.13619000D+03

 Symmetrizing basis deriv contribution to polar:
 IMax=3 JMax=2 DiffMx= 0.00D+00
 G2DrvN: will do    45 centers at a time, making    1 passes.
 Calling FoFCou, ICntrl=  3107 FMM=F I1Cent=   0 AccDes= 0.00D+00.
 End of G2Drv F.D. properties file   721 does not exist.
 End of G2Drv F.D. properties file   722 does not exist.
 End of G2Drv F.D. properties file   788 does not exist.
          IDoAtm=11111111111111111111111111111111111111111111
          Differentiating once with respect to nuclear coordinates.
 CalDSu exits because no D1Ps are significant.
          There are   135 degrees of freedom in the 1st order CPHF.  IDoFFX=6 NUNeed=     0.
    129 vectors produced by pass  0 Test12= 6.05D-14 1.00D-09 XBig12= 2.84D-01 1.19D-01.
 AX will form   129 AO Fock derivatives at one time.
    129 vectors produced by pass  1 Test12= 6.05D-14 1.00D-09 XBig12= 8.76D-02 6.82D-02.
    129 vectors produced by pass  2 Test12= 6.05D-14 1.00D-09 XBig12= 1.03D-03 5.75D-03.
    129 vectors produced by pass  3 Test12= 6.05D-14 1.00D-09 XBig12= 8.59D-06 3.19D-04.
    129 vectors produced by pass  4 Test12= 6.05D-14 1.00D-09 XBig12= 2.95D-08 2.08D-05.
    129 vectors produced by pass  5 Test12= 6.05D-14 1.00D-09 XBig12= 1.32D-10 9.00D-07.
    110 vectors produced by pass  6 Test12= 6.05D-14 1.00D-09 XBig12= 2.29D-11 3.47D-07.
     81 vectors produced by pass  7 Test12= 6.05D-14 1.00D-09 XBig12= 3.96D-12 1.29D-07.
     42 vectors produced by pass  8 Test12= 6.05D-14 1.00D-09 XBig12= 1.97D-13 2.70D-08.
      3 vectors produced by pass  9 Test12= 6.05D-14 1.00D-09 XBig12= 1.20D-15 2.56D-09.
      2 vectors produced by pass 10 Test12= 6.05D-14 1.00D-09 XBig12= 4.28D-16 1.45D-09.
      2 vectors produced by pass 11 Test12= 6.05D-14 1.00D-09 XBig12= 6.62D-16 1.57D-09.
 InvSVY:  IOpt=1 It=  1 EMax= 7.77D-16
 Solved reduced A of dimension  1014 with   135 vectors.
 End of Minotr F.D. properties file   721 does not exist.
 End of Minotr F.D. properties file   722 does not exist.
 End of Minotr F.D. properties file   788 does not exist.

 **********************************************************************

            Population analysis using the SCF Density.

 **********************************************************************

 Orbital symmetries:
       Occupied  (A) (A) (A) (A) (A) (A) (A) (A) (A) (A) (A) (A)
                 (A) (A) (A) (A) (A) (A) (A) (A) (A) (A) (A) (A)
                 (A) (A) (A) (A) (A) (A) (A) (A) (A) (A) (A) (A)
                 (A) (A) (A) (A) (A) (A) (A) (A) (A) (A) (A) (A)
                 (A) (A) (A) (A) (A) (A) (A) (A) (A) (A) (A) (A)
                 (A) (A) (A) (A) (A) (A) (A) (A) (A) (A) (A) (A)
                 (A) (A) (A) (A) (A) (A) (A) (A) (A) (A) (A) (A)
                 (A) (A) (A) (A) (A) (A) (A) (A) (A) (A) (A) (A)
                 (A)
       Virtual   (A) (A) (A) (A) (A) (A) (A) (A) (A) (A) (A) (A)
                 (A) (A) (A) (A) (A) (A) (A) (A) (A) (A) (A) (A)
                 (A) (A) (A) (A) (A) (A) (A) (A) (A) (A) (A) (A)
                 (A) (A) (A) (A) (A) (A) (A) (A) (A) (A) (A) (A)
                 (A) (A) (A) (A) (A) (A) (A) (A) (A) (A) (A) (A)
                 (A) (A) (A) (A) (A) (A) (A) (A) (A) (A) (A) (A)
                 (A) (A) (A) (A) (A) (A) (A) (A) (A) (A) (A) (A)
                 (A) (A) (A) (A) (A) (A) (A) (A) (A) (A) (A) (A)
                 (A) (A) (A) (A) (A) (A) (A) (A) (A) (A) (A) (A)
                 (A) (A) (A) (A) (A) (A) (A) (A) (A) (A) (A) (A)
                 (A) (A) (A) (A) (A) (A) (A) (A) (A) (A) (A) (A)
                 (A) (A) (A) (A) (A) (A) (A) (A) (A) (A) (A) (A)
                 (A) (A) (A) (A) (A) (A) (A) (A) (A) (A) (A) (A)
                 (A) (A) (A) (A) (A) (A) (A) (A) (A) (A) (A) (A)
                 (A) (A) (A) (A) (A) (A) (A) (A) (A) (A) (A) (A)
                 (A) (A) (A) (A) (A) (A) (A) (A) (A) (A) (A) (A)
                 (A) (A) (A) (A) (A) (A) (A) (A) (A) (A) (A) (A)
                 (A) (A) (A) (A) (A) (A) (A) (A) (A) (A) (A) (A)
                 (A) (A) (A) (A) (A) (A) (A) (A) (A) (A) (A) (A)
                 (A) (A) (A) (A) (A) (A) (A) (A) (A) (A) (A) (A)
                 (A) (A) (A) (A) (A) (A) (A) (A) (A) (A) (A) (A)
                 (A) (A) (A) (A) (A) (A) (A) (A) (A) (A) (A) (A)
                 (A) (A) (A) (A) (A) (A) (A) (A) (A) (A) (A) (A)
                 (A) (A) (A) (A) (A) (A) (A) (A) (A) (A) (A) (A)
                 (A) (A) (A) (A) (A) (A) (A) (A) (A) (A) (A) (A)
                 (A) (A) (A) (A) (A) (A) (A) (A) (A) (A) (A) (A)
                 (A) (A) (A) (A) (A) (A) (A) (A) (A) (A) (A) (A)
                 (A) (A) (A) (A) (A) (A) (A) (A) (A) (A) (A) (A)
                 (A) (A) (A) (A) (A) (A) (A) (A) (A) (A) (A) (A)
                 (A) (A) (A) (A) (A) (A) (A) (A) (A) (A) (A) (A)
                 (A) (A) (A) (A) (A) (A) (A) (A) (A) (A) (A) (A)
                 (A) (A) (A) (A) (A) (A) (A) (A) (A) (A) (A) (A)
                 (A) (A) (A) (A) (A) (A) (A) (A) (A) (A) (A) (A)
                 (A) (A) (A) (A) (A) (A) (A) (A) (A) (A) (A) (A)
                 (A) (A) (A) (A) (A) (A) (A) (A) (A) (A) (A) (A)
                 (A) (A) (A) (A) (A) (A) (A) (A) (A) (A) (A) (A)
                 (A) (A) (A) (A) (A) (A) (A) (A) (A) (A) (A) (A)
                 (A) (A) (A) (A) (A) (A) (A) (A) (A) (A) (A) (A)
                 (A) (A) (A) (A) (A) (A) (A) (A) (A) (A) (A) (A)
                 (A) (A) (A) (A) (A) (A) (A) (A) (A) (A) (A) (A)
                 (A) (A) (A) (A) (A) (A) (A) (A) (A) (A) (A) (A)
                 (A) (A) (A) (A) (A) (A) (A) (A) (A) (A) (A) (A)
                 (A) (A) (A) (A) (A) (A) (A) (A) (A) (A) (A) (A)
                 (A) (A) (A) (A) (A) (A) (A) (A) (A) (A) (A) (A)
                 (A) (A) (A) (A) (A) (A) (A) (A) (A) (A) (A) (A)
                 (A) (A) (A) (A) (A) (A) (A) (A) (A) (A) (A) (A)
                 (A) (A) (A) (A) (A) (A) (A) (A) (A) (A) (A) (A)
                 (A) (A) (A) (A) (A) (A) (A) (A) (A) (A) (A) (A)
                 (A) (A) (A) (A) (A) (A) (A) (A) (A) (A) (A) (A)
                 (A) (A) (A) (A) (A) (A) (A) (A) (A) (A) (A) (A)
                 (A) (A) (A) (A) (A) (A) (A) (A) (A) (A) (A) (A)
                 (A) (A) (A) (A) (A) (A) (A) (A) (A) (A) (A) (A)
 The electronic state is 1-A.
 Alpha  occ. eigenvalues --  -10.23754 -10.22967 -10.21959 -10.21013 -10.20870
 Alpha  occ. eigenvalues --  -10.20542 -10.20389 -10.20358 -10.19904 -10.19626
 Alpha  occ. eigenvalues --  -10.19508 -10.19450 -10.19355 -10.19312 -10.19310
 Alpha  occ. eigenvalues --  -10.19222 -10.19148 -10.19085 -10.19048 -10.18979
 Alpha  occ. eigenvalues --  -10.18973 -10.18727 -10.18618 -10.18496 -10.18034
 Alpha  occ. eigenvalues --  -10.17819 -10.17351 -10.17213 -10.16875 -10.16668
 Alpha  occ. eigenvalues --   -0.92658  -0.90382  -0.88482  -0.85823  -0.85754
 Alpha  occ. eigenvalues --   -0.83213  -0.81220  -0.81002  -0.79460  -0.77000
 Alpha  occ. eigenvalues --   -0.76345  -0.75316  -0.73008  -0.72185  -0.71747
 Alpha  occ. eigenvalues --   -0.67297  -0.66000  -0.64110  -0.63799  -0.62092
 Alpha  occ. eigenvalues --   -0.61069  -0.60236  -0.58762  -0.57286  -0.55545
 Alpha  occ. eigenvalues --   -0.53308  -0.51895  -0.51588  -0.50882  -0.50560
 Alpha  occ. eigenvalues --   -0.49908  -0.47942  -0.46719  -0.46423  -0.45775
 Alpha  occ. eigenvalues --   -0.45172  -0.44568  -0.44526  -0.43731  -0.43422
 Alpha  occ. eigenvalues --   -0.42736  -0.42469  -0.41723  -0.41030  -0.40938
 Alpha  occ. eigenvalues --   -0.40401  -0.40213  -0.38347  -0.37577  -0.37362
 Alpha  occ. eigenvalues --   -0.36929  -0.36353  -0.35446  -0.35149  -0.34059
 Alpha  occ. eigenvalues --   -0.33630  -0.33110  -0.32205  -0.31579  -0.29981
 Alpha  occ. eigenvalues --   -0.27611  -0.26702  -0.25742  -0.23180  -0.22454
 Alpha  occ. eigenvalues --   -0.21210  -0.20026
 Alpha virt. eigenvalues --   -0.09326  -0.08462  -0.06494  -0.03756  -0.03546
 Alpha virt. eigenvalues --   -0.01438  -0.00469   0.00092   0.00462   0.00792
 Alpha virt. eigenvalues --    0.01446   0.01516   0.01813   0.02337   0.02893
 Alpha virt. eigenvalues --    0.03092   0.03319   0.03814   0.04389   0.04526
 Alpha virt. eigenvalues --    0.04731   0.04926   0.05122   0.05389   0.05833
 Alpha virt. eigenvalues --    0.06988   0.07128   0.07393   0.07829   0.07854
 Alpha virt. eigenvalues --    0.08450   0.08503   0.08592   0.09054   0.09549
 Alpha virt. eigenvalues --    0.09625   0.09981   0.10470   0.10803   0.11224
 Alpha virt. eigenvalues --    0.11481   0.11815   0.12168   0.12299   0.12541
 Alpha virt. eigenvalues --    0.12764   0.13022   0.13833   0.14084   0.14408
 Alpha virt. eigenvalues --    0.14920   0.15265   0.15389   0.15501   0.15803
 Alpha virt. eigenvalues --    0.16074   0.16316   0.16389   0.16581   0.16772
 Alpha virt. eigenvalues --    0.16979   0.17325   0.17614   0.17698   0.18013
 Alpha virt. eigenvalues --    0.18273   0.18439   0.18622   0.18824   0.19072
 Alpha virt. eigenvalues --    0.19316   0.19569   0.19929   0.20002   0.20181
 Alpha virt. eigenvalues --    0.20477   0.20609   0.20956   0.21069   0.21515
 Alpha virt. eigenvalues --    0.21663   0.21847   0.21922   0.22152   0.22169
 Alpha virt. eigenvalues --    0.22647   0.22972   0.23377   0.23461   0.23651
 Alpha virt. eigenvalues --    0.23721   0.23925   0.24385   0.24594   0.24892
 Alpha virt. eigenvalues --    0.25212   0.25230   0.25404   0.25681   0.25807
 Alpha virt. eigenvalues --    0.26214   0.26416   0.26734   0.27158   0.27595
 Alpha virt. eigenvalues --    0.27715   0.27959   0.28079   0.28601   0.28740
 Alpha virt. eigenvalues --    0.28962   0.29152   0.29518   0.29720   0.30093
 Alpha virt. eigenvalues --    0.30287   0.30727   0.31023   0.31468   0.31539
 Alpha virt. eigenvalues --    0.31709   0.32099   0.32475   0.32941   0.33293
 Alpha virt. eigenvalues --    0.33557   0.34268   0.34550   0.35057   0.35192
 Alpha virt. eigenvalues --    0.35269   0.35666   0.36297   0.36483   0.37676
 Alpha virt. eigenvalues --    0.37946   0.38990   0.39242   0.39755   0.39888
 Alpha virt. eigenvalues --    0.40128   0.40427   0.40810   0.41682   0.42435
 Alpha virt. eigenvalues --    0.42743   0.43721   0.43807   0.44388   0.44973
 Alpha virt. eigenvalues --    0.45770   0.46597   0.46939   0.47592   0.48452
 Alpha virt. eigenvalues --    0.48886   0.49088   0.49840   0.50710   0.51145
 Alpha virt. eigenvalues --    0.51674   0.52063   0.52312   0.52883   0.53099
 Alpha virt. eigenvalues --    0.53370   0.53887   0.54226   0.54811   0.54942
 Alpha virt. eigenvalues --    0.55809   0.56175   0.56216   0.56685   0.56894
 Alpha virt. eigenvalues --    0.57253   0.57729   0.58471   0.58749   0.59007
 Alpha virt. eigenvalues --    0.59372   0.59585   0.59702   0.60088   0.60523
 Alpha virt. eigenvalues --    0.61150   0.61176   0.61537   0.62387   0.62549
 Alpha virt. eigenvalues --    0.62963   0.63621   0.63705   0.64168   0.64506
 Alpha virt. eigenvalues --    0.64915   0.65337   0.65744   0.66319   0.66653
 Alpha virt. eigenvalues --    0.67380   0.67619   0.67901   0.68915   0.68961
 Alpha virt. eigenvalues --    0.69157   0.69839   0.70215   0.70615   0.70743
 Alpha virt. eigenvalues --    0.71324   0.71438   0.71795   0.72089   0.72330
 Alpha virt. eigenvalues --    0.72761   0.73170   0.73408   0.73557   0.73756
 Alpha virt. eigenvalues --    0.74662   0.74965   0.75139   0.75346   0.76193
 Alpha virt. eigenvalues --    0.76366   0.76890   0.77514   0.78047   0.78803
 Alpha virt. eigenvalues --    0.80649   0.81018   0.81623   0.82748   0.83660
 Alpha virt. eigenvalues --    0.84241   0.85595   0.86384   0.86682   0.86817
 Alpha virt. eigenvalues --    0.87209   0.87455   0.87823   0.88596   0.89248
 Alpha virt. eigenvalues --    0.89733   0.90376   0.90433   0.91258   0.91707
 Alpha virt. eigenvalues --    0.91893   0.92693   0.93107   0.93483   0.93688
 Alpha virt. eigenvalues --    0.93942   0.94590   0.94944   0.95207   0.95375
 Alpha virt. eigenvalues --    0.95568   0.95881   0.96310   0.96842   0.97302
 Alpha virt. eigenvalues --    0.97443   0.97977   0.98216   0.98925   0.99014
 Alpha virt. eigenvalues --    0.99800   1.00107   1.00453   1.01447   1.01889
 Alpha virt. eigenvalues --    1.02186   1.03231   1.03509   1.03854   1.04064
 Alpha virt. eigenvalues --    1.04633   1.05658   1.06076   1.06986   1.07455
 Alpha virt. eigenvalues --    1.08092   1.08539   1.09473   1.10013   1.10454
 Alpha virt. eigenvalues --    1.12769   1.12914   1.13248   1.14038   1.14785
 Alpha virt. eigenvalues --    1.15612   1.16055   1.17297   1.17725   1.18300
 Alpha virt. eigenvalues --    1.18812   1.20120   1.21419   1.22066   1.23696
 Alpha virt. eigenvalues --    1.27706   1.28291   1.28845   1.30264   1.31529
 Alpha virt. eigenvalues --    1.32884   1.34437   1.34817   1.35354   1.36983
 Alpha virt. eigenvalues --    1.38915   1.39255   1.40029   1.40591   1.42490
 Alpha virt. eigenvalues --    1.43259   1.43528   1.44788   1.45181   1.45959
 Alpha virt. eigenvalues --    1.46729   1.46838   1.47156   1.47995   1.48528
 Alpha virt. eigenvalues --    1.49007   1.49849   1.49979   1.50318   1.50587
 Alpha virt. eigenvalues --    1.51236   1.52362   1.53393   1.53922   1.55091
 Alpha virt. eigenvalues --    1.55236   1.55864   1.56662   1.57066   1.57728
 Alpha virt. eigenvalues --    1.58307   1.59290   1.59428   1.60064   1.60834
 Alpha virt. eigenvalues --    1.61333   1.63148   1.64983   1.65820   1.66262
 Alpha virt. eigenvalues --    1.66657   1.68235   1.68676   1.69984   1.70794
 Alpha virt. eigenvalues --    1.71438   1.71825   1.72876   1.73230   1.73642
 Alpha virt. eigenvalues --    1.74237   1.74704   1.75080   1.75697   1.77014
 Alpha virt. eigenvalues --    1.77754   1.78178   1.79181   1.79340   1.80715
 Alpha virt. eigenvalues --    1.80953   1.81074   1.82948   1.83120   1.83539
 Alpha virt. eigenvalues --    1.84501   1.84587   1.85335   1.85750   1.86083
 Alpha virt. eigenvalues --    1.87115   1.87483   1.87883   1.88490   1.89123
 Alpha virt. eigenvalues --    1.89541   1.89956   1.90403   1.91585   1.92300
 Alpha virt. eigenvalues --    1.92983   1.93222   1.94213   1.95126   1.95641
 Alpha virt. eigenvalues --    1.95965   1.96575   1.97914   1.99402   1.99945
 Alpha virt. eigenvalues --    2.00320   2.00748   2.01565   2.01808   2.02627
 Alpha virt. eigenvalues --    2.04035   2.04467   2.05031   2.05454   2.06411
 Alpha virt. eigenvalues --    2.07261   2.08444   2.09005   2.10252   2.10780
 Alpha virt. eigenvalues --    2.11970   2.12074   2.13539   2.14439   2.14828
 Alpha virt. eigenvalues --    2.15062   2.15593   2.17229   2.17606   2.19675
 Alpha virt. eigenvalues --    2.20562   2.21729   2.22047   2.23407   2.24169
 Alpha virt. eigenvalues --    2.25471   2.25874   2.26726   2.28461   2.28872
 Alpha virt. eigenvalues --    2.29602   2.31373   2.32590   2.34014   2.34531
 Alpha virt. eigenvalues --    2.36458   2.36915   2.38312   2.39482   2.41775
 Alpha virt. eigenvalues --    2.42765   2.42908   2.44302   2.44750   2.46162
 Alpha virt. eigenvalues --    2.46667   2.48366   2.48444   2.51095   2.53754
 Alpha virt. eigenvalues --    2.55348   2.56090   2.56619   2.57849   2.59010
 Alpha virt. eigenvalues --    2.60224   2.61294   2.62423   2.63509   2.65224
 Alpha virt. eigenvalues --    2.66135   2.67316   2.68187   2.68404   2.69184
 Alpha virt. eigenvalues --    2.70317   2.70721   2.71642   2.71989   2.72591
 Alpha virt. eigenvalues --    2.73031   2.73174   2.74093   2.74506   2.75019
 Alpha virt. eigenvalues --    2.75640   2.76402   2.76716   2.76908   2.77025
 Alpha virt. eigenvalues --    2.77997   2.78240   2.78404   2.79783   2.80520
 Alpha virt. eigenvalues --    2.80839   2.81282   2.81590   2.83385   2.83558
 Alpha virt. eigenvalues --    2.84276   2.85189   2.85596   2.86927   2.87513
 Alpha virt. eigenvalues --    2.87761   2.89216   2.90408   2.91446   2.91867
 Alpha virt. eigenvalues --    2.92826   2.94011   2.94749   2.96155   2.98873
 Alpha virt. eigenvalues --    2.99327   3.00066   3.01892   3.03388   3.05070
 Alpha virt. eigenvalues --    3.06486   3.09001   3.11087   3.12168   3.12964
 Alpha virt. eigenvalues --    3.13554   3.15860   3.16916   3.18514   3.18877
 Alpha virt. eigenvalues --    3.20351   3.21048   3.22712   3.24213   3.24611
 Alpha virt. eigenvalues --    3.26057   3.27020   3.27741   3.32491   3.33105
 Alpha virt. eigenvalues --    3.34807   3.35135   3.36131   3.37593   3.39685
 Alpha virt. eigenvalues --    3.40643   3.42720   3.43413   3.44240   3.45061
 Alpha virt. eigenvalues --    3.46398   3.48272   3.48644   3.49048   3.50451
 Alpha virt. eigenvalues --    3.53063   3.53840   3.55805   3.57869   3.60464
 Alpha virt. eigenvalues --    3.61288   3.62923   3.64028   3.67415   3.69047
 Alpha virt. eigenvalues --    3.71738   3.82255   3.83496   3.84800   3.85560
 Alpha virt. eigenvalues --    3.93172   3.99673   4.05684   4.05730   4.06516
 Alpha virt. eigenvalues --    4.07892   4.09280   4.09914   4.11528   4.20810
 Alpha virt. eigenvalues --    4.24253   4.29222   4.32818   4.43844   4.55108
 Alpha virt. eigenvalues --    4.69794   4.74651   4.78187   4.78459   4.80137
 Alpha virt. eigenvalues --    4.81173   4.82677   4.86959   4.89317  23.37013
 Alpha virt. eigenvalues --   23.57639  23.66741  23.77292  23.77845  23.81834
 Alpha virt. eigenvalues --   23.83833  23.83932  23.87526  23.88618  23.89476
 Alpha virt. eigenvalues --   23.90351  23.93253  23.93893  23.97715  23.98085
 Alpha virt. eigenvalues --   23.99261  23.99811  24.05188  24.08374  24.10201
 Alpha virt. eigenvalues --   24.10739  24.12499  24.13820  24.14130  24.18559
 Alpha virt. eigenvalues --   24.18753  24.21351  24.21765  24.22646
          Condensed to atoms (all electrons):
               1          2          3          4          5          6
     1  C    8.080797  -0.622548   0.144040   0.107943  -0.345375  -0.168229
     2  C   -0.622548   9.176591  -0.233429  -1.722191  -1.243404  -0.089196
     3  C    0.144040  -0.233429   8.404990  -0.391367  -0.143317  -0.013243
     4  C    0.107943  -1.722191  -0.391367  10.425869   1.028873   0.676652
     5  C   -0.345375  -1.243404  -0.143317   1.028873   9.074032   0.467331
     6  C   -0.168229  -0.089196  -0.013243   0.676652   0.467331  12.019207
     7  C   -1.167250   0.259032  -0.630257  -1.469451   1.243739  -2.273823
     8  C   -0.875044  -0.142182  -1.664881   1.580438  -0.137499  -0.973789
     9  C   -0.089232  -0.393412  -0.546871   0.285283   0.710113   0.159992
    10  C   -0.968056   1.019196   0.601484  -0.523186  -2.001727  -0.520592
    11  C   -0.145676  -1.822528  -0.103239   0.268492   2.660634   0.403357
    12  C    0.416735   0.425786   1.995806  -1.631966  -1.940376  -0.095392
    13  C   -0.194369   1.432421  -0.232674  -1.535322   0.205904   0.380544
    14  C    0.713396  -2.225433  -0.407972   3.867075  -0.378113  -0.847870
    15  C    1.137685   0.034907   0.572627  -2.218825  -1.254128  -2.721087
    16  C    0.323958   0.645502  -0.124787  -0.653167  -0.755598  -0.218369
    17  C   -0.411673   0.173906   0.300208  -0.119366  -0.167313   0.105471
    18  C   -0.166923   0.410281   0.354166  -0.223558  -0.946080  -0.028907
    19  C    0.445090   0.034440  -0.162138  -0.136048  -0.149993   0.032737
    20  C   -0.533261   0.552925  -0.019616   0.227503   0.181398  -0.074752
    21  C   -0.083268  -0.484906  -0.393411  -0.122791  -0.067875   0.017515
    22  C    0.606529  -0.532768  -1.091960  -0.098945   0.347895   0.033893
    23  C    0.288530   0.499033  -0.178314  -0.266036   0.045913  -0.182854
    24  C   -0.378268  -0.216188   0.320592   0.598141   0.077285  -0.128362
    25  C   -0.106513   0.052629  -0.074746   0.009754  -0.020043  -0.016658
    26  C    0.100398   0.255797  -0.296177  -0.001984   0.026809  -0.013479
    27  C   -0.052442   0.196278  -0.057075  -0.042976  -0.014689  -0.055591
    28  C    0.301448  -0.209153   0.029246   0.057020   0.048903   0.098653
    29  C   -0.975009   0.030773  -0.122245  -0.996246  -0.149468   0.039360
    30  C    0.429275   0.863519  -0.080234  -1.276940  -0.469618  -0.318457
    31  H   -0.010013  -0.003396   0.001124   0.038901  -0.008561  -0.045405
    32  H   -0.015003   0.004046  -0.000063   0.029794   0.000068  -0.107754
    33  H   -0.003125   0.004107  -0.010835  -0.001825   0.026465  -0.036886
    34  H    0.003906  -0.003265   0.000877  -0.013155   0.046858   0.012539
    35  H    0.004084  -0.007042   0.033358  -0.004979  -0.008397   0.000874
    36  H   -0.001314  -0.006744   0.032992   0.003723  -0.005041  -0.000286
    37  H   -0.000763  -0.016030   0.001261  -0.000283   0.000145   0.000036
    38  H    0.000374  -0.000191   0.001433   0.000034   0.000193  -0.000009
    39  H   -0.000632   0.001948  -0.000264   0.000017  -0.000012  -0.000003
    40  H    0.000622  -0.000027   0.000138   0.000063   0.000019   0.000011
    41  H    0.000119  -0.000084   0.000090   0.000152   0.000018   0.000008
    42  H    0.000948  -0.000079  -0.000053   0.000005  -0.000003   0.000008
    43  H    0.078207  -0.009785   0.001137   0.030035   0.003675   0.004016
    44  H    0.028160  -0.000392   0.001259  -0.008793  -0.003236  -0.045332
               7          8          9         10         11         12
     1  C   -1.167250  -0.875044  -0.089232  -0.968056  -0.145676   0.416735
     2  C    0.259032  -0.142182  -0.393412   1.019196  -1.822528   0.425786
     3  C   -0.630257  -1.664881  -0.546871   0.601484  -0.103239   1.995806
     4  C   -1.469451   1.580438   0.285283  -0.523186   0.268492  -1.631966
     5  C    1.243739  -0.137499   0.710113  -2.001727   2.660634  -1.940376
     6  C   -2.273823  -0.973789   0.159992  -0.520592   0.403357  -0.095392
     7  C   11.594747   1.426713  -0.845910   0.588688  -0.293580  -0.415181
     8  C    1.426713  10.878793  -1.336532   0.372430   0.033108  -2.600600
     9  C   -0.845910  -1.336532  11.957373   0.624558   0.048116  -2.807058
    10  C    0.588688   0.372430   0.624558  12.526025  -4.137032   0.263290
    11  C   -0.293580   0.033108   0.048116  -4.137032  13.573261  -1.210668
    12  C   -0.415181  -2.600600  -2.807058   0.263290  -1.210668  12.477066
    13  C    0.262363   0.196027  -0.701590   0.103659  -0.394037   0.052785
    14  C   -1.881985   0.389085   0.009095  -0.581812   0.326892  -0.400591
    15  C   -0.236201  -1.163699   0.619372  -0.093403  -0.192767   0.556481
    16  C   -0.068612  -0.191981  -0.604968  -0.796810  -1.174347   0.435420
    17  C   -0.152570   0.142103  -0.209482  -0.334825  -0.012184  -0.008086
    18  C   -0.033029   0.019450  -0.629951   1.402134  -1.641457   0.486867
    19  C   -0.015800  -0.006587   0.068006  -0.528783  -0.004451  -0.034652
    20  C   -0.011581  -0.007688  -0.055441  -0.203651   0.099222  -0.006092
    21  C    0.000678  -0.001088  -0.036034   0.092018  -0.173317   0.006018
    22  C   -0.051185   0.058394  -0.158618  -1.033515  -0.038891  -0.176801
    23  C   -0.008303  -0.054767  -0.007150  -0.297976   0.006691   0.018006
    24  C    0.007686  -0.014519   0.027694   0.157661   0.064077  -0.005742
    25  C    0.001146  -0.000411  -0.003032  -0.052312  -0.004147   0.000063
    26  C   -0.005107   0.003048  -0.018511  -0.166066  -0.010519  -0.001029
    27  C    0.002021  -0.003009  -0.002551   0.006552  -0.001675   0.003614
    28  C   -0.025773   0.011378  -0.000218  -0.010143   0.004007  -0.006249
    29  C   -0.006149   0.004523  -0.047748   0.021094  -0.031723   0.004006
    30  C    0.044038  -0.067740   0.008450   0.234989  -0.200565   0.097891
    31  H    0.013683   0.007764   0.005598  -0.000502   0.000322  -0.000605
    32  H    0.409707   0.032160  -0.039905   0.002538  -0.001844   0.001246
    33  H    0.048083   0.402912  -0.102065   0.011285  -0.008180   0.007798
    34  H   -0.002542   0.002298  -0.113443  -0.037175   0.064745   0.374418
    35  H   -0.001945  -0.003739  -0.077231  -0.087294   0.347766   0.045239
    36  H    0.000220   0.001006   0.014831  -0.016403   0.025564  -0.001089
    37  H    0.000012  -0.000019   0.000120   0.038183   0.005469   0.000754
    38  H   -0.000001   0.000002   0.000022   0.002894   0.000518  -0.000003
    39  H    0.000000  -0.000001  -0.000003   0.000141   0.000011   0.000002
    40  H    0.000000   0.000000   0.000001   0.000060   0.000003  -0.000000
    41  H   -0.000000  -0.000000   0.000001   0.000013   0.000001  -0.000000
    42  H    0.000022   0.000001  -0.000004  -0.000001   0.000000   0.000000
[...]
 283972,0.02536050,-0.00001987,0.00002154,0.00002476,0.00002540,-0.0000
 7345,-0.00002157,-0.00004014,0.00001810,0.00001136,-0.00002478,0.00001
 430,0.00003230,0.00000084,-0.00000508,-0.00000540,-0.00009080,0.000024
 76,0.00001781,0.00005766,0.00000087,0.00001491,-0.00001604,0.00005282,
 0.00000200,-0.00004851,-0.00002391,-0.00000305,0.00000958,-0.00000620,
 0.00000080,-0.00000296,0.00000249,0.00000219,0.00001189,-0.00000801,-0
 .00000066,0.00010345,-0.00002065,-0.00022901,-0.00021453,-0.00016395,-
 0.00007858,0.00006597,0.00005267,-0.00001130,0.00005259,0.00024847,-0.
 00000488,-0.00008594,-0.00002905,0.00002776,0.00001819,0.00003017,-0.0
 0000454,-0.00045014,-0.00055723,0.00004391,0.00020497,-0.00018040,-0.0
 0007717,0.00004825,0.00002403,-0.00002366,0.00004444,0.00003060,0.0000
 0154,0.00110485,0.00188524,-0.00023352,-0.01253415,-0.00108000,0.00008
 442,0.00035817,-0.00310035,0.00054774,0.00047990,0.00044815,0.00001567
 ,-0.32431245,0.00624121,-0.00706838,-0.01294234,0.00396169,-0.00097831
 ,-0.00151412,-0.00418047,-0.00037779,0.00083684,-0.00006411,0.00074822
 ,-0.00001131,-0.00000878,-0.00001132,-0.00000440,-0.00000774,-0.000001
 73,-0.00000929,0.00000381,-0.00000288,-0.00000874,0.00000283,-0.000001
 09,-0.00000222,0.00000752,-0.00000064,-0.00000765,0.00001031,-0.000003
 29,0.00000137,0.00000712,-0.00000003,0.00000855,0.00003202,-0.00000563
 ,-0.00002777,0.00007474,0.00001119,0.00121017,0.00029308,-0.00008355,0
 .34687877,0.00001283,-0.00000897,0.00002170,-0.00003604,-0.00006617,-0
 .00001296,0.00001489,0.00001563,0.00000734,-0.00007521,-0.00000375,0.0
 0004430,0.00001186,-0.00004969,-0.00000039,-0.00007990,0.00005906,0.00
 002131,0.00005123,0.00000219,0.00002435,-0.00002443,0.00004495,-0.0000
 0047,-0.00003450,-0.00002969,-0.00000810,0.00000577,0.00001835,0.00000
 099,-0.00001198,0.00000482,-0.00000231,0.00001158,0.00000577,0.0000003
 6,-0.00004964,0.00016322,-0.00042470,-0.00017223,-0.00008457,-0.000059
 32,0.00008405,0.00004699,-0.00003215,-0.00006612,-0.00033162,-0.000050
 74,0.00014137,-0.00004952,-0.00000079,-0.00002763,-0.00004500,0.000005
 58,0.00132870,0.00029348,-0.00009808,0.00013923,0.00005209,0.00003918,
 -0.00011539,0.00003548,-0.00002352,0.00003962,0.00000839,-0.00000367,0
 .00048128,-0.00387036,0.00166862,0.02684393,-0.00001446,0.00146547,0.0
 0318749,-0.00041821,-0.00034569,-0.00043188,0.00012973,0.00003772,0.00
 339931,-0.05667164,0.00237379,-0.02885151,0.00545250,0.00046974,-0.002
 18015,-0.00341193,0.00127411,-0.00005688,-0.00112521,0.00005857,-0.000
 00053,-0.00000359,-0.00001409,-0.00000298,-0.00000366,-0.00000094,-0.0
 0000252,0.00000360,-0.00000374,-0.00000256,0.00000181,-0.00000005,-0.0
 0000008,0.00000240,0.00000004,0.00001296,-0.00000151,-0.00000087,-0.00
 000508,0.00000228,0.00000116,0.00000768,-0.00002100,0.00000163,0.00000
 563,-0.00001015,0.00003828,-0.00068404,-0.00096881,0.00024001,-0.00354
 414,0.06001125,0.00017934,0.00000238,0.00001899,0.00001899,-0.00000503
 ,-0.00002624,0.00001401,-0.00004064,0.00001253,-0.00005828,-0.00011463
 ,0.00003965,0.00004212,-0.00001636,0.00000760,-0.00009610,0.00010623,-
 0.00000376,0.00005910,-0.00004020,0.00004531,-0.00002660,0.00005202,0.
 00000581,-0.00004463,-0.00004404,-0.00002441,0.00001322,0.00003472,0.0
 0000549,0.00001170,-0.00001526,0.00000002,-0.00000646,0.00000150,0.000
 00380,0.00025420,-0.00018863,-0.00120777,-0.00014605,-0.00003225,0.000
 02618,0.00013898,-0.00005336,-0.00013162,-0.00002324,0.00020482,-0.000
 07003,-0.00001048,-0.00008733,0.00008573,-0.00002708,0.00001680,-0.000
 01760,-0.00040681,-0.00021095,0.00020990,0.00000621,-0.00000064,0.0001
 9546,-0.00000421,-0.00001920,-0.00012728,0.00000449,0.00002562,-0.0000
 0626,-0.00023405,0.00165180,0.00457518,-0.00526375,-0.00027637,0.00367
 509,-0.00048096,-0.00045377,-0.00219699,0.00014941,-0.00004978,0.00009
 697,-0.00589213,0.00619330,-0.04492992,0.00182203,-0.00489551,0.010740
 22,0.00384117,0.00251579,0.00651019,-0.00180790,0.00075286,-0.00113625
 ,0.00000367,-0.00000307,-0.00000902,-0.00000431,-0.00000214,-0.0000012
 5,0.00000150,0.00000055,-0.00000791,-0.00000128,-0.00000173,0.00000070
 ,-0.00000107,0.00000209,-0.00000008,-0.00000616,0.00000304,-0.00000992
 ,0.00000129,0.00000329,0.00000897,-0.00000012,0.00000457,0.00000822,0.
 00000828,-0.00000662,0.00006660,0.00018129,0.00026366,0.00024110,0.006
 95803,-0.00611439,0.02656248,-0.00048712,-0.00029965,0.00007232,0.0000
 3135,-0.00009232,-0.00001807,-0.00003630,0.00000765,0.00000728,0.00006
 606,0.00013150,0.00007240,-0.00002335,0.00000449,-0.00001138,-0.000111
 77,-0.00002900,-0.00001039,0.00008526,-0.00001216,-0.00000146,-0.00002
 712,0.00006967,0.00000876,-0.00004769,-0.00003128,-0.00000955,0.000028
 42,0.00004063,-0.00000151,-0.00001119,0.00000624,-0.00000032,0.0000114
 8,0.00000433,0.00000130,0.00032624,0.00129169,-0.00021428,-0.00009999,
 -0.00014517,-0.00005723,0.00001175,0.00000145,0.00003171,-0.00003874,-
 0.00002024,0.00000836,0.00003313,0.00001659,-0.00001178,-0.00004897,0.
 00001300,0.00000124,0.00029094,0.00011125,0.00033678,-0.00015308,0.000
 11231,0.00003250,0.00007747,-0.00005396,-0.00006073,-0.00006472,-0.000
 02362,0.00000870,-0.00069107,-0.00038419,-0.00013646,-0.00139626,-0.00
 295675,-0.00026759,0.00057893,-0.00029556,0.00001843,-0.00003840,-0.00
 027178,0.00008828,0.01114729,-0.01670998,0.00334585,-0.10740924,0.1067
 8988,-0.02932407,-0.01621551,0.02154620,-0.00737704,-0.00534310,0.0018
 2266,-0.00201576,-0.00002539,-0.00001367,-0.00000778,-0.00000930,-0.00
 000743,-0.00000354,-0.00000753,0.00000360,0.,-0.00000730,0.00000460,-0
 .00000155,-0.00000180,0.00000584,-0.00000048,-0.00000028,0.00000511,-0
 .00000355,-0.00000128,0.00000528,0.00000646,0.00000396,0.00001127,-0.0
 0000055,0.00002125,-0.00007859,-0.00000298,-0.00002912,0.00001020,-0.0
 0002286,0.00064141,0.00062635,0.00031474,0.11918927,-0.00012098,-0.000
 05553,-0.00002022,0.00002522,-0.00001165,0.00000936,-0.00000631,-0.000
 00500,-0.00000845,0.00004123,0.00003196,-0.00002064,-0.00000099,0.0000
 1709,0.00001300,0.00000342,-0.00000978,-0.00001158,0.00000146,-0.00001
 179,-0.00000171,0.00000245,0.00000568,-0.00000154,0.00001193,-0.000012
 69,-0.00000227,0.00001699,0.00000377,-0.00000238,-0.00002232,0.0000070
 6,-0.00000087,0.00000974,0.00001679,0.00000074,-0.00008975,0.00022369,
 0.00023867,0.00006170,0.00004789,0.00003001,-0.00000663,-0.00002077,0.
 00000012,-0.00005949,-0.00007076,-0.00001350,0.00003153,0.00001832,0.0
 0000981,-0.00001609,0.00000417,-0.00000014,0.00010036,0.00003780,-0.00
 042501,-0.00003973,0.00008918,0.00000210,0.00008195,0.00000550,0.00005
 722,-0.00003781,-0.00005588,-0.00000173,-0.00021068,0.00028492,0.00008
 062,-0.00409819,-0.00077319,0.00265499,0.00092943,-0.00093762,-0.00005
 199,-0.00037476,-0.00028919,-0.00017073,0.01408457,-0.02115977,0.00637
 191,0.10190565,-0.25785992,0.05535141,0.00163280,0.00603909,-0.0015743
 3,-0.00120969,0.00141359,0.00082190,0.00000129,0.00000455,0.00000809,0
 .00000278,0.00000493,0.00000113,0.00000606,-0.00000076,0.00000114,0.00
 000565,-0.00000004,0.00000083,0.00000233,-0.00000560,0.00000102,0.0000
 0233,-0.00000604,0.00000340,0.00000616,-0.00000626,-0.00000435,-0.0000
 0851,-0.00000150,0.00000006,0.00004114,-0.00012276,0.00003475,-0.00004
 210,-0.00000133,0.00006855,-0.00012845,0.00060134,-0.00106505,-0.11233
 343,0.27281259,-0.00026372,-0.00026838,-0.00005107,0.00020326,-0.00009
 302,-0.00003488,-0.00011179,0.00008325,-0.00003316,0.00006975,0.000121
 20,-0.00005649,-0.00001321,0.00001033,0.00003712,-0.00012869,-0.000021
 95,0.00002615,0.00009682,0.00002029,0.00001315,-0.00003914,0.00009364,
 -0.00000898,-0.00006982,-0.00006298,-0.00000218,0.00000461,-0.00001621
 ,-0.00000102,-0.00005505,0.00003565,-0.00000134,0.00005101,0.00001715,
 0.00000026,-0.00007534,0.00054191,0.00049258,-0.00013917,-0.00026179,-
 0.00001757,0.00004644,0.00011952,0.00000872,-0.00039721,-0.00004362,-0
 .00002371,-0.00009051,-0.00011540,0.00009587,0.00002917,0.00003945,-0.
 00000580,0.00031056,-0.00051170,-0.00188682,0.00058865,0.00004359,-0.0
 0001514,0.00014388,0.00019331,0.00026283,0.00003525,-0.00018095,-0.000
 03192,0.00005670,0.00112530,0.00050643,0.00079495,0.00314514,0.0088397
 3,-0.00038441,-0.00063883,-0.00016399,-0.00027218,0.00054198,-0.000763
 84,-0.00458528,0.00177410,0.00648053,-0.02363819,0.05682109,-0.0550406
 7,-0.00664984,0.00457410,-0.00186198,0.00097799,-0.00187912,0.00637897
 ,-0.00000944,-0.00000664,0.00001039,-0.00000244,-0.00000302,-0.0000003
 7,-0.00000235,0.00000770,0.00000084,-0.00000156,0.00000612,0.00000119,
 0.00000218,0.00000065,0.00000212,-0.00000051,0.00000468,0.00001271,0.0
 0000741,0.00000636,-0.00002295,-0.00000269,-0.00000607,-0.00001040,-0.
 00002423,0.00003343,0.00006207,0.00005521,0.00004662,0.00020663,0.0002
 3034,-0.00096278,-0.00408583,0.03376699,-0.06230870,0.04120997,-0.0011
 6079,-0.00290003,0.00013078,0.00070610,0.00018679,0.00016612,-0.000253
 92,-0.00022033,-0.00011643,0.00046998,0.00016471,-0.00163198,0.0001197
 1,0.00030454,0.00006649,-0.00074068,-0.00009858,0.00021140,0.00047431,
 -0.00015084,0.00010773,-0.00024725,0.00037722,-0.00002428,-0.00034178,
 -0.00040095,0.00003920,0.00026177,0.00041244,-0.00000688,-0.00004882,-
 0.00005192,-0.00000106,0.00007024,0.00007565,0.00002756,-0.01564422,0.
 00702656,0.01966165,-0.00098575,0.00082831,-0.00074092,-0.00004967,0.0
 0035415,-0.00026670,-0.00206361,0.00080932,0.00011316,-0.00001392,-0.0
 0085530,0.00004864,-0.00037391,0.00009710,0.00002180,0.00158427,-0.004
 31996,0.00058479,0.00213213,0.00052469,0.00005172,0.00008806,0.0002223
 5,-0.00009489,0.00018279,-0.00012549,-0.00000231,0.00541721,0.00494835
 ,-0.00459559,-0.00391512,0.00468658,-0.00252014,-0.00017396,-0.0018356
 3,0.00085680,-0.00103755,0.00129927,-0.00008605,-0.00439532,-0.0024793
 1,-0.00068235,-0.00710465,-0.00240210,-0.00741422,-0.00080793,0.000459
 84,0.01216862,-0.01788973,-0.00170670,0.00650280,0.00004216,-0.0000529
 1,0.00005557,-0.00004539,-0.00001872,-0.00001724,0.00000172,0.00001021
 ,-0.00000050,-0.00001441,0.00000476,0.00001330,-0.00000263,0.00001517,
 -0.00000019,-0.00000953,0.00001321,-0.00000415,0.00001429,0.00002104,-
 0.00000294,0.00000285,-0.00002084,-0.00001203,-0.00003934,-0.00000929,
 -0.00006800,0.00014209,0.00009787,0.00002944,0.00012249,-0.00002523,0.
 00058214,-0.00018059,-0.00016864,-0.00053001,0.04641662,0.00039045,0.0
 0359964,-0.00032205,-0.00063889,-0.00135314,-0.00024305,-0.00041712,-0
 .00020270,0.00012771,-0.00038090,-0.00042982,0.00105907,0.00039193,0.0
 0016605,-0.00006973,-0.00126232,0.00131481,0.00009994,0.00062441,-0.00
 063339,-0.00000646,0.00011356,0.00068881,0.00007710,-0.00030329,-0.000
 34270,-0.00005879,0.00024547,-0.00028857,-0.00002996,-0.00015974,-0.00
 017429,0.00002321,-0.00002495,0.00012563,-0.00000974,0.01271799,-0.001
 01028,-0.00975479,-0.00336299,-0.00245235,0.00031335,0.00269917,-0.000
 71447,-0.00018717,0.00241311,-0.00036958,-0.00024693,0.00012035,0.0009
 5034,-0.00000154,0.00012171,-0.00007963,-0.00000757,-0.00248652,0.0045
 9550,-0.00218929,-0.00143277,-0.00001028,0.00022273,-0.00047149,0.0000
 0241,0.00023686,0.00018008,0.00025268,-0.00004526,-0.00629672,-0.01724
 818,-0.00595360,0.00027669,-0.00137177,0.00013816,-0.00012454,-0.00113
 239,-0.00044085,-0.00105649,-0.00055707,-0.00005182,0.00060473,-0.0071
 5840,0.00538772,0.01471525,0.00706844,-0.00393411,-0.02432053,0.032701
 61,-0.03898042,0.01206672,-0.00945832,0.01435386,0.00004978,0.00002388
 ,-0.00002782,0.00004514,0.00001038,0.00000817,0.00001602,-0.00001044,-
 0.00001997,0.00001503,-0.00001284,-0.00001502,0.00000445,-0.00001664,-
 0.00000046,0.00001589,-0.00003957,-0.00000223,-0.00001887,-0.00004655,
 -0.00000542,-0.00000320,0.00005241,-0.00002433,0.00003282,0.00008175,-
 0.00002439,-0.00014124,-0.00007130,0.00013716,-0.00043778,0.00016269,0
 .00202447,0.00103596,-0.00022263,-0.00219638,-0.00442937,-0.00612582,-
 0.00010036,-0.00059802,0.00036781,0.00046271,-0.00025477,-0.00003511,-
 0.00023100,0.00034187,-0.00002773,-0.00105659,0.00021152,-0.00030619,-
 0.00019081,-0.00029146,-0.00001768,-0.00013534,0.00067339,0.00015669,0
 .00002831,0.00003673,0.00004230,-0.00001835,0.00008173,-0.00002974,-0.
 00010692,-0.00001400,0.00002900,-0.00012537,-0.00034597,-0.00000513,-0
 .00007496,0.00001932,-0.00000369,0.00002512,0.00000479,-0.00000581,-0.
 00160227,0.00347154,0.00430178,-0.00059389,-0.00010718,0.00046478,0.00
 072167,-0.00021525,-0.00001595,-0.00038614,0.00027552,0.00002901,-0.00
 033371,-0.00032949,0.00000070,0.00041418,0.00004256,-0.00000300,0.0003
 5571,-0.00196000,-0.00022251,0.00170474,0.00061501,-0.00043108,-0.0001
 4101,0.00042572,0.00013401,0.00038695,0.00011542,-0.00004492,0.0005402
 3,0.00638818,0.00380020,-0.00142048,0.00324585,0.00020391,-0.00057913,
 -0.00248050,0.00010280,-0.00155505,0.00159769,-0.00015237,-0.00121032,
 -0.00388845,0.00199548,0.00638106,-0.00086441,-0.00079990,-0.01193669,
 0.01836713,-0.05715960,0.03158747,-0.06534348,-0.11319170,-0.00003597,
 -0.00001707,-0.00005016,-0.00000629,-0.00000513,0.00000471,-0.00000449
 ,0.00000513,0.00000137,-0.00000350,0.00000930,0.00000717,0.00000091,0.
 00000159,0.00000349,-0.00000374,0.00001095,0.00001225,0.00000997,0.000
 00809,-0.00001054,-0.00001015,0.00001589,-0.00001368,-0.00002452,0.000
 04356,0.00001891,0.00004922,0.00001325,0.00005634,0.00040129,0.0003197
 1,0.00078428,0.00147252,-0.00005199,-0.00054272,-0.02292926,0.04023769
 ,0.16048677,-0.00125240,-0.00267530,-0.00042603,0.00047262,-0.00029699
 ,0.00012165,0.00006648,-0.00042991,-0.00005220,-0.00027147,-0.00088389
 ,-0.00019912,0.00008536,0.00009455,0.00005450,-0.00424224,-0.00177797,
 -0.00094368,0.00002795,0.00097256,0.00011879,-0.00037720,-0.00008905,0
 .00000720,-0.00005662,-0.00008648,-0.00004071,0.00002596,0.00013880,0.
 00001532,0.00010977,-0.00009241,0.00001239,-0.00005249,-0.00004553,0.0
 0000828,0.01266926,-0.00887724,-0.00179552,-0.15662498,0.13776594,0.01
 904207,-0.01488652,0.02262494,0.00291001,0.00014131,0.00005201,-0.0000
 2757,-0.00003325,-0.00010244,-0.00001115,-0.00003200,-0.00004982,0.000
 00050,0.00044334,-0.00001119,0.00004134,-0.00006042,-0.00000786,-0.000
 02250,-0.00010357,0.00001392,-0.00000140,0.00010657,0.00009108,-0.0000
 1018,0.00021529,0.00087451,0.00014291,-0.00029563,0.00023483,0.0000457
 3,-0.00011643,0.00002437,-0.00000464,0.00001995,0.00007620,0.00000040,
 0.00010689,-0.00045737,0.00004452,0.00043184,0.00100301,0.00001767,-0.
 00442667,-0.00264077,-0.00017595,-0.00053808,0.00144519,-0.00032320,0.
 00101025,-0.00021127,0.00052130,-0.00003229,-0.00001276,-0.00000977,-0
 .00003320,0.00009311,0.00000989,0.00000620,-0.00001372,-0.00000014,0.0
 0000796,-0.00000238,-0.00001076,-0.00000589,-0.00000521,0.00000080,-0.
 00001003,-0.00000308,0.00000560,-0.00000318,0.00001641,0.00000048,-0.0
 0000002,0.00001384,0.00000047,0.00001012,-0.00000727,-0.00000274,0.000
 08242,0.00007491,-0.00006424,-0.00003798,-0.00003360,0.00001563,-0.000
 70836,-0.00112702,0.00027420,0.16816139,-0.00326212,-0.00421618,-0.000
 87687,0.00090371,0.00010985,-0.00031134,-0.00001176,-0.00047298,0.0000
 3030,-0.00079656,0.00006124,0.00017372,0.00008724,-0.00008013,-0.00005
 996,-0.00232816,0.00071772,-0.00076897,-0.00010138,0.00047377,0.000111
 36,-0.00010810,0.00003504,0.00003699,-0.00003543,-0.00005860,0.0000028
 6,0.00009624,0.00006748,0.00004718,-0.00003822,-0.00003553,0.00000269,
 0.00003527,0.00002771,0.00001137,0.01651106,-0.01983862,-0.00319706,0.
 13687523,-0.23651267,-0.02467603,-0.00622980,0.00840552,0.00064351,0.0
 0017900,-0.00001662,-0.00001234,-0.00003095,-0.00005567,0.00001959,-0.
 00001590,-0.00007659,0.00000223,0.00012895,0.00011318,0.00007616,-0.00
 005004,-0.00002219,-0.00000091,-0.00006506,0.00000682,-0.00000222,0.00
 006766,0.00003946,-0.00000599,-0.00012428,-0.00009808,-0.00005502,-0.0
 0007208,-0.00004194,0.00007782,-0.00006378,0.00005716,-0.00000414,0.00
 003422,0.00001928,0.00000614,0.00035822,-0.00013093,-0.00016941,-0.000
 06214,0.00112188,0.00003418,0.00207275,0.00048392,0.00115626,0.0020384
 4,-0.00098530,0.00039453,0.00015255,0.00084328,0.00066864,0.00001063,-
 0.00001094,-0.00001202,-0.00002818,0.00004941,-0.00001582,0.00000407,-
 0.00000350,0.00000090,0.00002056,-0.00000526,-0.00001107,-0.00000319,-
 0.00000590,-0.00000133,-0.00000904,-0.00000848,0.,-0.00000352,0.000004
 53,-0.00000066,-0.00000312,0.00000731,0.00000008,-0.00000763,0.0000003
 8,-0.00000797,0.00013122,0.00007151,-0.00012257,0.00008101,-0.00002947
 ,0.00017096,-0.00066795,-0.00026389,0.00018801,-0.14566963,0.25025300,
 -0.00038965,-0.00148519,0.00400576,0.00031787,-0.00002006,0.00069414,0
 .00007500,-0.00008548,-0.00011833,-0.00067287,0.00025733,-0.00095517,0
 .00019001,-0.00033256,-0.00006490,-0.00030466,-0.00085261,0.00876685,0
 .00030306,-0.00024873,0.00038129,0.00009772,0.00037010,-0.00054056,-0.
 00022889,-0.00013806,0.00009705,0.00002659,-0.00000678,-0.00024098,-0.
 00006131,0.00001854,-0.00000782,0.00005657,0.00002925,-0.00002717,0.00
 319422,-0.00245560,0.00278497,0.01676930,-0.02322734,-0.04150078,-0.00
 012586,-0.00044097,0.00412190,0.00004914,0.00003271,-0.00004809,0.0000
 0745,-0.00004295,0.00001202,-0.00000824,-0.00004567,-0.00001701,0.0000
 8461,-0.00003794,0.00004130,0.00003941,0.00002333,0.00000546,-0.000008
 07,0.00002465,0.00000864,0.00002440,0.00000127,-0.00001534,0.00006212,
 0.00041155,-0.00008130,-0.00017482,0.00016698,0.00002779,-0.00004491,-
 0.00006581,-0.00000353,-0.00005211,0.00005367,-0.00000986,0.00003438,-
 0.00034679,0.00006297,0.00050968,0.00052801,-0.00030404,-0.00073529,-0
 .00068210,-0.00003387,-0.00019919,0.00057424,-0.00236782,0.00012988,0.
 00114601,-0.00549380,-0.00000172,-0.00001659,0.00012579,0.00000391,0.0
 0000750,-0.00004926,-0.00000327,0.00000144,-0.00000340,0.00000252,0.00
 000125,0.00008513,-0.00000101,0.00000085,0.00000257,-0.00000114,-0.000
 00097,0.00000897,-0.00000103,0.00000228,-0.00000277,-0.00000083,0.0000
 0248,0.00000082,0.00000074,-0.00000155,0.00001308,0.00005174,0.0000458
 0,0.00006566,-0.00003368,-0.00002364,0.00001459,0.00030842,0.00040196,
 0.00006540,-0.01929017,0.02645621,0.03049363\\0.00000058,-0.00000025,0
 .00000053,0.00000021,-0.00000062,0.00000067,-0.00000049,-0.00000097,0.
 00000159,0.00000077,-0.00000130,0.00000168,0.00000019,-0.00000171,0.00
 000203,0.00000105,-0.00000165,0.00000205,0.00000111,-0.00000215,0.0000
 0296,0.00000070,-0.00000280,0.00000322,-0.00000046,-0.00000220,0.00000
 266,-0.00000118,-0.00000073,0.00000124,-0.00000143,-0.00000230,0.00000
 212,-0.00000049,-0.00000234,0.00000287,0.00000105,0.00000021,-0.000001
 36,0.00000123,-0.00000039,0.00000041,0.00000199,-0.00000092,0.00000161
 ,-0.00000067,0.00000063,-0.00000070,-0.00000168,0.00000024,-0.00000036
 ,-0.00000152,-0.00000085,0.00000040,-0.00000051,0.00000088,-0.00000109
 ,-0.00000098,0.00000174,-0.00000205,-0.00000217,0.00000130,-0.00000185
 ,-0.00000190,0.00000054,-0.00000107,0.00000084,0.00000084,-0.00000301,
 -0.00000004,0.00000221,-0.00000247,-0.00000027,0.00000244,-0.00000310,
 -0.00000119,0.00000213,-0.00000301,0.00000158,0.00000217,-0.00000279,0
 .00000235,0.00000224,-0.00000248,0.00000225,0.00000120,-0.00000085,0.0
 0000102,-0.00000009,0.00000076,0.00000218,-0.00000126,0.00000178,0.000
 00153,-0.00000262,0.00000342,0.00000048,-0.00000329,0.00000402,-0.0000
 0095,-0.00000306,0.00000359,-0.00000191,-0.00000223,0.00000241,-0.0000
 0230,-0.00000072,0.00000053,-0.00000265,0.00000052,-0.00000101,-0.0000
 0238,0.00000176,-0.00000249,-0.00000155,0.00000263,-0.00000344,-0.0000
 0016,0.00000311,-0.00000368,0.00000126,0.00000310,-0.00000280,0.000002
 69,0.00000227,-0.00000266,-0.00000018,0.00000218,-0.00000053,0.0000020
 0,0.00000011,0.00000025\\\@


 ALMOST ANYTHING IS EASIER TO GET INTO THAN OUT OF.

                         -- AGNES ALLEN'S LAW FROM
                PAUL DICKSON'S "THE OFFICIAL RULES"
 Job cpu time:       0 days 22 hours 12 minutes 55.9 seconds.
 Elapsed time:       0 days  1 hours  6 minutes 50.1 seconds.
 File lengths (MBytes):  RWF=   2127 Int=      0 D2E=      0 Chk=     45 Scr=      1
 Normal termination of Gaussian 16 at Thu Aug  1 08:15:13 2019.
