 Entering Gaussian System, Link 0=/share/apps/gaussian16/g16/g16
 Initial command:
 /share/apps/gaussian16/g16/l1.exe "/home/am2145//scratch/4091/Gau-25883.inp" -scrdir="/home/am2145//scratch/4091/"
 Entering Link 1 = /share/apps/gaussian16/g16/l1.exe PID=     25884.
  
 Copyright (c) 1988,1990,1992,1993,1995,1998,2003,2009,2016,
            Gaussian, Inc.  All Rights Reserved.
  
 This is part of the Gaussian(R) 16 program.  It is based on
 the Gaussian(R) 09 system (copyright 2009, Gaussian, Inc.),
 the Gaussian(R) 03 system (copyright 2003, Gaussian, Inc.),
 the Gaussian(R) 98 system (copyright 1998, Gaussian, Inc.),
 the Gaussian(R) 94 system (copyright 1995, Gaussian, Inc.),
 the Gaussian 92(TM) system (copyright 1992, Gaussian, Inc.),
 the Gaussian 90(TM) system (copyright 1990, Gaussian, Inc.),
 the Gaussian 88(TM) system (copyright 1988, Gaussian, Inc.),
 the Gaussian 86(TM) system (copyright 1986, Carnegie Mellon
 University), and the Gaussian 82(TM) system (copyright 1983,
 Carnegie Mellon University). Gaussian is a federally registered
 trademark of Gaussian, Inc.
  
 This software contains proprietary and confidential information,
 including trade secrets, belonging to Gaussian, Inc.
  
 This software is provided under written license and may be
 used, copied, transmitted, or stored only in accord with that
 written license.
  
 The following legend is applicable only to US Government
 contracts under FAR:
  
                    RESTRICTED RIGHTS LEGEND
  
 Use, reproduction and disclosure by the US Government is
 subject to restrictions as set forth in subparagraphs (a)
 and (c) of the Commercial Computer Software - Restricted
 Rights clause in FAR 52.227-19.
  
 Gaussian, Inc.
 340 Quinnipiac St., Bldg. 40, Wallingford CT 06492
  
  
 ---------------------------------------------------------------
 Warning -- This program may not be used in any manner that
 competes with the business of Gaussian, Inc. or will provide
 assistance to any competitor of Gaussian, Inc.  The licensee
 of this program is prohibited from giving any competitor of
 Gaussian, Inc. access to this program.  By using this program,
 the user acknowledges that Gaussian, Inc. is engaged in the
 business of creating and licensing software in the field of
 computational chemistry and represents and warrants to the
 licensee that it is not a competitor of Gaussian, Inc. and that
 it will not use this program in any manner prohibited above.
 ---------------------------------------------------------------
  

 Cite this work as:
 Gaussian 16, Revision A.03,
 M. J. Frisch, G. W. Trucks, H. B. Schlegel, G. E. Scuseria, 
 M. A. Robb, J. R. Cheeseman, G. Scalmani, V. Barone, 
 G. A. Petersson, H. Nakatsuji, X. Li, M. Caricato, A. V. Marenich, 
 J. Bloino, B. G. Janesko, R. Gomperts, B. Mennucci, H. P. Hratchian, 
 J. V. Ortiz, A. F. Izmaylov, J. L. Sonnenberg, D. Williams-Young, 
 F. Ding, F. Lipparini, F. Egidi, J. Goings, B. Peng, A. Petrone, 
 T. Henderson, D. Ranasinghe, V. G. Zakrzewski, J. Gao, N. Rega, 
 G. Zheng, W. Liang, M. Hada, M. Ehara, K. Toyota, R. Fukuda, 
 J. Hasegawa, M. Ishida, T. Nakajima, Y. Honda, O. Kitao, H. Nakai, 
 T. Vreven, K. Throssell, J. A. Montgomery, Jr., J. E. Peralta, 
 F. Ogliaro, M. J. Bearpark, J. J. Heyd, E. N. Brothers, K. N. Kudin, 
 V. N. Staroverov, T. A. Keith, R. Kobayashi, J. Normand, 
 K. Raghavachari, A. P. Rendell, J. C. Burant, S. S. Iyengar, 
 J. Tomasi, M. Cossi, J. M. Millam, M. Klene, C. Adamo, R. Cammi, 
 J. W. Ochterski, R. L. Martin, K. Morokuma, O. Farkas, 
 J. B. Foresman, and D. J. Fox, Gaussian, Inc., Wallingford CT, 2016.
 
 ******************************************
 Gaussian 16:  ES64L-G16RevA.03 25-Dec-2016
                30-Apr-2019 
 ******************************************
 %nprocshared=20
 Will use up to   20 processors via shared memory.
 %mem=100GB
 %chk=7-path-4.chk
 -------------------------------------------
 # opt freq b3lyp/6-311+g(d,p) int=grid=fine
 -------------------------------------------
 1/18=20,19=15,26=3,38=1/1,3;
 2/9=110,12=2,17=6,18=5,40=1/2;
 3/5=4,6=6,7=111,11=2,25=1,30=1,71=1,74=-5,75=-4/1,2,3;
 4//1;
 5/5=2,38=5/2;
 6/7=2,8=2,9=2,10=2,28=1/1;
 7//1,2,3,16;
 1/18=20,19=15,26=3/3(2);
 2/9=110/2;
 99//99;
 2/9=110/2;
 3/5=4,6=6,7=111,11=2,25=1,30=1,71=1,74=-5,75=-4/1,2,3;
 4/5=5,16=3,69=1/1;
 5/5=2,38=5/2;
 7//1,2,3,16;
 1/18=20,19=15,26=3/3(-5);
 2/9=110/2;
 6/7=2,8=2,9=2,10=2,19=2,28=1/1;
 99/9=1/99;
 --------
 7-path-4
 --------
 Symbolic Z-matrix:
 Charge =  0 Multiplicity = 1
 C                    -3.21257   0.12518  -0.20029 
 C                    -3.43731  -1.239    -0.42721 
 C                    -2.37832  -2.06576  -0.80512 
 C                    -1.1831   -1.44655  -1.14702 
 C                    -0.94792  -0.08943  -0.94096 
 C                    -1.95012   0.70495  -0.38995 
 C                     0.49975   0.03461  -0.66984 
 C                     0.00904  -2.14863  -1.04198 
 C                     1.02008  -1.25284  -0.73168 
 C                    -2.37537  -3.45081  -0.60521 
 C                     0.04952  -3.46258  -0.59165 
 C                    -1.16513  -4.14915  -0.49714 
 C                     2.1165   -1.6541    0.01796 
 C                     1.2486   -3.92225  -0.03611 
 C                     2.27882  -3.02118   0.26726 
 C                     1.17131   1.02767   0.04041 
 C                     2.42113   0.68462   0.57565 
 C                     2.86576  -0.64396   0.62355 
 C                     0.73635   2.35747   0.00939 
 C                     3.24359   1.68698   1.09029 
 C                     1.67182   3.35237   0.31598 
 C                     2.89118   3.023     0.91047 
 C                    -1.71771   2.04857  -0.07882 
 C                    -4.25469   0.89583   0.31771 
 C                    -4.02263   2.22105   0.68075 
 C                    -2.76222   2.78579   0.48855 
 C                    -0.54551   2.74254  -0.41121 
 C                    -0.73106   4.05281  -0.86263 
 C                     1.42013   4.68848   0.00064 
 C                     0.24974   5.02495  -0.67511 
 H                    -1.17502  -5.1828   -0.16985 
 H                     1.32207  -4.94759   0.30875 
 H                     3.13671  -3.36559   0.83386 
 H                     3.76634  -0.89966   1.1702 
 H                    -3.3014   -3.95833  -0.35911 
 H                    -4.38957  -1.68315  -0.16041 
 H                    -5.23401   0.46024   0.48253 
 H                    -4.81827   2.80879   1.12542 
 H                    -2.59013   3.79852   0.83664 
 H                    -1.6704    4.33772  -1.32467 
 H                     0.0725    6.04844  -0.98689 
 H                     2.16149   5.45352   0.20325 
 H                     3.58568   3.80134   1.20659 
 H                     4.2044    1.44102   1.5287 
 

 GradGradGradGradGradGradGradGradGradGradGradGradGradGradGradGradGradGrad
 Berny optimization.
 Initialization pass.
                           ----------------------------
                           !    Initial Parameters    !
                           ! (Angstroms and Degrees)  !
 --------------------------                            --------------------------
 ! Name  Definition              Value          Derivative Info.                !
 --------------------------------------------------------------------------------
 ! R1    R(1,2)                  1.4011         estimate D2E/DX2                !
 ! R2    R(1,6)                  1.4021         estimate D2E/DX2                !
 ! R3    R(1,24)                 1.3958         estimate D2E/DX2                !
 ! R4    R(2,3)                  1.3956         estimate D2E/DX2                !
 ! R5    R(2,36)                 1.0841         estimate D2E/DX2                !
 ! R6    R(3,4)                  1.3888         estimate D2E/DX2                !
 ! R7    R(3,10)                 1.3994         estimate D2E/DX2                !
 ! R8    R(4,5)                  1.3927         estimate D2E/DX2                !
 ! R9    R(4,8)                  1.3875         estimate D2E/DX2                !
 ! R10   R(5,6)                  1.3925         estimate D2E/DX2                !
 ! R11   R(5,7)                  1.4781         estimate D2E/DX2                !
 ! R12   R(6,23)                 1.3986         estimate D2E/DX2                !
 ! R13   R(7,9)                  1.39           estimate D2E/DX2                !
 ! R14   R(7,16)                 1.3934         estimate D2E/DX2                !
 ! R15   R(8,9)                  1.386          estimate D2E/DX2                !
 ! R16   R(8,11)                 1.3896         estimate D2E/DX2                !
 ! R17   R(9,13)                 1.3875         estimate D2E/DX2                !
 ! R18   R(10,12)                1.4014         estimate D2E/DX2                !
 ! R19   R(10,35)                1.0843         estimate D2E/DX2                !
 ! R20   R(11,12)                1.3985         estimate D2E/DX2                !
 ! R21   R(11,14)                1.3992         estimate D2E/DX2                !
 ! R22   R(12,31)                1.0843         estimate D2E/DX2                !
 ! R23   R(13,15)                1.3991         estimate D2E/DX2                !
 ! R24   R(13,18)                1.3959         estimate D2E/DX2                !
 ! R25   R(14,15)                1.4019         estimate D2E/DX2                !
 ! R26   R(14,32)                1.0843         estimate D2E/DX2                !
 ! R27   R(15,33)                1.0843         estimate D2E/DX2                !
 ! R28   R(16,17)                1.4022         estimate D2E/DX2                !
 ! R29   R(16,19)                1.3995         estimate D2E/DX2                !
 ! R30   R(17,18)                1.4018         estimate D2E/DX2                !
 ! R31   R(17,20)                1.395          estimate D2E/DX2                !
 ! R32   R(18,34)                1.0841         estimate D2E/DX2                !
 ! R33   R(19,21)                1.3996         estimate D2E/DX2                !
 ! R34   R(19,27)                1.403          estimate D2E/DX2                !
 ! R35   R(20,22)                1.3934         estimate D2E/DX2                !
 ! R36   R(20,44)                1.0844         estimate D2E/DX2                !
 ! R37   R(21,22)                1.396          estimate D2E/DX2                !
 ! R38   R(21,29)                1.3957         estimate D2E/DX2                !
 ! R39   R(22,43)                1.0844         estimate D2E/DX2                !
 ! R40   R(23,26)                1.3987         estimate D2E/DX2                !
 ! R41   R(23,27)                1.4022         estimate D2E/DX2                !
 ! R42   R(24,25)                1.3935         estimate D2E/DX2                !
 ! R43   R(24,37)                1.0844         estimate D2E/DX2                !
 ! R44   R(25,26)                1.3945         estimate D2E/DX2                !
 ! R45   R(25,38)                1.0845         estimate D2E/DX2                !
 ! R46   R(26,39)                1.0846         estimate D2E/DX2                !
 ! R47   R(27,28)                1.3982         estimate D2E/DX2                !
 ! R48   R(28,30)                1.3936         estimate D2E/DX2                !
 ! R49   R(28,40)                1.0849         estimate D2E/DX2                !
 ! R50   R(29,30)                1.3927         estimate D2E/DX2                !
 ! R51   R(29,42)                1.0844         estimate D2E/DX2                !
 ! R52   R(30,41)                1.0845         estimate D2E/DX2                !
 ! A1    A(2,1,6)              121.6774         estimate D2E/DX2                !
 ! A2    A(2,1,24)             118.5504         estimate D2E/DX2                !
 ! A3    A(6,1,24)             119.6136         estimate D2E/DX2                !
 ! A4    A(1,2,3)              119.9295         estimate D2E/DX2                !
 ! A5    A(1,2,36)             119.9969         estimate D2E/DX2                !
 ! A6    A(3,2,36)             119.3704         estimate D2E/DX2                !
 ! A7    A(2,3,4)              117.1002         estimate D2E/DX2                !
 ! A8    A(2,3,10)             123.3141         estimate D2E/DX2                !
 ! A9    A(4,3,10)             118.3351         estimate D2E/DX2                !
 ! A10   A(3,4,5)              122.9132         estimate D2E/DX2                !
 ! A11   A(3,4,8)              119.6818         estimate D2E/DX2                !
 ! A12   A(5,4,8)              109.6816         estimate D2E/DX2                !
 ! A13   A(4,5,6)              119.5324         estimate D2E/DX2                !
 ! A14   A(4,5,7)              105.9213         estimate D2E/DX2                !
 ! A15   A(6,5,7)              125.7649         estimate D2E/DX2                !
 ! A16   A(1,6,5)              117.7532         estimate D2E/DX2                !
 ! A17   A(1,6,23)             121.1159         estimate D2E/DX2                !
 ! A18   A(5,6,23)             121.0956         estimate D2E/DX2                !
 ! A19   A(5,7,9)              106.3052         estimate D2E/DX2                !
 ! A20   A(5,7,16)             128.7079         estimate D2E/DX2                !
 ! A21   A(9,7,16)             120.1565         estimate D2E/DX2                !
 ! A22   A(4,8,9)              108.462          estimate D2E/DX2                !
 ! A23   A(4,8,11)             121.8726         estimate D2E/DX2                !
 ! A24   A(9,8,11)             121.1543         estimate D2E/DX2                !
 ! A25   A(7,9,8)              109.6048         estimate D2E/DX2                !
 ! A26   A(7,9,13)             122.659          estimate D2E/DX2                !
 ! A27   A(8,9,13)             120.6969         estimate D2E/DX2                !
 ! A28   A(3,10,12)            120.3995         estimate D2E/DX2                !
 ! A29   A(3,10,35)            119.5966         estimate D2E/DX2                !
 ! A30   A(12,10,35)           119.1295         estimate D2E/DX2                !
 ! A31   A(8,11,12)            117.4407         estimate D2E/DX2                !
 ! A32   A(8,11,14)            117.6642         estimate D2E/DX2                !
 ! A33   A(12,11,14)           123.7951         estimate D2E/DX2                !
 ! A34   A(10,12,11)           120.0141         estimate D2E/DX2                !
 ! A35   A(10,12,31)           119.3692         estimate D2E/DX2                !
 ! A36   A(11,12,31)           119.7587         estimate D2E/DX2                !
 ! A37   A(9,13,15)            118.0695         estimate D2E/DX2                !
 ! A38   A(9,13,18)            116.6973         estimate D2E/DX2                !
 ! A39   A(15,13,18)           124.5778         estimate D2E/DX2                !
 ! A40   A(11,14,15)           120.3007         estimate D2E/DX2                !
 ! A41   A(11,14,32)           119.6713         estimate D2E/DX2                !
 ! A42   A(15,14,32)           119.2876         estimate D2E/DX2                !
 ! A43   A(13,15,14)           120.2804         estimate D2E/DX2                !
 ! A44   A(13,15,33)           119.6891         estimate D2E/DX2                !
 ! A45   A(14,15,33)           119.3646         estimate D2E/DX2                !
 ! A46   A(7,16,17)            116.7295         estimate D2E/DX2                !
 ! A47   A(7,16,19)            121.0716         estimate D2E/DX2                !
 ! A48   A(17,16,19)           121.1951         estimate D2E/DX2                !
 ! A49   A(16,17,18)           121.8445         estimate D2E/DX2                !
 ! A50   A(16,17,20)           119.3755         estimate D2E/DX2                !
 ! A51   A(18,17,20)           118.776          estimate D2E/DX2                !
 ! A52   A(13,18,17)           120.0508         estimate D2E/DX2                !
 ! A53   A(13,18,34)           119.6023         estimate D2E/DX2                !
 ! A54   A(17,18,34)           120.2823         estimate D2E/DX2                !
 ! A55   A(16,19,21)           117.5718         estimate D2E/DX2                !
 ! A56   A(16,19,27)           123.4644         estimate D2E/DX2                !
 ! A57   A(21,19,27)           118.7667         estimate D2E/DX2                !
 ! A58   A(17,20,22)           119.4878         estimate D2E/DX2                !
 ! A59   A(17,20,44)           120.5687         estimate D2E/DX2                !
 ! A60   A(22,20,44)           119.5883         estimate D2E/DX2                !
 ! A61   A(19,21,22)           120.6228         estimate D2E/DX2                !
 ! A62   A(19,21,29)           120.6949         estimate D2E/DX2                !
 ! A63   A(22,21,29)           118.6596         estimate D2E/DX2                !
 ! A64   A(20,22,21)           120.1398         estimate D2E/DX2                !
 ! A65   A(20,22,43)           119.4074         estimate D2E/DX2                !
 ! A66   A(21,22,43)           120.423          estimate D2E/DX2                !
 ! A67   A(6,23,26)            118.196          estimate D2E/DX2                !
 ! A68   A(6,23,27)            124.1693         estimate D2E/DX2                !
 ! A69   A(26,23,27)           117.3599         estimate D2E/DX2                !
 ! A70   A(1,24,25)            119.8293         estimate D2E/DX2                !
 ! A71   A(1,24,37)            120.5894         estimate D2E/DX2                !
 ! A72   A(25,24,37)           119.5241         estimate D2E/DX2                !
 ! A73   A(24,25,26)           119.984          estimate D2E/DX2                !
 ! A74   A(24,25,38)           120.0013         estimate D2E/DX2                !
 ! A75   A(26,25,38)           120.0092         estimate D2E/DX2                !
 ! A76   A(23,26,25)           121.1601         estimate D2E/DX2                !
 ! A77   A(23,26,39)           120.2538         estimate D2E/DX2                !
 ! A78   A(25,26,39)           118.5107         estimate D2E/DX2                !
 ! A79   A(19,27,23)           123.8421         estimate D2E/DX2                !
 ! A80   A(19,27,28)           118.3749         estimate D2E/DX2                !
 ! A81   A(23,27,28)           115.4284         estimate D2E/DX2                !
 ! A82   A(27,28,30)           121.1211         estimate D2E/DX2                !
 ! A83   A(27,28,40)           119.9003         estimate D2E/DX2                !
 ! A84   A(30,28,40)           118.912          estimate D2E/DX2                !
 ! A85   A(21,29,30)           119.5016         estimate D2E/DX2                !
 ! A86   A(21,29,42)           120.6551         estimate D2E/DX2                !
 ! A87   A(30,29,42)           119.6519         estimate D2E/DX2                !
 ! A88   A(28,30,29)           119.2216         estimate D2E/DX2                !
 ! A89   A(28,30,41)           120.3059         estimate D2E/DX2                !
 ! A90   A(29,30,41)           120.32           estimate D2E/DX2                !
 ! D1    D(6,1,2,3)              2.3753         estimate D2E/DX2                !
 ! D2    D(6,1,2,36)           172.7076         estimate D2E/DX2                !
 ! D3    D(24,1,2,3)          -173.0282         estimate D2E/DX2                !
 ! D4    D(24,1,2,36)           -2.6959         estimate D2E/DX2                !
 ! D5    D(2,1,6,5)              6.2583         estimate D2E/DX2                !
 ! D6    D(2,1,6,23)          -175.8801         estimate D2E/DX2                !
 ! D7    D(24,1,6,5)          -178.386          estimate D2E/DX2                !
 ! D8    D(24,1,6,23)           -0.5244         estimate D2E/DX2                !
 ! D9    D(2,1,24,25)          173.5097         estimate D2E/DX2                !
 ! D10   D(2,1,24,37)           -3.7255         estimate D2E/DX2                !
 ! D11   D(6,1,24,25)           -1.9911         estimate D2E/DX2                !
 ! D12   D(6,1,24,37)         -179.2263         estimate D2E/DX2                !
 ! D13   D(1,2,3,4)            -10.0855         estimate D2E/DX2                !
 ! D14   D(1,2,3,10)           156.9042         estimate D2E/DX2                !
 ! D15   D(36,2,3,4)           179.5215         estimate D2E/DX2                !
 ! D16   D(36,2,3,10)          -13.4888         estimate D2E/DX2                !
 ! D17   D(2,3,4,5)              9.6633         estimate D2E/DX2                !
 ! D18   D(2,3,4,8)            155.8332         estimate D2E/DX2                !
 ! D19   D(10,3,4,5)          -157.995          estimate D2E/DX2                !
 ! D20   D(10,3,4,8)           -11.8252         estimate D2E/DX2                !
 ! D21   D(2,3,10,12)         -154.6998         estimate D2E/DX2                !
 ! D22   D(2,3,10,35)           14.5046         estimate D2E/DX2                !
 ! D23   D(4,3,10,12)           12.1391         estimate D2E/DX2                !
 ! D24   D(4,3,10,35)         -178.6565         estimate D2E/DX2                !
 ! D25   D(3,4,5,6)             -1.1326         estimate D2E/DX2                !
 ! D26   D(3,4,5,7)            148.1992         estimate D2E/DX2                !
 ! D27   D(8,4,5,6)           -150.2224         estimate D2E/DX2                !
 ! D28   D(8,4,5,7)             -0.8906         estimate D2E/DX2                !
 ! D29   D(3,4,8,9)           -148.6838         estimate D2E/DX2                !
 ! D30   D(3,4,8,11)            -0.4897         estimate D2E/DX2                !
 ! D31   D(5,4,8,9)              1.5559         estimate D2E/DX2                !
 ! D32   D(5,4,8,11)           149.75           estimate D2E/DX2                !
 ! D33   D(4,5,6,1)             -6.8343         estimate D2E/DX2                !
 ! D34   D(4,5,6,23)           175.3037         estimate D2E/DX2                !
 ! D35   D(7,5,6,1)           -149.642          estimate D2E/DX2                !
 ! D36   D(7,5,6,23)            32.496          estimate D2E/DX2                !
 ! D37   D(4,5,7,9)             -0.0894         estimate D2E/DX2                !
 ! D38   D(4,5,7,16)          -154.9354         estimate D2E/DX2                !
 ! D39   D(6,5,7,9)            146.7535         estimate D2E/DX2                !
 ! D40   D(6,5,7,16)            -8.0925         estimate D2E/DX2                !
 ! D41   D(1,6,23,26)            3.0274         estimate D2E/DX2                !
 ! D42   D(1,6,23,27)         -170.781          estimate D2E/DX2                !
 ! D43   D(5,6,23,26)         -179.1827         estimate D2E/DX2                !
 ! D44   D(5,6,23,27)            7.009          estimate D2E/DX2                !
 ! D45   D(5,7,9,8)              1.0382         estimate D2E/DX2                !
 ! D46   D(5,7,9,13)          -149.6515         estimate D2E/DX2                !
 ! D47   D(16,7,9,8)           158.481          estimate D2E/DX2                !
 ! D48   D(16,7,9,13)            7.7913         estimate D2E/DX2                !
 ! D49   D(5,7,16,17)          156.9284         estimate D2E/DX2                !
 ! D50   D(5,7,16,19)          -34.4009         estimate D2E/DX2                !
 ! D51   D(9,7,16,17)            5.0805         estimate D2E/DX2                !
 ! D52   D(9,7,16,19)          173.7513         estimate D2E/DX2                !
 ! D53   D(4,8,9,7)             -1.6141         estimate D2E/DX2                !
 ! D54   D(4,8,9,13)           149.7461         estimate D2E/DX2                !
 ! D55   D(11,8,9,7)          -150.0799         estimate D2E/DX2                !
 ! D56   D(11,8,9,13)            1.2803         estimate D2E/DX2                !
 ! D57   D(4,8,11,12)           12.4098         estimate D2E/DX2                !
 ! D58   D(4,8,11,14)         -156.0639         estimate D2E/DX2                !
 ! D59   D(9,8,11,12)          156.6656         estimate D2E/DX2                !
 ! D60   D(9,8,11,14)          -11.8082         estimate D2E/DX2                !
 ! D61   D(7,9,13,15)          157.5608         estimate D2E/DX2                !
 ! D62   D(7,9,13,18)          -13.5911         estimate D2E/DX2                !
 ! D63   D(8,9,13,15)            9.9934         estimate D2E/DX2                !
 ! D64   D(8,9,13,18)         -161.1584         estimate D2E/DX2                !
 ! D65   D(3,10,12,11)          -0.1281         estimate D2E/DX2                !
 ! D66   D(3,10,12,31)         169.2444         estimate D2E/DX2                !
 ! D67   D(35,10,12,11)       -169.3824         estimate D2E/DX2                !
 ! D68   D(35,10,12,31)         -0.01           estimate D2E/DX2                !
 ! D69   D(8,11,12,10)         -11.9426         estimate D2E/DX2                !
 ! D70   D(8,11,12,31)         178.7266         estimate D2E/DX2                !
 ! D71   D(14,11,12,10)        155.7617         estimate D2E/DX2                !
 ! D72   D(14,11,12,31)        -13.5692         estimate D2E/DX2                !
 ! D73   D(8,11,14,15)          11.0608         estimate D2E/DX2                !
 ! D74   D(8,11,14,32)        -178.866          estimate D2E/DX2                !
 ! D75   D(12,11,14,15)       -156.6181         estimate D2E/DX2                !
 ! D76   D(12,11,14,32)         13.4552         estimate D2E/DX2                !
 ! D77   D(9,13,15,14)         -10.5907         estimate D2E/DX2                !
 ! D78   D(9,13,15,33)         178.82           estimate D2E/DX2                !
 ! D79   D(18,13,15,14)        159.8017         estimate D2E/DX2                !
 ! D80   D(18,13,15,33)        -10.7876         estimate D2E/DX2                !
 ! D81   D(9,13,18,17)           6.6013         estimate D2E/DX2                !
 ! D82   D(9,13,18,34)        -176.314          estimate D2E/DX2                !
 ! D83   D(15,13,18,17)       -163.9106         estimate D2E/DX2                !
 ! D84   D(15,13,18,34)         13.174          estimate D2E/DX2                !
 ! D85   D(11,14,15,13)          0.0447         estimate D2E/DX2                !
 ! D86   D(11,14,15,33)        170.6645         estimate D2E/DX2                !
 ! D87   D(32,14,15,13)       -170.0664         estimate D2E/DX2                !
 ! D88   D(32,14,15,33)          0.5533         estimate D2E/DX2                !
 ! D89   D(7,16,17,18)         -11.8751         estimate D2E/DX2                !
 ! D90   D(7,16,17,20)         168.8637         estimate D2E/DX2                !
 ! D91   D(19,16,17,18)        179.4692         estimate D2E/DX2                !
 ! D92   D(19,16,17,20)          0.2079         estimate D2E/DX2                !
 ! D93   D(7,16,19,21)        -157.5074         estimate D2E/DX2                !
 ! D94   D(7,16,19,27)          17.3194         estimate D2E/DX2                !
 ! D95   D(17,16,19,21)         10.6565         estimate D2E/DX2                !
 ! D96   D(17,16,19,27)       -174.5166         estimate D2E/DX2                !
 ! D97   D(16,17,18,13)          6.0541         estimate D2E/DX2                !
 ! D98   D(16,17,18,34)       -171.0106         estimate D2E/DX2                !
 ! D99   D(20,17,18,13)       -174.6804         estimate D2E/DX2                !
 ! D100  D(20,17,18,34)          8.255          estimate D2E/DX2                !
 ! D101  D(16,17,20,22)         -8.2294         estimate D2E/DX2                !
 ! D102  D(16,17,20,44)        178.641          estimate D2E/DX2                !
 ! D103  D(18,17,20,22)        172.4866         estimate D2E/DX2                !
 ! D104  D(18,17,20,44)         -0.643          estimate D2E/DX2                !
 ! D105  D(16,19,21,22)        -13.768          estimate D2E/DX2                !
 ! D106  D(16,19,21,29)        164.4746         estimate D2E/DX2                !
 ! D107  D(27,19,21,22)        171.1545         estimate D2E/DX2                !
 ! D108  D(27,19,21,29)        -10.6028         estimate D2E/DX2                !
 ! D109  D(16,19,27,23)         41.0168         estimate D2E/DX2                !
 ! D110  D(16,19,27,28)       -157.2288         estimate D2E/DX2                !
 ! D111  D(21,19,27,23)       -144.2146         estimate D2E/DX2                !
 ! D112  D(21,19,27,28)         17.5398         estimate D2E/DX2                !
 ! D113  D(17,20,22,21)          5.1659         estimate D2E/DX2                !
 ! D114  D(17,20,22,43)       -172.8562         estimate D2E/DX2                !
 ! D115  D(44,20,22,21)        178.3636         estimate D2E/DX2                !
 ! D116  D(44,20,22,43)          0.3414         estimate D2E/DX2                !
 ! D117  D(19,21,22,20)          6.0634         estimate D2E/DX2                !
 ! D118  D(19,21,22,43)       -175.9347         estimate D2E/DX2                !
 ! D119  D(29,21,22,20)       -172.2145         estimate D2E/DX2                !
 ! D120  D(29,21,22,43)          5.7874         estimate D2E/DX2                !
 ! D121  D(19,21,29,30)         -2.6435         estimate D2E/DX2                !
 ! D122  D(19,21,29,42)       -177.5986         estimate D2E/DX2                !
 ! D123  D(22,21,29,30)        175.6331         estimate D2E/DX2                !
 ! D124  D(22,21,29,42)          0.678          estimate D2E/DX2                !
 ! D125  D(6,23,26,25)          -3.095          estimate D2E/DX2                !
 ! D126  D(6,23,26,39)         173.7014         estimate D2E/DX2                !
 ! D127  D(27,23,26,25)        171.1384         estimate D2E/DX2                !
 ! D128  D(27,23,26,39)        -12.0652         estimate D2E/DX2                !
 ! D129  D(6,23,27,19)         -58.6099         estimate D2E/DX2                !
 ! D130  D(6,23,27,28)         139.1498         estimate D2E/DX2                !
 ! D131  D(26,23,27,19)        127.5342         estimate D2E/DX2                !
 ! D132  D(26,23,27,28)        -34.7061         estimate D2E/DX2                !
 ! D133  D(1,24,25,26)           1.9334         estimate D2E/DX2                !
 ! D134  D(1,24,25,38)        -177.2136         estimate D2E/DX2                !
 ! D135  D(37,24,25,26)        179.1982         estimate D2E/DX2                !
 ! D136  D(37,24,25,38)          0.0512         estimate D2E/DX2                !
 ! D137  D(24,25,26,23)          0.652          estimate D2E/DX2                !
 ! D138  D(24,25,26,39)       -176.1989         estimate D2E/DX2                !
 ! D139  D(38,25,26,23)        179.7989         estimate D2E/DX2                !
 ! D140  D(38,25,26,39)          2.948          estimate D2E/DX2                !
 ! D141  D(19,27,28,30)        -11.7176         estimate D2E/DX2                !
 ! D142  D(19,27,28,40)        171.2834         estimate D2E/DX2                !
 ! D143  D(23,27,28,30)        151.5477         estimate D2E/DX2                !
 ! D144  D(23,27,28,40)        -25.4514         estimate D2E/DX2                !
 ! D145  D(27,28,30,29)         -1.4655         estimate D2E/DX2                !
 ! D146  D(27,28,30,41)       -176.9921         estimate D2E/DX2                !
 ! D147  D(40,28,30,29)        175.5626         estimate D2E/DX2                !
 ! D148  D(40,28,30,41)          0.036          estimate D2E/DX2                !
 ! D149  D(21,29,30,28)          8.6839         estimate D2E/DX2                !
 ! D150  D(21,29,30,41)       -175.7902         estimate D2E/DX2                !
 ! D151  D(42,29,30,28)       -176.3099         estimate D2E/DX2                !
 ! D152  D(42,29,30,41)         -0.784          estimate D2E/DX2                !
 --------------------------------------------------------------------------------
 Trust Radius=3.00D-01 FncErr=1.00D-07 GrdErr=1.00D-06 EigMax=2.50D+02 EigMin=1.00D-04
 Number of steps in this run=    264 maximum allowed number of steps=    264.
 GradGradGradGradGradGradGradGradGradGradGradGradGradGradGradGradGradGrad

                          Input orientation:                          
 ---------------------------------------------------------------------
 Center     Atomic      Atomic             Coordinates (Angstroms)
 Number     Number       Type             X           Y           Z
 ---------------------------------------------------------------------
      1          6           0       -3.212570    0.125180   -0.200290
      2          6           0       -3.437310   -1.239000   -0.427210
      3          6           0       -2.378320   -2.065760   -0.805120
      4          6           0       -1.183100   -1.446550   -1.147020
      5          6           0       -0.947920   -0.089430   -0.940960
      6          6           0       -1.950120    0.704950   -0.389950
      7          6           0        0.499750    0.034610   -0.669840
      8          6           0        0.009040   -2.148630   -1.041980
      9          6           0        1.020080   -1.252840   -0.731680
     10          6           0       -2.375370   -3.450810   -0.605210
     11          6           0        0.049520   -3.462580   -0.591650
     12          6           0       -1.165130   -4.149150   -0.497140
     13          6           0        2.116500   -1.654100    0.017960
     14          6           0        1.248600   -3.922250   -0.036110
     15          6           0        2.278820   -3.021180    0.267260
     16          6           0        1.171310    1.027670    0.040410
     17          6           0        2.421130    0.684620    0.575650
     18          6           0        2.865760   -0.643960    0.623550
     19          6           0        0.736350    2.357470    0.009390
     20          6           0        3.243590    1.686980    1.090290
     21          6           0        1.671820    3.352370    0.315980
     22          6           0        2.891180    3.023000    0.910470
     23          6           0       -1.717710    2.048570   -0.078820
     24          6           0       -4.254690    0.895830    0.317710
     25          6           0       -4.022630    2.221050    0.680750
     26          6           0       -2.762220    2.785790    0.488550
     27          6           0       -0.545510    2.742540   -0.411210
     28          6           0       -0.731060    4.052810   -0.862630
     29          6           0        1.420130    4.688480    0.000640
     30          6           0        0.249740    5.024950   -0.675110
     31          1           0       -1.175020   -5.182800   -0.169850
     32          1           0        1.322070   -4.947590    0.308750
     33          1           0        3.136710   -3.365590    0.833860
     34          1           0        3.766340   -0.899660    1.170200
     35          1           0       -3.301400   -3.958330   -0.359110
     36          1           0       -4.389570   -1.683150   -0.160410
     37          1           0       -5.234010    0.460240    0.482530
     38          1           0       -4.818270    2.808790    1.125420
     39          1           0       -2.590130    3.798520    0.836640
     40          1           0       -1.670400    4.337720   -1.324670
     41          1           0        0.072500    6.048440   -0.986890
     42          1           0        2.161490    5.453520    0.203250
     43          1           0        3.585680    3.801340    1.206590
     44          1           0        4.204400    1.441020    1.528700
 ---------------------------------------------------------------------
                    Distance matrix (angstroms):
                    1          2          3          4          5
     1  C    0.000000
     2  C    1.401067   0.000000
     3  C    2.421159   1.395639   0.000000
     4  C    2.735943   2.375430   1.388837   0.000000
     5  C    2.392340   2.789716   2.443435   1.392676   0.000000
     6  C    1.402100   2.447869   2.834176   2.406331   1.392500
     7  C    3.742993   4.145044   3.565549   2.292056   1.478053
     8  C    4.032050   3.617001   2.400512   1.387497   2.272946
     9  C    4.482928   4.467798   3.495047   2.250341   2.295723
    10  C    3.694938   2.459980   1.399406   2.394185   3.667317
    11  C    4.864814   4.138760   2.809107   2.427378   3.534833
    12  C    4.748687   3.692786   2.430472   2.779697   4.089680
    13  C    5.622496   5.587065   4.588064   3.505370   3.571889
    14  C    6.025835   5.413921   4.146382   3.643676   4.509320
    15  C    6.346144   6.027653   4.873580   4.057652   4.524025
    16  C    4.482279   5.157115   4.783733   3.615937   2.588848
    17  C    5.714336   6.247188   5.701389   4.527687   3.774885
    18  C    6.181940   6.417699   5.618095   4.491362   4.159249
    19  C    4.541041   5.526722   5.470791   4.414990   3.118854
    20  C    6.766596   7.449738   7.020079   5.866869   4.985014
    21  C    5.876951   6.909140   6.856868   5.772397   4.504323
    22  C    6.847402   7.746213   7.523720   6.388263   5.277661
    23  C    2.439014   3.726462   4.229850   3.693606   2.430413
    24  C    1.395794   2.404270   3.681376   4.131204   3.672835
    25  C    2.413524   3.679962   4.825796   4.985475   4.173979
    26  C    2.784989   4.182499   5.035722   4.804312   3.688099
    27  C    3.742762   4.920917   5.160824   4.300746   2.909059
    28  C    4.692852   5.959583   6.336692   5.525231   4.148652
    29  C    6.505843   7.675467   7.790843   6.762583   5.415043
    30  C    6.018371   7.272748   7.563185   6.645001   5.259463
    31  H    5.685700   4.553872   3.401094   3.861928   5.156414
    32  H    6.823128   6.078402   4.820637   4.544494   5.506028
    33  H    7.319037   7.023562   5.898421   5.125169   5.528780
    34  H    7.185661   7.386436   6.558851   5.492318   5.228548
    35  H    4.087563   2.723576   2.152399   3.378910   4.565721
    36  H    2.158003   1.084090   2.146431   3.363158   3.872229
    37  H    2.159798   2.634990   4.024138   4.764573   4.549618
    38  H    3.396696   4.549980   5.782869   6.040394   5.258252
    39  H    3.867309   5.262285   6.093441   5.781470   4.579615
    40  H    4.624717   5.918379   6.463408   5.807478   4.502096
    41  H    6.818756   8.107946   8.478196   7.601122   6.222284
    42  H    7.578560   8.748364   8.841168   7.785915   6.457704
    43  H    7.855550   8.797540   8.604600   7.471351   6.348511
    44  H    7.728666   8.330896   7.815141   6.672533   5.915057
                    6          7          8          9         10
     6  C    0.000000
     7  C    2.555300   0.000000
     8  C    3.522268   2.268440   0.000000
     9  C    3.573767   1.389998   1.385975   0.000000
    10  C    4.183003   4.518699   2.751700   4.046745   0.000000
    11  C    4.626829   3.526919   1.389568   2.417550   2.424956
    12  C    4.918332   4.506162   2.382773   3.635762   1.401442
    13  C    4.718994   2.436943   2.410274   1.387482   4.877848
    14  C    5.636310   4.076657   2.386213   2.767994   3.698552
    15  C    5.674496   3.658018   2.761766   2.389421   4.754710
    16  C    3.167441   1.393419   3.551242   2.412409   5.749134
    17  C    4.476675   2.380223   4.057365   2.725033   6.442253
    18  C    5.102886   2.780525   3.633025   2.369371   6.071054
    19  C    3.179216   2.431668   4.683940   3.696488   6.617904
    20  C    5.489091   3.654729   5.451678   4.111704   7.800277
    21  C    4.541544   3.654192   5.905074   4.767632   7.969416
    22  C    5.522919   4.140868   6.234144   4.947775   8.481984
    23  C    1.398618   3.053272   4.639594   4.338321   5.563523
    24  C    2.418318   4.931699   5.412660   5.791477   4.824614
    25  C    2.782131   5.201590   6.190013   6.284250   6.044597
    26  C    2.400242   4.421686   5.862670   5.666153   6.343591
    27  C    2.474905   2.914162   4.962755   4.303119   6.460929
    28  C    3.594120   4.206898   6.248021   5.588699   7.685983
    29  C    5.232557   4.791153   7.058633   5.999635   9.001162
    30  C    4.856243   4.996601   7.186987   6.325130   8.873252
    31  H    5.942628   5.502382   3.371765   4.536375   2.151782
    32  H    6.568608   5.143556   3.373825   3.850308   4.092278
    33  H    6.628940   4.558073   3.844748   3.375611   5.697474
    34  H    6.138954   3.863835   4.535523   3.359141   6.883389
    35  H    4.855213   5.521672   3.834102   5.112111   1.084285
    36  H    3.421495   5.207271   4.510167   5.456723   2.716518
    37  H    3.406617   5.863883   6.051438   6.597165   4.965009
    38  H    3.866364   6.261020   7.250969   7.350646   6.938691
    39  H    3.388851   5.097437   6.756737   6.403865   7.394446
    40  H    3.761511   4.863652   6.706204   6.232550   7.853394
    41  H    5.744581   6.037318   8.197501   7.366935   9.817000
    42  H    6.309211   5.734828   7.998520   6.866744  10.026156
    43  H    6.540769   5.218449   7.297298   5.990320   9.560879
    44  H    6.488539   4.531666   6.090569   4.744059   8.472128
                   11         12         13         14         15
    11  C    0.000000
    12  C    1.398458   0.000000
    13  C    2.813295   4.154479   0.000000
    14  C    1.399183   2.467818   2.429131   0.000000
    15  C    2.429473   3.703703   1.399073   1.401896   0.000000
    16  C    4.671216   5.705031   2.843550   4.951115   4.203716
    17  C    4.917966   6.113712   2.423516   4.792946   3.721332
    18  C    4.165638   5.458056   1.395891   3.714504   2.474392
    19  C    5.891177   6.797669   4.242356   6.300742   5.601391
    20  C    6.288797   7.484461   3.685517   6.059061   4.875954
    21  C    7.063936   8.061157   5.035007   7.295422   6.402575
    22  C    7.238380   8.359112   4.824103   7.199346   6.109077
    23  C    5.810238   6.236351   5.331069   6.667197   6.464858
    24  C    6.192649   5.971699   6.869065   7.322929   7.617891
    25  C    7.106691   7.080408   7.290061   8.126493   8.207327
    26  C    6.936486   7.184405   6.613319   7.833246   7.692981
    27  C    6.236195   6.920022   5.157609   6.912232   6.454272
    28  C    7.560676   8.221566   6.438389   8.258557   7.770287
    29  C    8.286686   9.221446   6.380717   8.612517   7.761913
    30  C    8.490301   9.284268   6.969566   9.025432   8.351373
    31  H    2.153270   1.084273   4.829192   2.735106   4.097887
    32  H    2.152988   2.733702   3.400405   1.084273   2.151313
    33  H    3.401798   4.570706   2.153072   2.152133   1.084264
    34  H    4.846383   6.136661   2.149141   4.114638   2.743877
    35  H    3.395366   2.149212   5.899602   4.561593   5.692929
    36  H    4.801860   4.073273   6.508579   6.067782   6.814738
    37  H    6.667688   6.225915   7.662653   7.842158   8.283070
    38  H    8.122425   8.024404   8.320751   9.135807   9.224623
    39  H    7.856929   8.183829   7.249391   8.666477   8.398760
    40  H    8.021230   8.542076   7.214234   8.854832   8.501999
    41  H    9.519256  10.284086   8.032234  10.084734   9.418001
    42  H    9.197235  10.186669   7.110177   9.423148   8.475754
    43  H    8.276631   9.417175   5.773487   8.164563   7.009779
    44  H    6.767880   8.011609   4.027584   6.320605   5.020988
                   16         17         18         19         20
    16  C    0.000000
    17  C    1.402218   0.000000
    18  C    2.450624   1.401826   0.000000
    19  C    1.399472   2.440812   3.730973   0.000000
    20  C    2.414805   1.394998   2.407049   2.811433   0.000000
    21  C    2.393884   2.783125   4.182194   1.399617   2.417342
    22  C    2.774220   2.408542   3.678256   2.428614   1.393369
    23  C    3.066413   4.406664   5.362018   2.474997   5.109996
    24  C    5.434681   6.684139   7.291454   5.209792   7.579380
    25  C    5.367607   6.625233   7.460662   4.808038   7.297322
    26  C    4.331798   5.593712   6.592084   3.557112   6.135082
    27  C    2.468240   3.742977   4.916897   1.402978   4.210224
    28  C    3.685914   4.832148   6.099631   2.405803   5.020846
    29  C    3.669472   4.166957   5.559926   2.429247   3.677138
    30  C    4.164073   5.011766   6.377038   2.796566   4.818902
    31  H    6.642244   6.922043   6.128495   7.780818   8.264741
    32  H    5.983182   5.744646   4.582937   7.334616   6.951299
    33  H    4.877816   4.121035   2.743158   6.260583   5.060202
    34  H    3.424209   2.161718   1.084091   4.597523   2.640144
    35  H    6.710063   7.428197   7.069974   7.505235   8.763971
    36  H    6.189690   7.248017   7.371182   6.529203   8.437248
    37  H    6.445585   7.658994   8.175905   6.282399   8.587431
    38  H    6.342295   7.564606   8.439056   5.683574   8.139612
    39  H    4.739201   5.905694   7.039018   3.718392   6.209286
    40  H    4.571126   5.804909   7.013519   3.390214   6.083235
    41  H    5.241265   6.060376   7.428596   3.880275   5.778652
    42  H    4.538185   4.790459   6.152391   3.413815   4.018035
    43  H    3.857772   3.386474   4.540805   3.411265   2.145010
    44  H    3.403748   2.158818   2.637877   3.895581   1.084369
                   21         22         23         24         25
    21  C    0.000000
    22  C    1.395973   0.000000
    23  C    3.653036   4.813530   0.000000
    24  C    6.415459   7.479283   2.814660   0.000000
    25  C    5.817190   6.963955   2.432972   1.393506   0.000000
    26  C    4.473422   5.674083   1.398715   2.414250   1.394455
    27  C    2.411898   3.692741   1.402188   4.207099   3.681670
    28  C    2.766509   4.162333   2.367449   4.876033   4.070848
    29  C    1.395700   2.401167   4.101400   6.832884   6.014516
    30  C    2.408754   3.674108   3.617355   6.190736   5.287093
    31  H    9.010530   9.221509   7.252276   6.831678   7.978057
    32  H    8.307329   8.145826   7.637848   8.077493   8.949503
    33  H    6.895295   6.393765   7.328813   8.547450   9.082408
    34  H    4.816271   4.027484   6.350348   8.263622   8.405144
    35  H    8.867638   9.418007   6.218479   4.992967   6.307632
    36  H    7.894546   8.735213   4.590341   2.626391   4.010608
    37  H    7.488835   8.530509   3.899009   1.084422   2.146435
    38  H    6.562922   7.715420   3.411979   2.151612   1.084533
    39  H    4.316753   5.536392   2.159053   3.386098   2.136532
    40  H    3.851374   5.247128   2.606643   4.606796   3.746330
    41  H    3.394715   4.549530   4.475310   6.853900   5.848079
    42  H    2.160397   2.634395   5.169279   7.871023   6.994298
    43  H    2.158152   1.084357   5.731529   8.408537   7.788466
    44  H    3.396750   2.146955   6.166411   8.562706   8.307315
                   26         27         28         29         30
    26  C    0.000000
    27  C    2.392748   0.000000
    28  C    2.748934   1.398219   0.000000
    29  C    4.620642   2.796434   2.403524   0.000000
    30  C    3.929357   2.431350   1.393624   1.392718   0.000000
    31  H    8.151756   7.953965   9.272192  10.208136  10.319079
    32  H    8.747509   7.946339   9.305626   9.641493  10.078166
    33  H    8.529718   7.240041   8.536415   8.277013   9.000708
    34  H    7.527900   5.861615   6.991850   6.172510   7.132506
    35  H    6.818533   7.245640   8.428437   9.858478   9.664873
    36  H    4.800088   5.867404   6.839521   8.624165   8.172314
    37  H    3.393813   5.290529   5.915452   7.898595   7.228293
    38  H    2.152551   4.541156   4.712241   6.611808   5.817044
    39  H    1.084621   2.617765   2.531467   4.192029   3.443019
    40  H    2.624562   2.155084   1.084903   3.380955   2.140362
    41  H    4.566995   3.412084   2.154922   2.154255   1.084506
    42  H    5.607236   3.880054   3.385991   1.084413   2.147086
    43  H    6.468598   4.561257   4.793658   2.632668   4.020760
    44  H    7.171061   5.293283   6.074428   4.542370   5.774138
                   31         32         33         34         35
    31  H    0.000000
    32  H    2.553398   0.000000
    33  H    4.785468   2.464018   0.000000
    34  H    6.675182   4.806484   2.567171   0.000000
    35  H    2.461024   4.775055   6.574479   7.851573   0.000000
    36  H    4.751944   6.595416   7.775864   8.300798   2.529830
    37  H    6.981755   8.500412   9.210286   9.128446   4.895621
    38  H    8.877866   9.926336  10.074209   9.351478   7.092153
    39  H    9.147659   9.595750   9.171760   7.911313   7.880637
    40  H    9.603089   9.891406   9.333196   7.950639   8.509813
    41  H   11.329811  11.142387  10.066205   8.159264  10.578882
    42  H   11.153601  10.435461   8.895247   6.623702  10.896896
    43  H   10.260294   9.081510   7.190646   4.704611  10.492653
    44  H    8.700473   7.114102   4.972551   2.408153   9.436834
                   36         37         38         39         40
    36  H    0.000000
    37  H    2.391772   0.000000
    38  H    4.691979   2.470189   0.000000
    39  H    5.854981   4.273126   2.455110   0.000000
    40  H    6.708223   5.567777   4.271961   2.409959   0.000000
    41  H    8.964966   7.845140   6.235128   3.934082   2.465433
    42  H    9.694364   8.927724   7.520774   5.071302   4.273515
    43  H    9.775118   9.459077   8.462749   6.186881   5.858443
    44  H    9.298917   9.546726   9.134659   7.225122   7.144639
                   41         42         43         44
    41  H    0.000000
    42  H    2.476740   0.000000
    43  H    4.712032   2.400980   0.000000
    44  H    6.680502   4.693661   2.461235   0.000000
 Stoichiometry    C30H14
 Framework group  C1[X(C30H14)]
 Deg. of freedom   126
 Full point group                 C1      NOp   1
 Largest Abelian subgroup         C1      NOp   1
 Largest concise Abelian subgroup C1      NOp   1
                         Standard orientation:                         
 ---------------------------------------------------------------------
 Center     Atomic      Atomic             Coordinates (Angstroms)
 Number     Number       Type             X           Y           Z
 ---------------------------------------------------------------------
      1          6           0       -0.666980    2.900893    0.215015
      2          6           0       -2.062443    2.916308    0.090788
      3          6           0       -2.736243    1.770979   -0.335853
      4          6           0       -1.962060    0.726587   -0.824477
      5          6           0       -0.573420    0.701488   -0.721549
      6          6           0        0.090177    1.771252   -0.126316
      7          6           0       -0.201879   -0.723550   -0.595596
      8          6           0       -2.456621   -0.569344   -0.791002
      9          6           0       -1.391560   -1.441566   -0.630371
     10          6           0       -4.084899    1.523610   -0.056081
     11          6           0       -3.710982   -0.862771   -0.270063
     12          6           0       -4.572685    0.210252   -0.021517
     13          6           0       -1.557906   -2.647650    0.035059
     14          6           0       -3.932774   -2.163189    0.196238
     15          6           0       -2.859980   -3.052816    0.347866
     16          6           0        0.934409   -1.279440   -0.011258
     17          6           0        0.834005   -2.608854    0.423243
     18          6           0       -0.400142   -3.268376    0.507069
     19          6           0        2.172527   -0.630628   -0.079290
     20          6           0        1.989056   -3.295228    0.798434
     21          6           0        3.322919   -1.411965    0.078941
     22          6           0        3.235493   -2.714129    0.574388
     23          6           0        1.472778    1.737899    0.082087
     24          6           0       -0.035496    4.008740    0.782591
     25          6           0        1.332734    3.968380    1.043699
     26          6           0        2.074582    2.838483    0.700918
     27          6           0        2.317619    0.727637   -0.399312
     28          6           0        3.545274    1.163132   -0.907468
     29          6           0        4.575493   -0.918552   -0.289271
     30          6           0        4.671726    0.343421   -0.870500
     31          1           0       -5.568052    0.022687    0.365412
     32          1           0       -4.905453   -2.432781    0.592297
     33          1           0       -3.021576   -3.999857    0.850488
     34          1           0       -0.469082   -4.241122    0.980636
     35          1           0       -4.713438    2.329780    0.305445
     36          1           0       -2.631230    3.756957    0.471631
     37          1           0       -0.607612    4.885890    1.064127
     38          1           0        1.817834    4.809998    1.525953
     39          1           0        3.124521    2.806912    0.971169
     40          1           0        3.643024    2.171728   -1.295017
     41          1           0        5.628551    0.711944   -1.223812
     42          1           0        5.461166   -1.538250   -0.202610
     43          1           0        4.133677   -3.293374    0.757609
     44          1           0        1.931332   -4.316550    1.158190
 ---------------------------------------------------------------------
 Rotational constants (GHZ):           0.2650584           0.1837940           0.1140824
 Standard basis: 6-311+G(d,p) (5D, 7F)
 There are   774 symmetry adapted cartesian basis functions of A   symmetry.
 There are   744 symmetry adapted basis functions of A   symmetry.
   744 basis functions,  1192 primitive gaussians,   774 cartesian basis functions
    97 alpha electrons       97 beta electrons
       nuclear repulsion energy      2648.3550723043 Hartrees.
 NAtoms=   44 NActive=   44 NUniq=   44 SFac= 1.00D+00 NAtFMM=   60 NAOKFM=F Big=F
 Integral buffers will be    131072 words long.
 Raffenetti 2 integral format.
 Two-electron integral symmetry is turned on.
 One-electron integrals computed using PRISM.
 NBasis=   744 RedAO= T EigKep=  1.08D-06  NBF=   744
 NBsUse=   724 1.00D-06 EigRej=  9.27D-07 NBFU=   724
 ExpMin= 4.38D-02 ExpMax= 4.56D+03 ExpMxC= 6.82D+02 IAcc=2 IRadAn=         4 AccDes= 0.00D+00
 Harris functional with IExCor=  402 and IRadAn=       4 diagonalized for initial guess.
 HarFok:  IExCor=  402 AccDes= 0.00D+00 IRadAn=         4 IDoV= 1 UseB2=F ITyADJ=14
 ICtDFT=  3500011 ScaDFX=  1.000000  1.000000  1.000000  1.000000
 FoFCou: FMM=F IPFlag=           0 FMFlag=      100000 FMFlg1=           0
         NFxFlg=           0 DoJE=T BraDBF=F KetDBF=T FulRan=T
         wScrn=  0.000000 ICntrl=       500 IOpCl=  0 I1Cent=   200000004 NGrid=           0
         NMat0=    1 NMatS0=      1 NMatT0=    0 NMatD0=    1 NMtDS0=    0 NMtDT0=    0
 Petite list used in FoFCou.
 Requested convergence on RMS density matrix=1.00D-08 within 128 cycles.
 Requested convergence on MAX density matrix=1.00D-06.
 Requested convergence on             energy=1.00D-06.
 No special actions if energy rises.
 SCF Done:  E(RB3LYP) =  -1151.87176560     A.U. after   17 cycles
            NFock= 17  Conv=0.54D-08     -V/T= 2.0029

 **********************************************************************

            Population analysis using the SCF density.

 **********************************************************************

 Orbital symmetries:
       Occupied  (A) (A) (A) (A) (A) (A) (A) (A) (A) (A) (A) (A)
                 (A) (A) (A) (A) (A) (A) (A) (A) (A) (A) (A) (A)
                 (A) (A) (A) (A) (A) (A) (A) (A) (A) (A) (A) (A)
                 (A) (A) (A) (A) (A) (A) (A) (A) (A) (A) (A) (A)
                 (A) (A) (A) (A) (A) (A) (A) (A) (A) (A) (A) (A)
                 (A) (A) (A) (A) (A) (A) (A) (A) (A) (A) (A) (A)
                 (A) (A) (A) (A) (A) (A) (A) (A) (A) (A) (A) (A)
                 (A) (A) (A) (A) (A) (A) (A) (A) (A) (A) (A) (A)
                 (A)
       Virtual   (A) (A) (A) (A) (A) (A) (A) (A) (A) (A) (A) (A)
                 (A) (A) (A) (A) (A) (A) (A) (A) (A) (A) (A) (A)
                 (A) (A) (A) (A) (A) (A) (A) (A) (A) (A) (A) (A)
                 (A) (A) (A) (A) (A) (A) (A) (A) (A) (A) (A) (A)
                 (A) (A) (A) (A) (A) (A) (A) (A) (A) (A) (A) (A)
                 (A) (A) (A) (A) (A) (A) (A) (A) (A) (A) (A) (A)
                 (A) (A) (A) (A) (A) (A) (A) (A) (A) (A) (A) (A)
                 (A) (A) (A) (A) (A) (A) (A) (A) (A) (A) (A) (A)
                 (A) (A) (A) (A) (A) (A) (A) (A) (A) (A) (A) (A)
                 (A) (A) (A) (A) (A) (A) (A) (A) (A) (A) (A) (A)
                 (A) (A) (A) (A) (A) (A) (A) (A) (A) (A) (A) (A)
                 (A) (A) (A) (A) (A) (A) (A) (A) (A) (A) (A) (A)
                 (A) (A) (A) (A) (A) (A) (A) (A) (A) (A) (A) (A)
                 (A) (A) (A) (A) (A) (A) (A) (A) (A) (A) (A) (A)
                 (A) (A) (A) (A) (A) (A) (A) (A) (A) (A) (A) (A)
                 (A) (A) (A) (A) (A) (A) (A) (A) (A) (A) (A) (A)
                 (A) (A) (A) (A) (A) (A) (A) (A) (A) (A) (A) (A)
                 (A) (A) (A) (A) (A) (A) (A) (A) (A) (A) (A) (A)
                 (A) (A) (A) (A) (A) (A) (A) (A) (A) (A) (A) (A)
                 (A) (A) (A) (A) (A) (A) (A) (A) (A) (A) (A) (A)
                 (A) (A) (A) (A) (A) (A) (A) (A) (A) (A) (A) (A)
                 (A) (A) (A) (A) (A) (A) (A) (A) (A) (A) (A) (A)
                 (A) (A) (A) (A) (A) (A) (A) (A) (A) (A) (A) (A)
                 (A) (A) (A) (A) (A) (A) (A) (A) (A) (A) (A) (A)
                 (A) (A) (A) (A) (A) (A) (A) (A) (A) (A) (A) (A)
                 (A) (A) (A) (A) (A) (A) (A) (A) (A) (A) (A) (A)
                 (A) (A) (A) (A) (A) (A) (A) (A) (A) (A) (A) (A)
                 (A) (A) (A) (A) (A) (A) (A) (A) (A) (A) (A) (A)
                 (A) (A) (A) (A) (A) (A) (A) (A) (A) (A) (A) (A)
                 (A) (A) (A) (A) (A) (A) (A) (A) (A) (A) (A) (A)
                 (A) (A) (A) (A) (A) (A) (A) (A) (A) (A) (A) (A)
                 (A) (A) (A) (A) (A) (A) (A) (A) (A) (A) (A) (A)
                 (A) (A) (A) (A) (A) (A) (A) (A) (A) (A) (A) (A)
                 (A) (A) (A) (A) (A) (A) (A) (A) (A) (A) (A) (A)
                 (A) (A) (A) (A) (A) (A) (A) (A) (A) (A) (A) (A)
                 (A) (A) (A) (A) (A) (A) (A) (A) (A) (A) (A) (A)
                 (A) (A) (A) (A) (A) (A) (A) (A) (A) (A) (A) (A)
                 (A) (A) (A) (A) (A) (A) (A) (A) (A) (A) (A) (A)
                 (A) (A) (A) (A) (A) (A) (A) (A) (A) (A) (A) (A)
                 (A) (A) (A) (A) (A) (A) (A) (A) (A) (A) (A) (A)
                 (A) (A) (A) (A) (A) (A) (A) (A) (A) (A) (A) (A)
                 (A) (A) (A) (A) (A) (A) (A) (A) (A) (A) (A) (A)
                 (A) (A) (A) (A) (A) (A) (A) (A) (A) (A) (A) (A)
                 (A) (A) (A) (A) (A) (A) (A) (A) (A) (A) (A) (A)
                 (A) (A) (A) (A) (A) (A) (A) (A) (A) (A) (A) (A)
                 (A) (A) (A) (A) (A) (A) (A) (A) (A) (A) (A) (A)
                 (A) (A) (A) (A) (A) (A) (A) (A) (A) (A) (A) (A)
                 (A) (A) (A) (A) (A) (A) (A) (A) (A) (A) (A) (A)
                 (A) (A) (A) (A) (A) (A) (A) (A) (A) (A) (A) (A)
                 (A) (A) (A) (A) (A) (A) (A) (A) (A) (A) (A) (A)
                 (A) (A) (A) (A) (A) (A) (A) (A) (A) (A) (A) (A)
                 (A) (A) (A) (A) (A) (A) (A) (A) (A) (A) (A) (A)
                 (A) (A) (A)
 The electronic state is 1-A.
 Alpha  occ. eigenvalues --  -10.19060 -10.19046 -10.18970 -10.18901 -10.18816
 Alpha  occ. eigenvalues --  -10.18796 -10.18762 -10.18722 -10.18706 -10.18643
 Alpha  occ. eigenvalues --  -10.18619 -10.18604 -10.18549 -10.18542 -10.18477
 Alpha  occ. eigenvalues --  -10.18462 -10.18391 -10.18331 -10.18200 -10.18141
 Alpha  occ. eigenvalues --  -10.18093 -10.18081 -10.18034 -10.17997 -10.17931
 Alpha  occ. eigenvalues --  -10.17889 -10.17845 -10.16974 -10.16656 -10.16502
 Alpha  occ. eigenvalues --   -0.93615  -0.90492  -0.89448  -0.86237  -0.85239
 Alpha  occ. eigenvalues --   -0.84281  -0.81418  -0.80538  -0.78879  -0.77924
 Alpha  occ. eigenvalues --   -0.76158  -0.74970  -0.72986  -0.71672  -0.70565
 Alpha  occ. eigenvalues --   -0.67628  -0.65916  -0.64359  -0.63868  -0.63153
 Alpha  occ. eigenvalues --   -0.60536  -0.59923  -0.58920  -0.56869  -0.56173
 Alpha  occ. eigenvalues --   -0.53334  -0.52567  -0.51726  -0.51225  -0.50318
 Alpha  occ. eigenvalues --   -0.49124  -0.48042  -0.47402  -0.46083  -0.45840
 Alpha  occ. eigenvalues --   -0.45051  -0.44880  -0.44768  -0.43585  -0.42991
 Alpha  occ. eigenvalues --   -0.42707  -0.41581  -0.40998  -0.40816  -0.40505
 Alpha  occ. eigenvalues --   -0.40348  -0.40095  -0.39530  -0.38396  -0.37160
 Alpha  occ. eigenvalues --   -0.36591  -0.35641  -0.35544  -0.34895  -0.34498
 Alpha  occ. eigenvalues --   -0.34356  -0.33606  -0.33034  -0.30887  -0.29846
 Alpha  occ. eigenvalues --   -0.28339  -0.27732  -0.26016  -0.24203  -0.22698
 Alpha  occ. eigenvalues --   -0.20615  -0.19496
 Alpha virt. eigenvalues --   -0.09855  -0.06808  -0.04865  -0.03629  -0.02193
 Alpha virt. eigenvalues --   -0.00648   0.00053   0.00333   0.00496   0.00628
 Alpha virt. eigenvalues --    0.01651   0.01705   0.01919   0.02587   0.02962
 Alpha virt. eigenvalues --    0.03167   0.03426   0.03508   0.03902   0.04688
 Alpha virt. eigenvalues --    0.04963   0.05209   0.05479   0.05741   0.06400
 Alpha virt. eigenvalues --    0.06578   0.06708   0.07113   0.07390   0.07644
 Alpha virt. eigenvalues --    0.08418   0.08613   0.09089   0.09196   0.09883
 Alpha virt. eigenvalues --    0.10204   0.10352   0.10416   0.11075   0.11197
 Alpha virt. eigenvalues --    0.11432   0.11754   0.12343   0.12860   0.13024
 Alpha virt. eigenvalues --    0.13219   0.13933   0.14283   0.14622   0.14881
 Alpha virt. eigenvalues --    0.15147   0.15285   0.15495   0.16023   0.16159
 Alpha virt. eigenvalues --    0.16508   0.16697   0.16842   0.17069   0.17332
 Alpha virt. eigenvalues --    0.17483   0.17624   0.18077   0.18156   0.18315
 Alpha virt. eigenvalues --    0.18654   0.18790   0.18849   0.19172   0.19442
 Alpha virt. eigenvalues --    0.19551   0.19807   0.20171   0.20368   0.20454
 Alpha virt. eigenvalues --    0.20723   0.21084   0.21298   0.21360   0.21680
 Alpha virt. eigenvalues --    0.21908   0.22189   0.22512   0.22948   0.23027
 Alpha virt. eigenvalues --    0.23280   0.23476   0.23564   0.24020   0.24106
 Alpha virt. eigenvalues --    0.24332   0.24571   0.24951   0.25191   0.25426
 Alpha virt. eigenvalues --    0.25589   0.25751   0.25850   0.26268   0.26427
 Alpha virt. eigenvalues --    0.26840   0.26974   0.27048   0.27341   0.27848
 Alpha virt. eigenvalues --    0.28017   0.28137   0.28250   0.28738   0.28841
 Alpha virt. eigenvalues --    0.29061   0.29446   0.29589   0.30020   0.30151
 Alpha virt. eigenvalues --    0.30366   0.30596   0.30931   0.31202   0.31446
 Alpha virt. eigenvalues --    0.31556   0.32150   0.32342   0.32466   0.32662
 Alpha virt. eigenvalues --    0.33118   0.33329   0.33448   0.33686   0.34297
 Alpha virt. eigenvalues --    0.34370   0.34880   0.35130   0.35615   0.35879
 Alpha virt. eigenvalues --    0.36262   0.36956   0.37163   0.37548   0.37889
 Alpha virt. eigenvalues --    0.37997   0.38292   0.38510   0.38680   0.39404
 Alpha virt. eigenvalues --    0.40180   0.40541   0.40839   0.41992   0.43667
 Alpha virt. eigenvalues --    0.44418   0.45009   0.45508   0.46488   0.46780
 Alpha virt. eigenvalues --    0.47907   0.48655   0.49212   0.49906   0.50332
 Alpha virt. eigenvalues --    0.51467   0.51916   0.52238   0.52712   0.52869
 Alpha virt. eigenvalues --    0.53307   0.53809   0.54245   0.54839   0.55135
 Alpha virt. eigenvalues --    0.55757   0.55850   0.56678   0.57306   0.57712
 Alpha virt. eigenvalues --    0.57813   0.58121   0.58453   0.59287   0.59483
 Alpha virt. eigenvalues --    0.59750   0.60316   0.60749   0.60915   0.61264
 Alpha virt. eigenvalues --    0.61333   0.61932   0.61941   0.62389   0.62899
 Alpha virt. eigenvalues --    0.63124   0.63343   0.63913   0.64246   0.64546
 Alpha virt. eigenvalues --    0.65238   0.65897   0.66704   0.67039   0.67287
 Alpha virt. eigenvalues --    0.67939   0.68284   0.68552   0.69365   0.69576
 Alpha virt. eigenvalues --    0.70347   0.70554   0.70791   0.71110   0.71523
 Alpha virt. eigenvalues --    0.71964   0.72478   0.72725   0.73019   0.73345
 Alpha virt. eigenvalues --    0.73788   0.73799   0.74130   0.74435   0.74483
 Alpha virt. eigenvalues --    0.75090   0.75515   0.75913   0.76081   0.76384
 Alpha virt. eigenvalues --    0.76789   0.76839   0.77060   0.77235   0.77365
 Alpha virt. eigenvalues --    0.77818   0.78251   0.78978   0.79374   0.80449
 Alpha virt. eigenvalues --    0.80556   0.81247   0.81426   0.82263   0.82637
 Alpha virt. eigenvalues --    0.83145   0.83379   0.83593   0.84315   0.85234
 Alpha virt. eigenvalues --    0.85644   0.85850   0.86036   0.86890   0.87860
 Alpha virt. eigenvalues --    0.88072   0.88394   0.89126   0.89666   0.89996
 Alpha virt. eigenvalues --    0.90471   0.91168   0.91793   0.92024   0.92871
 Alpha virt. eigenvalues --    0.93186   0.93204   0.93793   0.94440   0.94976
 Alpha virt. eigenvalues --    0.95201   0.95394   0.96108   0.96871   0.97369
 Alpha virt. eigenvalues --    0.97570   0.97635   0.98546   0.99649   1.00121
 Alpha virt. eigenvalues --    1.00788   1.01308   1.02750   1.03022   1.03315
 Alpha virt. eigenvalues --    1.03981   1.04687   1.05203   1.05759   1.06819
 Alpha virt. eigenvalues --    1.07116   1.07721   1.08209   1.09311   1.09546
 Alpha virt. eigenvalues --    1.10220   1.10336   1.11490   1.12994   1.13728
 Alpha virt. eigenvalues --    1.14506   1.15566   1.16087   1.16176   1.17637
 Alpha virt. eigenvalues --    1.18576   1.19611   1.20682   1.21291   1.22088
 Alpha virt. eigenvalues --    1.23820   1.24592   1.26471   1.26709   1.28150
 Alpha virt. eigenvalues --    1.29000   1.30050   1.31580   1.33530   1.34782
 Alpha virt. eigenvalues --    1.35675   1.36263   1.37728   1.38346   1.41063
 Alpha virt. eigenvalues --    1.41695   1.41736   1.43299   1.44329   1.45042
 Alpha virt. eigenvalues --    1.46344   1.47186   1.47533   1.48283   1.48659
 Alpha virt. eigenvalues --    1.49526   1.50419   1.51260   1.52014   1.52411
 Alpha virt. eigenvalues --    1.52719   1.52922   1.53778   1.54572   1.54793
 Alpha virt. eigenvalues --    1.55182   1.55369   1.56133   1.56689   1.57681
 Alpha virt. eigenvalues --    1.58346   1.58828   1.59479   1.60290   1.60377
 Alpha virt. eigenvalues --    1.61581   1.61862   1.63484   1.63560   1.63795
 Alpha virt. eigenvalues --    1.64945   1.65898   1.66624   1.67128   1.67450
 Alpha virt. eigenvalues --    1.68197   1.68470   1.70184   1.71387   1.71886
 Alpha virt. eigenvalues --    1.72413   1.73305   1.73839   1.74614   1.75196
 Alpha virt. eigenvalues --    1.75946   1.76386   1.77151   1.77344   1.78310
 Alpha virt. eigenvalues --    1.78549   1.79458   1.80173   1.81553   1.82570
 Alpha virt. eigenvalues --    1.82817   1.83682   1.84182   1.84320   1.85847
 Alpha virt. eigenvalues --    1.86350   1.87049   1.88046   1.88231   1.89272
 Alpha virt. eigenvalues --    1.90024   1.91152   1.91918   1.92071   1.92219
 Alpha virt. eigenvalues --    1.92973   1.93548   1.94477   1.94679   1.95066
 Alpha virt. eigenvalues --    1.95922   1.96369   1.96945   1.97806   1.98143
 Alpha virt. eigenvalues --    1.98681   1.99591   2.00363   2.00682   2.01492
 Alpha virt. eigenvalues --    2.02590   2.03132   2.05032   2.05358   2.05629
 Alpha virt. eigenvalues --    2.06483   2.06838   2.07388   2.08663   2.09241
 Alpha virt. eigenvalues --    2.09826   2.12339   2.13373   2.14339   2.14753
 Alpha virt. eigenvalues --    2.15414   2.15836   2.16816   2.17567   2.19080
 Alpha virt. eigenvalues --    2.19458   2.20291   2.21259   2.22237   2.23046
 Alpha virt. eigenvalues --    2.23401   2.24198   2.25456   2.26228   2.27294
 Alpha virt. eigenvalues --    2.28177   2.29289   2.31028   2.32728   2.33367
 Alpha virt. eigenvalues --    2.35657   2.36626   2.38858   2.39535   2.40522
 Alpha virt. eigenvalues --    2.41862   2.42350   2.43020   2.43928   2.44776
 Alpha virt. eigenvalues --    2.46900   2.47260   2.48088   2.50817   2.52455
 Alpha virt. eigenvalues --    2.53891   2.55043   2.56067   2.56585   2.57130
 Alpha virt. eigenvalues --    2.58731   2.60555   2.62222   2.62535   2.64426
 Alpha virt. eigenvalues --    2.66095   2.66424   2.68482   2.69518   2.70549
 Alpha virt. eigenvalues --    2.70991   2.71593   2.72296   2.72822   2.73064
 Alpha virt. eigenvalues --    2.73307   2.73686   2.74463   2.75236   2.75489
 Alpha virt. eigenvalues --    2.76067   2.76412   2.76754   2.77343   2.77701
 Alpha virt. eigenvalues --    2.77891   2.77967   2.78733   2.79081   2.80294
 Alpha virt. eigenvalues --    2.81243   2.81948   2.82482   2.83179   2.84344
 Alpha virt. eigenvalues --    2.85087   2.86465   2.87277   2.87806   2.87995
 Alpha virt. eigenvalues --    2.89222   2.91035   2.91220   2.92270   2.92488
 Alpha virt. eigenvalues --    2.93690   2.94996   2.95652   2.95754   2.96409
 Alpha virt. eigenvalues --    2.97323   2.98229   3.02694   3.04473   3.05533
 Alpha virt. eigenvalues --    3.06839   3.07840   3.08427   3.09609   3.11434
 Alpha virt. eigenvalues --    3.13617   3.15535   3.17546   3.20152   3.20693
 Alpha virt. eigenvalues --    3.21861   3.22665   3.24836   3.25298   3.25946
 Alpha virt. eigenvalues --    3.26989   3.27605   3.28928   3.29727   3.32835
 Alpha virt. eigenvalues --    3.33698   3.36762   3.38007   3.39396   3.39907
 Alpha virt. eigenvalues --    3.40837   3.41135   3.43059   3.44301   3.44812
 Alpha virt. eigenvalues --    3.46465   3.46978   3.48574   3.50513   3.51001
 Alpha virt. eigenvalues --    3.51270   3.53640   3.54840   3.56985   3.57199
 Alpha virt. eigenvalues --    3.60489   3.63465   3.64243   3.65335   3.67084
 Alpha virt. eigenvalues --    3.68873   3.71508   3.74755   3.79140   3.84518
 Alpha virt. eigenvalues --    3.88884   3.94006   3.97445   4.00998   4.02991
 Alpha virt. eigenvalues --    4.07335   4.07701   4.09642   4.11341   4.12391
 Alpha virt. eigenvalues --    4.13009   4.17794   4.21823   4.24933   4.26707
 Alpha virt. eigenvalues --    4.32115   4.38921   4.45144   4.57881   4.60869
 Alpha virt. eigenvalues --    4.71996   4.78727   4.81291   4.84495   4.86884
 Alpha virt. eigenvalues --    4.92330   4.97150  23.41425  23.63913  23.66804
 Alpha virt. eigenvalues --   23.83633  23.87018  23.90438  23.95876  23.98222
 Alpha virt. eigenvalues --   23.99528  24.00138  24.03677  24.04260  24.05617
 Alpha virt. eigenvalues --   24.06288  24.06920  24.08881  24.09556  24.09734
 Alpha virt. eigenvalues --   24.10066  24.10797  24.11557  24.12729  24.13320
 Alpha virt. eigenvalues --   24.14270  24.16517  24.16765  24.18180  24.19123
 Alpha virt. eigenvalues --   24.20506  24.23133
          Condensed to atoms (all electrons):
               1          2          3          4          5          6
     1  C   12.992232   0.300030  -1.274564   0.178772  -0.704024   1.298248
     2  C    0.300030   8.769521   2.113851  -0.503398   0.586434   0.538497
     3  C   -1.274564   2.113851  13.493442  -0.556987   0.105161   0.309590
     4  C    0.178772  -0.503398  -0.556987  10.244414   1.795448  -0.744907
     5  C   -0.704024   0.586434   0.105161   1.795448  11.817730  -0.442204
     6  C    1.298248   0.538497   0.309590  -0.744907  -0.442204   9.203848
     7  C   -0.597190  -0.681423  -2.723704  -0.152271   0.499232   0.114957
     8  C   -0.069356  -1.514456  -3.036732   3.058781   0.315071  -0.807623
     9  C   -0.333592  -0.539145  -2.185176   0.434844   0.427168  -0.791420
    10  C    0.008230  -1.666744  -2.252544   0.593923  -0.791304  -0.822977
    11  C   -0.216270   1.088998   3.144443  -1.743741  -1.275523   0.310899
    12  C   -0.224719   0.125644  -0.822262  -0.292898  -0.295407   0.139750
    13  C   -0.255170   0.097200  -0.227290  -1.563760  -2.616215   0.073928
    14  C   -0.032592   0.156905   0.930894  -1.303276  -0.090741   0.177493
    15  C    0.100241   0.075413   0.381154   0.157435  -0.109936  -0.174436
    16  C    0.134288  -0.091912  -0.732327  -0.961730  -0.257714   0.265703
    17  C   -0.186735  -0.045447  -0.327045  -0.500078  -1.478567   0.111437
    18  C   -0.033598   0.047433   0.171947  -0.266939  -0.686393   0.135077
    19  C   -1.137979   0.059640  -0.007317  -0.106800   2.093457  -1.235893
    20  C   -0.051267   0.015209   0.043976   0.034580   0.663283  -0.292400
    21  C    0.020690  -0.061733  -0.045919   0.143761  -0.540563  -0.409508
    22  C    0.019471  -0.001612  -0.053245  -0.166352  -0.096611   0.109168
    23  C   -1.440217  -0.470695  -0.461728  -1.006092  -1.612028   1.291686
    24  C   -2.696115  -1.895693   0.354399  -1.746243  -0.979204   0.089812
    25  C   -0.762501  -0.298087  -0.259736  -0.054019  -0.084626   0.188455
    26  C    2.347781  -0.788761  -0.412485   0.909940  -2.285213   0.776766
    27  C   -2.397135   0.363041   0.112187   0.075516   3.034664  -2.809436
    28  C    0.482469  -0.228956   0.110418   0.192358  -0.258936  -0.372695
    29  C   -0.078757  -0.020424   0.040407   0.103609   0.140168   0.005344
    30  C    0.123296  -0.006020  -0.005666  -0.029801  -0.184330   0.173879
    31  H    0.001006  -0.000952  -0.014394  -0.015760   0.000091  -0.001266
    32  H    0.000296   0.002357   0.008450   0.002701   0.001512   0.000313
    33  H   -0.000191   0.000019  -0.001803  -0.003939   0.000426   0.000116
    34  H   -0.000008   0.000044   0.000660   0.002544   0.002438  -0.001584
    35  H    0.030001   0.051558  -0.100754   0.018263   0.004217   0.003341
    36  H   -0.085687   0.348990  -0.077668  -0.002286  -0.013208   0.004640
    37  H   -0.083706   0.094712   0.038624   0.009936  -0.005420   0.002184
    38  H    0.019033   0.001355   0.002052   0.001263   0.002504  -0.010850
    39  H   -0.014623  -0.001158   0.000072   0.000467   0.000392   0.006789
    40  H   -0.008082  -0.001365   0.000861  -0.000433   0.007360  -0.000014
    41  H   -0.000262  -0.000030   0.000034  -0.000013   0.000422   0.002326
    42  H   -0.000009  -0.000015  -0.000014   0.000049  -0.001252   0.000555
    43  H    0.000024  -0.000008   0.000008  -0.000051  -0.000688   0.000411
    44  H   -0.000064  -0.000013  -0.000091  -0.000376  -0.001778   0.000155
               7          8          9         10         11         12
     1  C   -0.597190  -0.069356  -0.333592   0.008230  -0.216270  -0.224719
     2  C   -0.681423  -1.514456  -0.539145  -1.666744   1.088998   0.125644
     3  C   -2.723704  -3.036732  -2.185176  -2.252544   3.144443  -0.822262
     4  C   -0.152271   3.058781   0.434844   0.593923  -1.743741  -0.292898
     5  C    0.499232   0.315071   0.427168  -0.791304  -1.275523  -0.295407
     6  C    0.114957  -0.807623  -0.791420  -0.822977   0.310899   0.139750
     7  C   10.512479   0.509678   2.569669   0.125098  -2.183557  -0.002980
     8  C    0.509678  13.349299   3.159548   2.032772  -1.736390  -2.376345
     9  C    2.569669   3.159548   9.774689   0.292092  -2.566084  -1.349521
    10  C    0.125098   2.032772   0.292092  10.378486  -2.241638   1.140838
    11  C   -2.183557  -1.736390  -2.566084  -2.241638  14.153779  -0.635701
    12  C   -0.002980  -2.376345  -1.349521   1.140838  -0.635701  10.028627
    13  C   -0.053758  -2.609823  -0.322088  -0.204315   2.075955   0.866094
    14  C   -0.595346  -2.363096  -0.227566  -0.871698  -0.716381   0.568022
    15  C   -1.206142   1.590690   0.068770  -0.445817  -1.026407  -0.882252
    16  C    1.958809  -0.623967   0.342304   0.067030  -0.436985  -0.055514
    17  C    0.416382  -0.420572  -0.207177  -0.017035   0.089264  -0.055206
    18  C   -0.017511  -1.092605  -0.668807  -0.037877   0.539333   0.059698
    19  C    0.671320  -0.081070   0.045460   0.008483  -0.027639  -0.022281
    20  C   -0.284358  -0.059072  -0.426366   0.004446  -0.082957  -0.024230
    21  C    0.131421  -0.035037  -0.064640   0.019090  -0.041564  -0.018274
    22  C   -0.518380  -0.108020  -0.343873   0.000073  -0.045324   0.004720
    23  C   -0.179748  -0.366374  -0.475152   0.043742  -0.158407  -0.041031
    24  C    0.078404  -0.085707  -0.231893   0.255972  -0.020818   0.006662
    25  C    0.163694  -0.070958   0.021496  -0.174909   0.026484  -0.005826
    26  C   -0.206282   0.033779   0.079695   0.068877  -0.133702  -0.063851
    27  C   -0.558140  -0.200433  -0.027473  -0.090125   0.077543  -0.006589
    28  C   -0.906496  -0.041259  -0.161724   0.065247  -0.120106  -0.024430
    29  C   -0.153912  -0.032950  -0.093164   0.006962   0.002012  -0.001314
    30  C   -0.051004  -0.004267  -0.034104  -0.004164   0.004980   0.001360
    31  H    0.002362   0.008186   0.001834  -0.034015  -0.124368   0.422030
    32  H   -0.000262   0.012869  -0.019917   0.018602  -0.103886   0.058853
    33  H    0.003220  -0.032701   0.008339   0.000757  -0.017205   0.007264
    34  H   -0.006263   0.010877   0.019431  -0.000115  -0.004530  -0.001213
    35  H    0.002192  -0.023723  -0.002387   0.374107  -0.024989  -0.002472
    36  H    0.001889   0.002982  -0.000425   0.048179  -0.000705   0.011380
    37  H   -0.002718   0.001489  -0.000085   0.008559   0.000341   0.000257
    38  H   -0.000645   0.000215   0.000062   0.000672   0.000023   0.000010
    39  H   -0.005825  -0.000761  -0.000960   0.000290  -0.000151   0.000025
    40  H   -0.008344  -0.000038   0.000049   0.000085  -0.000007   0.000010
    41  H   -0.002150  -0.000058  -0.000042   0.000002  -0.000005  -0.000000
    42  H    0.002133  -0.000017   0.000069  -0.000000  -0.000005  -0.000000
    43  H   -0.004065  -0.000120  -0.000906   0.000002  -0.000003  -0.000001
    44  H   -0.010787   0.000797   0.007335  -0.000001   0.000573   0.000069
              13         14         15         16         17         18
     1  C   -0.255170  -0.032592   0.100241   0.134288  -0.186735  -0.033598
     2  C    0.097200   0.156905   0.075413  -0.091912  -0.045447   0.047433
     3  C   -0.227290   0.930894   0.381154  -0.732327  -0.327045   0.171947
     4  C   -1.563760  -1.303276   0.157435  -0.961730  -0.500078  -0.266939
     5  C   -2.616215  -0.090741  -0.109936  -0.257714  -1.478567  -0.686393
     6  C    0.073928   0.177493  -0.174436   0.265703   0.111437   0.135077
     7  C   -0.053758  -0.595346  -1.206142   1.958809   0.416382  -0.017511
     8  C   -2.609823  -2.363096   1.590690  -0.623967  -0.420572  -1.092605
     9  C   -0.322088  -0.227566   0.068770   0.342304  -0.207177  -0.668807
    10  C   -0.204315  -0.871698  -0.445817   0.067030  -0.017035  -0.037877
    11  C    2.075955  -0.716381  -1.026407  -0.436985   0.089264   0.539333
    12  C    0.866094   0.568022  -0.882252  -0.055514  -0.055206   0.059698
    13  C   14.299519  -0.863746  -2.463272   0.256024  -0.250587   1.803861
    14  C   -0.863746  10.543516   1.226138   0.061910  -0.222764  -0.497878
    15  C   -2.463272   1.226138  10.898206  -1.113285  -0.253097  -0.932773
    16  C    0.256024   0.061910  -1.113285  10.020422   0.365782   0.186619
    17  C   -0.250587  -0.222764  -0.253097   0.365782  11.666529   1.613017
    18  C    1.803861  -0.497878  -0.932773   0.186619   1.613017   8.190890
    19  C   -0.735300  -0.049130  -0.118490   1.760367  -0.449794  -0.417553
    20  C   -1.034574  -0.097999  -0.145609   0.356905  -1.931416  -1.621415
    21  C   -0.395716  -0.047463  -0.000092  -0.363292   0.969450  -0.488975
    22  C    0.548113   0.019727  -0.143943   0.384274  -1.793523  -0.175774
    23  C    0.379539  -0.054432   0.075325   0.106044   0.761884   0.328916
    24  C   -0.073869  -0.000253   0.020156  -0.118847   0.014888  -0.005689
    25  C    0.006410   0.002762   0.003550  -0.005117   0.029509  -0.002368
    26  C    0.164421  -0.024041   0.006026  -1.197209   0.257859   0.011781
    27  C   -0.771221  -0.076768  -0.115656  -0.853387  -0.699772  -0.322868
    28  C   -0.200220  -0.018706   0.000578  -1.371313  -0.181112  -0.236811
    29  C   -0.163933  -0.005540   0.018164  -1.502615  -1.753828  -0.112428
    30  C    0.014999   0.001535  -0.011470  -0.007081   0.167935   0.030041
    31  H    0.008038   0.064605   0.019646   0.000431   0.000400   0.001660
[...]
 000011,-0.00000200,0.00002526,0.00003305,0.00000341,-0.00004811,0.0000
 1450,0.00000438,-0.00031768,-0.00006772,0.00005973,0.00000982,0.000144
 70,0.00001563,0.00000815,0.00001884,0.00000031,0.00006165,-0.00004909,
 0.00000789,0.00000883,0.00001261,-0.00000129,0.00001163,-0.00001646,0.
 00000880,0.00000498,-0.00000759,0.00000064,-0.00004835,-0.00004427,-0.
 00002020,-0.00001625,0.00000391,-0.00000589,0.00001703,0.00001319,0.00
 000801,0.00013021,-0.00014890,0.00029744,-0.00007666,-0.00020754,-0.00
 005413,0.00003010,0.00009458,0.00000264,-0.00093074,-0.00004586,-0.000
 03637,-0.00048476,0.00013898,-0.00001370,-0.00431532,0.00023453,-0.003
 68829,0.00037562,0.00127705,0.00006730,0.00043927,-0.00087355,0.000155
 10,-0.00001703,-0.00000720,-0.00000053,-0.00000169,0.00001662,-0.00000
 721,-0.00002909,-0.00000795,-0.00001983,-0.00278425,-0.00269805,-0.001
 37003,0.00744341,-0.02376840,0.00604914,-0.00028193,0.02893914,-0.0069
 5094,-0.06643257,0.04782127,-0.01887406,0.00000148,0.00000145,-0.00000
 014,0.00000087,0.00000180,-0.00000044,-0.00000115,0.00000094,-0.000001
 04,0.00000260,-0.00000515,0.00000011,0.00000069,-0.00000018,0.00000057
 ,-0.00000137,-0.00001080,0.00000598,-0.00000184,-0.00000106,0.00000488
 ,-0.00001850,-0.00000650,0.00000609,-0.00003353,-0.00003075,0.00004383
 ,0.00071645,0.00058834,0.00094667,0.06607390,-0.00000267,-0.00009689,-
 0.00002099,-0.00002645,0.00001326,-0.00000450,-0.00000085,-0.00000263,
 0.00000128,0.00000668,-0.00001235,-0.00001149,-0.00001240,0.00001627,-
 0.00000470,-0.00032969,0.00003353,0.00007416,-0.00000318,0.00002609,-0
 .00000130,0.00000052,0.00000271,0.00001616,0.00001032,-0.00004444,-0.0
 0000016,0.00000354,0.00001080,-0.00000280,0.00001115,-0.00003517,-0.00
 000416,0.00001104,0.00000229,0.00000108,-0.00002356,-0.00002564,-0.000
 00776,-0.00003008,0.00000429,-0.00000962,0.00000685,0.00002507,0.00000
 060,0.00007678,-0.00002255,-0.00016244,-0.00000385,-0.00005884,0.00001
 152,-0.00000108,0.00005506,0.00001119,-0.00051843,0.00043344,-0.000384
 78,0.00024561,0.00011267,-0.00001012,0.00091684,0.00213618,0.00167973,
 -0.00013996,-0.00048053,0.00004205,0.00056917,-0.00080256,0.00007622,-
 0.00005258,-0.00001381,-0.00000033,0.00001824,0.00001163,-0.00003596,-
 0.00003661,-0.00004460,-0.00002141,-0.00357599,-0.00001025,0.00082693,
 0.00670149,-0.01552668,0.00558575,-0.00053910,-0.00457351,0.00141920,0
 .04729588,-0.30800175,0.06965235,0.00000035,-0.00000669,0.00000133,0.0
 0000053,-0.00000690,0.00000162,0.00000479,-0.00000077,0.00000288,0.000
 00517,-0.00000008,0.00000067,-0.00000524,-0.00000305,0.00000121,-0.000
 00718,-0.00001220,-0.00000387,-0.00000559,-0.00000839,0.00000864,-0.00
 003046,-0.00000243,0.00000622,0.00002240,-0.00001366,0.00003522,-0.000
 02794,0.00069262,-0.00095652,-0.05111905,0.32572883,-0.00004483,-0.000
 08021,0.00008680,-0.00000190,0.00002525,-0.00000359,0.00001540,0.00000
 006,0.00000846,0.00003487,-0.00004806,0.00000115,-0.00003614,0.0000211
 3,-0.00004801,0.00001609,0.00003422,-0.00008754,-0.00000173,0.00006546
 ,0.00003911,-0.00003726,0.00005212,-0.00000071,0.00000801,-0.00005470,
 0.00006760,0.00001125,0.00001679,-0.00000409,0.00002529,-0.00005329,-0
 .00000069,0.00001262,-0.00001114,0.00000247,-0.00004525,-0.00007028,-0
 .00002229,-0.00005652,0.00000838,-0.00001922,0.00003613,0.00004622,0.0
 0001056,0.00019396,-0.00007305,-0.00088483,-0.00014165,-0.00018087,0.0
 0007692,0.00001410,0.00011113,0.00003633,-0.00061126,-0.00045056,-0.00
 078674,-0.00011512,0.00022049,-0.00042889,-0.00405549,0.00106836,0.006
 51432,0.00039519,0.00045677,0.00030860,0.00020620,-0.00012145,0.000056
 21,-0.00000021,-0.00001995,0.00000583,0.00003719,0.00002918,0.00000610
 ,0.00006135,0.00008063,-0.00016386,-0.00102344,-0.00049027,0.00622642,
 0.00134399,-0.00047569,0.00363502,0.00015315,0.00924959,0.00186919,-0.
 02070053,0.06927959,-0.05722311,0.00000145,0.00000159,0.00000130,0.000
 00004,0.00000128,0.00000242,-0.00000177,0.00000230,0.00000156,0.000002
 84,-0.00000230,-0.00000380,0.00000078,0.00000013,0.00000196,0.00000053
 ,0.00000238,-0.00002370,0.00000292,0.00000229,-0.00000393,0.00000721,0
 .00000243,0.00000236,0.00008560,0.00011843,0.00002401,0.00092184,-0.00
 092953,-0.00319925,0.02202540,-0.07698115,0.04754705,-0.00002784,0.000
 00909,-0.00000625,-0.00000037,-0.00000967,-0.00000043,-0.00001351,-0.0
 0000383,-0.00000200,0.00000152,0.00000971,-0.00000026,0.00005039,-0.00
 003010,0.00000933,-0.00004716,0.00012066,0.00001308,-0.00004979,-0.000
 00750,-0.00000810,-0.00000963,-0.00002707,0.00001000,0.00000518,0.0000
 5754,0.00000402,0.00000040,0.00000675,-0.00000002,-0.00000565,0.000014
 52,-0.00000861,0.00000200,-0.00000080,-0.00000069,0.00004844,0.0000306
 3,0.00001363,0.00002207,-0.00000341,0.00000667,-0.00001662,-0.00002076
 ,0.00000119,0.00013249,0.00037565,0.00002487,0.00016530,0.00019827,0.0
 0003881,-0.00002000,-0.00009121,-0.00001639,0.00050275,0.00143253,-0.0
 0154995,0.00019844,-0.00036147,0.00007095,0.00581097,0.00500520,0.0000
 0068,0.00029715,0.00220180,0.00071139,-0.00010809,-0.00011694,0.000283
 81,-0.00001986,-0.00005463,-0.00002126,0.00008207,0.00001560,0.0000233
 7,-0.00006623,-0.00011368,0.00009095,0.00004163,0.00055931,0.00012183,
 -0.00311810,0.00282544,-0.00382117,-0.20667414,-0.13717017,-0.02550769
 ,-0.01584943,-0.02143043,-0.00165512,0.00000019,-0.00000560,0.00000016
 ,0.00000061,-0.00000562,-0.00000057,0.00000487,-0.00000323,0.00000230,
 0.00000764,0.00000168,-0.00000075,-0.00000454,-0.00000304,-0.00000018,
 -0.00000557,-0.00000333,-0.00000156,-0.00000547,-0.00000779,-0.0000044
 1,-0.00001234,0.00000233,0.00000283,0.00001564,-0.00001964,-0.00007420
 ,-0.00080837,-0.00095119,0.00003770,0.00057367,0.00056496,0.00131580,0
 .21860244,0.00000704,-0.00001836,-0.00000018,-0.00001512,-0.00001157,-
 0.00000294,-0.00000055,0.00001161,0.00000237,0.00000130,-0.00006671,-0
 .00001815,0.00005522,0.00006234,0.00003975,0.00001586,-0.00007308,-0.0
 0000551,0.00039468,-0.00040829,0.00001789,-0.00001509,-0.00002417,-0.0
 0001339,-0.00012090,-0.00000587,-0.00006016,0.00000259,0.00000813,-0.0
 0000094,0.00001850,-0.00003357,0.00001464,0.00000660,-0.00000519,0.000
 00360,-0.00000111,-0.00007443,-0.00001701,-0.00004364,-0.00002693,-0.0
 0001295,0.00002037,0.00006510,0.00000895,-0.00159879,-0.00041846,-0.00
 024103,-0.00015818,0.00008204,-0.00000417,0.00011676,0.00009477,0.0000
 4243,0.00296738,-0.00374622,0.00177604,0.00054540,0.00017688,0.0000954
 9,-0.02343738,-0.01629791,-0.00303559,-0.00228356,0.00065162,-0.001204
 87,0.00009224,0.00012534,-0.00017743,0.00000715,0.00001553,0.00000371,
 -0.00001509,0.00000065,0.00001522,-0.00002992,0.00007043,-0.00003675,0
 .00069700,-0.00045403,0.00015668,0.00190075,0.00097567,0.00168606,-0.1
 3597453,-0.18017368,-0.01422798,0.00828701,0.00995678,0.00129442,-0.00
 000161,-0.00000422,0.,0.00000008,-0.00000278,0.00000047,0.00000499,-0.
 00000652,0.00000194,0.00001858,-0.00002952,0.00000742,-0.00000273,-0.0
 0000256,0.00000033,-0.00000223,-0.00000104,0.00000234,-0.00000293,-0.0
 0000051,-0.00000073,-0.00000416,0.00000080,-0.00000064,-0.00000029,0.0
 0000376,0.00000694,0.00041925,0.00023180,0.00002742,-0.00026954,0.0005
 3891,-0.00091258,0.14706388,0.18873859,0.00008147,-0.00008401,-0.00000
 270,-0.00001815,0.00002984,0.00000229,0.00002060,-0.00002788,-0.000007
 15,0.00000230,-0.00003591,-0.00000421,-0.00008129,0.00003628,-0.000012
 19,-0.00003848,-0.00021386,0.00005107,-0.00013113,0.00008480,0.0000246
 2,-0.00000399,0.00006074,-0.00004364,0.00000665,0.00000463,0.00003399,
 -0.00001258,0.00003057,-0.00000124,-0.00000398,-0.00004879,0.00001227,
 0.00003359,0.00000282,0.00001019,0.00002190,-0.00002313,-0.00001487,-0
 .00001915,-0.00000560,-0.00000892,0.00000360,0.00002276,-0.00000467,0.
 00022539,0.00035369,0.00013813,0.00010252,-0.00002001,0.00007456,-0.00
 001632,-0.00000577,0.00001689,-0.00006564,0.00181454,0.00528787,0.0000
 0375,-0.00018313,-0.00007064,0.00395493,0.00232765,0.00364195,0.001380
 47,0.00013279,-0.00309427,0.00043519,-0.00008339,-0.00085240,-0.000004
 68,0.00010113,0.00002703,-0.00008253,-0.00010911,-0.00005181,0.0000598
 8,0.00030514,-0.00001613,-0.00058423,0.00048915,-0.00094347,-0.0034037
 8,0.00249927,0.00611907,-0.02575669,-0.01324003,-0.04083011,-0.0067132
 9,-0.00714834,0.00332031,0.00000148,0.00000049,0.00000094,-0.00000112,
 0.00000022,0.00000239,0.00000112,0.00000103,-0.00000219,-0.00000574,0.
 00000394,0.00001053,-0.00000049,0.00000033,0.00000167,0.00000011,-0.00
 000330,0.00000364,-0.00000240,-0.00000524,0.00000714,0.00000825,0.0000
 0210,-0.00000352,0.00004232,-0.00008488,0.00004475,-0.00058619,-0.0004
 0763,0.00010743,0.00145702,-0.00085129,-0.00366774,0.02998624,0.014302
 49,0.03028069,-0.00000502,-0.00001562,-0.00000093,-0.00000892,-0.00001
 262,-0.00000272,-0.00002365,-0.00000032,-0.00000366,0.00004063,-0.0000
 1744,-0.00000317,0.00003242,0.00002310,0.00001465,-0.00001804,0.000034
 27,0.00001059,0.00008614,-0.00007201,0.00011310,-0.00003956,-0.0000003
 7,-0.00001098,-0.00002030,0.00001638,-0.00003884,0.00000690,0.00003078
 ,-0.00000116,0.00000123,-0.00002446,0.00001362,0.00002403,-0.00001109,
 0.00000332,-0.00005796,0.00005528,0.00022524,0.00000201,-0.00000308,-0
 .00002379,0.00002454,0.00001632,0.00004469,-0.00007025,0.00056731,0.00
 016959,0.00089700,0.00219576,-0.00236360,0.00029910,0.00010893,0.00003
 480,-0.00317846,0.00335169,-0.00222222,0.00936299,0.00882803,0.0009916
 7,-0.01695330,-0.02181439,-0.00418321,-0.17552739,-0.13488715,-0.03270
 183,-0.00015166,0.00036072,-0.00005462,-0.00001506,-0.00000752,-0.0000
 0674,0.00000955,0.00002256,0.00004616,-0.00013255,-0.00010619,-0.00000
 606,-0.00049464,-0.00147484,0.00023141,0.00013652,0.00013995,-0.000000
 71,0.00069853,-0.00225002,0.00109224,-0.00001529,0.00039842,-0.0000015
 1,0.00000137,-0.00000216,0.00000006,0.00000472,0.00000089,-0.00000526,
 0.00000149,-0.00000181,0.00000086,0.00000808,0.00000273,-0.00006982,-0
 .00000241,-0.00000246,0.00000194,-0.00000194,-0.00000376,0.00000222,-0
 .00000338,-0.00000381,-0.00000377,-0.00002027,-0.00000314,-0.00000276,
 0.00000900,0.00001165,-0.00002022,0.00004175,0.00007653,-0.00003133,-0
 .00002919,0.00001017,-0.00004148,0.00027014,0.00132413,-0.00025239,0.1
 8435404,-0.00000255,0.00000273,0.00000530,-0.00000371,-0.00002107,-0.0
 0000863,-0.00001906,0.00002762,0.00000514,-0.00003167,-0.00004360,-0.0
 0001079,0.00002844,0.00000714,0.00001656,-0.00002404,-0.00003030,-0.00
 001361,-0.00003501,0.00013331,-0.00006649,-0.00000122,0.00002876,-0.00
 000213,0.00008371,-0.00000594,0.00004606,0.00000528,-0.00002368,0.0000
 0236,0.00007939,-0.00004072,0.00001168,-0.00002173,0.00001798,-0.00000
 547,0.00020305,-0.00055438,-0.00004471,-0.00005755,-0.00008718,-0.0000
 0448,-0.00012040,0.00008028,-0.00005085,0.00035810,-0.00004762,0.00016
 841,0.00355800,-0.00356997,0.00153746,-0.00125695,-0.00035191,-0.00044
 791,0.00167998,0.00001279,0.00059062,-0.02230179,-0.01887014,-0.005148
 25,0.00625121,0.00659104,0.00164518,-0.13443024,-0.20591613,-0.0287883
 7,0.00009334,-0.00007578,-0.00000800,0.00000565,-0.00000262,-0.0000016
 1,0.00000811,0.00000004,-0.00001068,0.00002735,0.00004034,-0.00000059,
 0.00037439,0.00018578,0.00000588,0.00015903,0.00017795,0.00001179,0.00
 204329,0.00075025,0.00049097,-0.00031423,0.00018563,-0.00010900,-0.000
 00192,-0.00000785,0.00000082,-0.00001604,-0.00001803,0.00000034,0.0000
 1345,-0.00000719,0.00000650,0.00005200,-0.00001514,0.00004087,-0.00000
 590,-0.00000255,-0.00000075,-0.00000502,-0.00000075,0.00000141,-0.0000
 0424,-0.00000269,0.00000125,-0.00000203,0.00000381,0.00000310,0.000002
 43,0.00000238,-0.00000202,-0.00001000,0.00000390,0.00000051,-0.0000386
 2,0.00000928,-0.00001075,-0.00000975,0.00012278,-0.00000636,0.14335549
 ,0.22041179,0.00000850,-0.00001864,0.00000427,-0.00002859,0.00002033,0
 .00000643,0.00005565,-0.00002348,0.00000730,-0.00000907,-0.00006892,-0
 .00001157,0.00008645,0.00001682,0.00002789,-0.00000429,0.00003221,0.00
 001484,-0.00000319,-0.00040828,-0.00042521,-0.00006928,-0.00006143,-0.
 00003829,-0.00023861,0.00027790,0.00007412,-0.00002432,0.00003310,-0.0
 0000022,-0.00010321,0.00007888,-0.00003110,0.00003284,-0.00001372,0.00
 000175,0.00045841,0.00038916,-0.00071982,0.00010118,0.00003957,0.00009
 026,0.00005627,-0.00010439,-0.00007830,-0.00016396,0.00099032,-0.00064
 568,-0.00272878,0.00148536,0.00879610,0.00026864,-0.00041105,0.0003735
 9,-0.00193183,0.00004028,0.00272213,0.00246771,0.00178283,0.00519721,-
 0.00334703,-0.00622475,0.00170863,-0.03383308,-0.02737099,-0.04385760,
 -0.00006352,0.00013747,-0.00000502,-0.00001451,0.00001150,0.00000570,-
 0.00002377,-0.00000202,-0.00001233,-0.00002556,-0.00003585,-0.00001901
 ,-0.00033257,-0.00034216,0.00015690,-0.00005052,-0.00013968,0.00005328
 ,0.00025201,-0.00082187,-0.00179730,0.00028380,0.00013575,-0.00006137,
 0.00000006,-0.00000110,0.00000282,0.00000169,0.00000445,0.00001760,-0.
 00000141,-0.00000345,-0.00000434,-0.00009591,-0.00002959,0.00024096,-0
 .00000012,-0.00000236,-0.00000383,-0.00000199,-0.00000045,-0.00000149,
 -0.00000134,-0.00000165,0.00000184,-0.00000526,-0.00000360,0.00000441,
 0.00000381,-0.00000679,0.00001053,-0.00000058,0.00003090,0.00001746,-0
 .00002479,0.00002069,0.00005647,-0.00003908,0.00042949,0.00022938,0.03
 739763,0.03034170,0.03316991,-0.00001943,0.00001080,0.00000835,0.00000
 709,-0.00000812,-0.00000717,0.00001066,-0.00001182,0.00000493,-0.00014
 815,0.00002978,-0.00001798,0.00002138,-0.00023672,-0.00007303,-0.00000
 610,-0.00003572,-0.00001191,-0.00091820,0.00081411,-0.00013097,0.00014
 110,-0.00003065,0.00005223,0.00022401,0.00000442,0.00006330,-0.0000074
 9,-0.00004207,0.00000366,0.00006803,-0.00008508,0.00000692,-0.00002768
 ,0.00001581,-0.00000497,0.00009030,-0.00056314,0.00003708,-0.00014290,
 -0.00003510,-0.00003585,-0.00001150,0.00015680,-0.00002732,0.00004312,
 -0.00341832,-0.00144862,-0.01542179,0.00664795,-0.00484916,0.00046323,
 0.00217549,0.00083183,0.00027166,-0.00026109,0.00020866,-0.29872262,0.
 05778243,-0.07415923,0.00240100,0.00083733,-0.00206217,-0.00466929,-0.
 00041760,-0.00249212,0.00002180,0.00001539,-0.00000451,-0.00000217,-0.
 00001118,-0.00000359,0.00000954,0.00000931,0.00000030,-0.00002520,0.00
 000888,0.00000603,-0.00006543,0.00006786,0.00023383,0.00002662,-0.0000
 5213,-0.00002109,-0.00050079,-0.00006597,-0.00014007,0.00001322,0.0002
 6583,0.00015125,-0.00000435,-0.00001022,-0.00000122,-0.00000097,-0.000
 01129,0.00000284,0.00001517,-0.00002465,0.00000418,0.00066771,-0.00085
 416,0.00004042,-0.00000495,-0.00000613,-0.00000030,-0.00000592,-0.0000
 0184,0.00000058,-0.00000582,-0.00000213,0.00000124,-0.00000712,0.00000
 377,0.00000123,0.00000079,0.00000528,0.00000065,-0.00001037,0.00000405
 ,-0.00002874,-0.00003952,0.00000946,-0.00001461,0.00002672,0.00001061,
 -0.00004457,0.00045706,0.00033198,0.00169152,0.31578754,-0.00000553,0.
 00000965,0.00000303,-0.00000093,0.00000705,0.00000140,0.00002289,-0.00
 003352,0.00000794,-0.00015289,0.00003144,-0.00001113,-0.00005005,-0.00
 026804,-0.00011812,0.00004120,-0.00004820,-0.00001023,-0.00110385,0.00
 051855,-0.00017164,0.00010662,-0.00002978,0.00002547,-0.00013234,0.000
 10189,-0.00003036,-0.00001829,-0.00000851,0.00000070,-0.00003397,-0.00
 001340,-0.00001486,0.00000792,-0.00000324,0.00000365,0.00035401,0.0000
 8336,0.00013703,-0.00000520,0.00002430,0.00000259,-0.00000861,-0.00002
 563,0.00000046,-0.00198110,-0.00353588,-0.00082019,-0.02113555,0.00760
 434,-0.00579074,-0.00164608,0.00112931,-0.00041151,-0.00006663,-0.0005
 4831,-0.00003179,0.05700717,-0.07125012,0.01610625,-0.00032509,-0.0049
 9521,0.00041784,0.03047761,-0.00285454,0.00839348,0.00000215,-0.000044
 31,0.00000271,0.00001446,-0.00000223,-0.00000106,-0.00000971,0.0000105
 2,0.00000293,0.00002659,0.00002250,-0.00000997,-0.00000149,0.00021911,
 0.00000010,-0.00010278,-0.00009983,-0.00003111,0.00131490,0.00039687,0
 .00023534,0.00011979,-0.00045565,0.00013816,-0.00000211,0.00000033,-0.
 00000026,0.00000745,0.00000410,-0.00000128,-0.00000567,-0.00001494,-0.
 00000268,0.00042025,-0.00049007,0.00013048,0.00000213,-0.00000313,-0.0
 0000044,0.00000002,0.00000159,-0.00000213,-0.00000045,0.00000368,0.000
 00113,0.00000547,-0.00000049,0.00000106,-0.00000859,0.00000440,0.00001
 114,0.00001375,0.00000316,-0.00000686,0.00013625,-0.00004656,0.0000696
 3,-0.00004471,-0.00004792,-0.00001873,-0.00021681,0.00089965,-0.000202
 49,-0.06302222,0.07374369,-0.00000767,0.00000226,-0.00000205,0.0000037
 7,0.00000663,-0.00000480,0.00000786,-0.00000835,-0.00000533,-0.0000389
 7,0.00002127,-0.00000941,-0.00003340,-0.00007868,0.00000379,0.00000911
 ,-0.00001457,0.00000107,-0.00028201,0.00029132,0.00015899,0.00003847,-
 0.00000152,0.00004273,0.00005846,-0.00001209,-0.00002791,-0.00000705,-
 0.00000917,-0.00000646,0.00000046,-0.00002350,-0.00001921,0.00000116,0
 .00000667,0.00000556,0.00013374,-0.00010314,-0.00010903,-0.00001531,0.
 00000170,0.00001206,-0.00003686,0.00000102,0.00002776,-0.00088991,-0.0
 0147044,0.00346767,-0.00512650,0.00206240,0.00126936,0.00061865,0.0005
 3287,-0.00166556,-0.00002830,-0.00021514,-0.00059752,-0.07362756,0.015
 89784,-0.05718028,-0.00158478,0.00110319,0.00914137,-0.00348511,0.0006
 6841,0.00370855,0.00002578,-0.00001080,0.00000351,-0.00000229,-0.00000
 410,-0.00000479,0.00000882,0.00000772,-0.00000591,0.00000867,0.0000114
 3,0.00000909,0.00025062,-0.00019854,-0.00068794,0.00004267,0.00021807,
 0.00011810,0.00009295,-0.00020677,0.00015095,0.00002103,-0.00004870,-0
 .00069518,-0.00000136,-0.00000198,0.00000365,0.00000089,-0.00000401,-0
 .00000749,-0.00000073,-0.00000402,0.00001432,0.00004665,-0.00027025,0.
 00025189,-0.00000072,-0.00000097,-0.00000003,-0.00000072,-0.00000059,0
 .00000436,-0.00000174,-0.00000127,0.00000281,-0.00000013,0.00000019,0.
 00000125,-0.00000141,0.00000036,0.00000955,-0.00001003,0.00001707,0.00
 004230,-0.00002344,-0.00000135,-0.00001621,-0.00005089,0.00003694,0.00
 018309,0.00165896,-0.00019247,-0.00527928,0.08222818,-0.01800492,0.047
 69060\\-0.00001418,-0.00000166,-0.00000141,0.00000533,0.00000202,0.000
 00596,-0.00000320,-0.00000261,-0.00000195,-0.00000048,0.00000659,-0.00
 000665,-0.00000805,-0.00000366,-0.00000733,0.00000900,-0.00000293,0.00
 000287,0.00000735,0.00000448,0.00000595,0.00000183,-0.00000629,0.00000
 972,-0.00000228,0.00000176,0.00000315,-0.00000137,0.00000103,0.0000053
 5,0.00000016,0.00000270,-0.00000179,-0.00000389,-0.00000133,0.00000323
 ,0.00000350,-0.00000505,-0.00000202,0.00000133,-0.00000112,0.00000069,
 -0.00000203,0.00000155,0.00000279,-0.00000549,-0.00001241,-0.00000395,
 0.00000735,-0.00000698,0.00000494,-0.00000420,0.00000322,0.00000271,-0
 .00001806,0.00000599,-0.00000648,0.00000307,0.00000431,-0.00000121,0.0
 0001355,0.00001705,-0.00000111,-0.00000487,-0.00000250,-0.00000007,0.0
 0001129,0.00000403,-0.00000594,0.00000428,0.00000378,-0.00000262,0.000
 00107,0.00000216,-0.00000120,-0.00000613,-0.00000201,0.00000093,0.0000
 0257,-0.00001339,0.00000782,0.00000814,0.00001833,-0.00000511,0.000004
 19,-0.00001298,-0.00000107,-0.00001205,-0.00000496,-0.00000288,-0.0000
 0105,0.00000071,0.00000237,-0.00000014,0.00000072,0.00000354,-0.000001
 06,-0.00000088,0.00000244,0.00000043,0.00000065,0.00000145,0.00000044,
 -0.00000017,-0.00000053,-0.00000130,-0.00000007,-0.00000061,0.00000012
 ,-0.00000081,0.00000080,0.00000019,0.00000030,-0.00000196,0.00000207,0
 .00000225,-0.00000458,-0.00000246,-0.00000360,-0.00000197,0.00000420,0
 .00000014,-0.00000224,0.00000009,0.00000213,-0.00000039,0.00000119,0.0
 0000050,-0.00000213,-0.00000046,-0.00000101,0.00000047\\\@


 THIS CURIOUS WORLD WHICH WE INHABIT IS MORE WONDERFUL THAN IT IS CONVENIENT;
 MORE BEAUTIFUL THAN IT IS USEFUL;
 IT IS MORE TO BE ADMIRED THAN IT IS TO BE USED.

                                                                 -- THOREAU
 Job cpu time:       0 days 23 hours 13 minutes 28.5 seconds.
 Elapsed time:       0 days  1 hours  9 minutes 39.9 seconds.
 File lengths (MBytes):  RWF=   2134 Int=      0 D2E=      0 Chk=     51 Scr=      1
 Normal termination of Gaussian 16 at Tue Apr 30 03:53:39 2019.
