 Entering Gaussian System, Link 0=/share/apps/gaussian16/g16/g16
 Initial command:
 /share/apps/gaussian16/g16/l1.exe "/home/am2145//scratch/4092/Gau-14255.inp" -scrdir="/home/am2145//scratch/4092/"
 Entering Link 1 = /share/apps/gaussian16/g16/l1.exe PID=     14256.
  
 Copyright (c) 1988,1990,1992,1993,1995,1998,2003,2009,2016,
            Gaussian, Inc.  All Rights Reserved.
  
 This is part of the Gaussian(R) 16 program.  It is based on
 the Gaussian(R) 09 system (copyright 2009, Gaussian, Inc.),
 the Gaussian(R) 03 system (copyright 2003, Gaussian, Inc.),
 the Gaussian(R) 98 system (copyright 1998, Gaussian, Inc.),
 the Gaussian(R) 94 system (copyright 1995, Gaussian, Inc.),
 the Gaussian 92(TM) system (copyright 1992, Gaussian, Inc.),
 the Gaussian 90(TM) system (copyright 1990, Gaussian, Inc.),
 the Gaussian 88(TM) system (copyright 1988, Gaussian, Inc.),
 the Gaussian 86(TM) system (copyright 1986, Carnegie Mellon
 University), and the Gaussian 82(TM) system (copyright 1983,
 Carnegie Mellon University). Gaussian is a federally registered
 trademark of Gaussian, Inc.
  
 This software contains proprietary and confidential information,
 including trade secrets, belonging to Gaussian, Inc.
  
 This software is provided under written license and may be
 used, copied, transmitted, or stored only in accord with that
 written license.
  
 The following legend is applicable only to US Government
 contracts under FAR:
  
                    RESTRICTED RIGHTS LEGEND
  
 Use, reproduction and disclosure by the US Government is
 subject to restrictions as set forth in subparagraphs (a)
 and (c) of the Commercial Computer Software - Restricted
 Rights clause in FAR 52.227-19.
  
 Gaussian, Inc.
 340 Quinnipiac St., Bldg. 40, Wallingford CT 06492
  
  
 ---------------------------------------------------------------
 Warning -- This program may not be used in any manner that
 competes with the business of Gaussian, Inc. or will provide
 assistance to any competitor of Gaussian, Inc.  The licensee
 of this program is prohibited from giving any competitor of
 Gaussian, Inc. access to this program.  By using this program,
 the user acknowledges that Gaussian, Inc. is engaged in the
 business of creating and licensing software in the field of
 computational chemistry and represents and warrants to the
 licensee that it is not a competitor of Gaussian, Inc. and that
 it will not use this program in any manner prohibited above.
 ---------------------------------------------------------------
  

 Cite this work as:
 Gaussian 16, Revision A.03,
 M. J. Frisch, G. W. Trucks, H. B. Schlegel, G. E. Scuseria, 
 M. A. Robb, J. R. Cheeseman, G. Scalmani, V. Barone, 
 G. A. Petersson, H. Nakatsuji, X. Li, M. Caricato, A. V. Marenich, 
 J. Bloino, B. G. Janesko, R. Gomperts, B. Mennucci, H. P. Hratchian, 
 J. V. Ortiz, A. F. Izmaylov, J. L. Sonnenberg, D. Williams-Young, 
 F. Ding, F. Lipparini, F. Egidi, J. Goings, B. Peng, A. Petrone, 
 T. Henderson, D. Ranasinghe, V. G. Zakrzewski, J. Gao, N. Rega, 
 G. Zheng, W. Liang, M. Hada, M. Ehara, K. Toyota, R. Fukuda, 
 J. Hasegawa, M. Ishida, T. Nakajima, Y. Honda, O. Kitao, H. Nakai, 
 T. Vreven, K. Throssell, J. A. Montgomery, Jr., J. E. Peralta, 
 F. Ogliaro, M. J. Bearpark, J. J. Heyd, E. N. Brothers, K. N. Kudin, 
 V. N. Staroverov, T. A. Keith, R. Kobayashi, J. Normand, 
 K. Raghavachari, A. P. Rendell, J. C. Burant, S. S. Iyengar, 
 J. Tomasi, M. Cossi, J. M. Millam, M. Klene, C. Adamo, R. Cammi, 
 J. W. Ochterski, R. L. Martin, K. Morokuma, O. Farkas, 
 J. B. Foresman, and D. J. Fox, Gaussian, Inc., Wallingford CT, 2016.
 
 ******************************************
 Gaussian 16:  ES64L-G16RevA.03 25-Dec-2016
                30-Apr-2019 
 ******************************************
 %nprocshared=20
 Will use up to   20 processors via shared memory.
 %mem=100GB
 %chk=7-path-1.chk
 -------------------------------------------
 # opt freq b3lyp/6-311+g(d,p) int=grid=fine
 -------------------------------------------
 1/18=20,19=15,26=3,38=1/1,3;
 2/9=110,12=2,17=6,18=5,40=1/2;
 3/5=4,6=6,7=111,11=2,25=1,30=1,71=1,74=-5,75=-4/1,2,3;
 4//1;
 5/5=2,38=5/2;
 6/7=2,8=2,9=2,10=2,28=1/1;
 7//1,2,3,16;
 1/18=20,19=15,26=3/3(2);
 2/9=110/2;
 99//99;
 2/9=110/2;
 3/5=4,6=6,7=111,11=2,25=1,30=1,71=1,74=-5,75=-4/1,2,3;
 4/5=5,16=3,69=1/1;
 5/5=2,38=5/2;
 7//1,2,3,16;
 1/18=20,19=15,26=3/3(-5);
 2/9=110/2;
 6/7=2,8=2,9=2,10=2,19=2,28=1/1;
 99/9=1/99;
 --------
 7-path-1
 --------
 Symbolic Z-matrix:
 Charge =  0 Multiplicity = 1
 C                    -3.12214   1.60289   0.16151 
 C                    -3.45174   0.18359  -0.10873 
 C                    -2.41322  -0.80498  -0.36649 
 C                    -1.07558  -0.27076  -0.56358 
 C                    -0.62996   1.1204   -0.27559 
 C                    -1.65857   2.06723   0.18535 
 C                     0.87213   1.08465  -0.27787 
 C                     0.07202  -1.14119  -0.64637 
 C                     1.25141  -0.34043  -0.44065 
 C                    -2.53443  -2.27823  -0.37623 
 C                     0.01845  -2.57857  -0.43275 
 C                    -1.33623  -3.15363  -0.38628 
 C                     2.5125   -0.93482  -0.03184 
 C                     1.3177   -3.22237  -0.17304 
 C                     2.54512  -2.41125   0.02467 
 C                     1.97151   2.04797  -0.11323 
 C                     3.31162   1.47828   0.36329 
 C                     3.54798   0.01257   0.36531 
 C                     1.91809   3.48767  -0.48964 
 C                     4.33223   2.42061   0.8195 
 C                     2.99615   4.41747   0.01364 
 C                     4.14092   3.85019   0.71974 
 C                    -1.38227   3.38068   0.77749 
 C                    -4.16407   2.58637   0.48953 
 C                    -3.83011   3.93223   0.91363 
 C                    -2.44558   4.32212   1.07334 
 C                     0.94488   4.04461  -1.44565 
 C                     0.84782   5.47189  -1.68707 
 C                     2.86015   5.85715  -0.23915 
 C                     1.7918    6.37854  -1.0698 
 H                    -1.45932  -4.20861  -0.1733 
 H                     1.34962  -4.28034   0.05782 
 H                     3.44145  -2.90642   0.37909 
 H                     4.49684  -0.36666   0.72476 
 H                    -3.50222  -2.72857  -0.1893 
 H                    -4.47698  -0.14744   0.00295 
 H                    -5.20326   2.2801    0.49501 
 H                    -4.61751   4.60917   1.22149 
 H                    -2.20172   5.27224   1.53291 
 H                     0.31167   3.3774   -2.01833 
 H                     0.10321   5.84921  -2.37704 
 H                     1.74912   7.43718  -1.29344 
 H                     3.61216   6.53985   0.1375 
 H                     4.9144    4.5085    1.09699 
 H                     5.27072   2.0453    1.2098 
 H                    -0.38485   3.60844   1.13184 
 

 GradGradGradGradGradGradGradGradGradGradGradGradGradGradGradGradGradGrad
 Berny optimization.
 Initialization pass.
                           ----------------------------
                           !    Initial Parameters    !
                           ! (Angstroms and Degrees)  !
 --------------------------                            --------------------------
 ! Name  Definition              Value          Derivative Info.                !
 --------------------------------------------------------------------------------
 ! R1    R(1,2)                  1.4819         estimate D2E/DX2                !
 ! R2    R(1,6)                  1.5356         estimate D2E/DX2                !
 ! R3    R(1,24)                 1.4698         estimate D2E/DX2                !
 ! R4    R(2,3)                  1.4568         estimate D2E/DX2                !
 ! R5    R(2,36)                 1.0831         estimate D2E/DX2                !
 ! R6    R(3,4)                  1.4538         estimate D2E/DX2                !
 ! R7    R(3,10)                 1.4783         estimate D2E/DX2                !
 ! R8    R(4,5)                  1.4889         estimate D2E/DX2                !
 ! R9    R(4,8)                  1.4427         estimate D2E/DX2                !
 ! R10   R(5,6)                  1.4721         estimate D2E/DX2                !
 ! R11   R(5,7)                  1.5025         estimate D2E/DX2                !
 ! R12   R(6,23)                 1.467          estimate D2E/DX2                !
 ! R13   R(7,9)                  1.4836         estimate D2E/DX2                !
 ! R14   R(7,16)                 1.471          estimate D2E/DX2                !
 ! R15   R(8,9)                  1.4403         estimate D2E/DX2                !
 ! R16   R(8,11)                 1.4542         estimate D2E/DX2                !
 ! R17   R(9,13)                 1.4528         estimate D2E/DX2                !
 ! R18   R(10,12)                1.484          estimate D2E/DX2                !
 ! R19   R(10,35)                1.0837         estimate D2E/DX2                !
 ! R20   R(11,12)                1.4724         estimate D2E/DX2                !
 ! R21   R(11,14)                1.4731         estimate D2E/DX2                !
 ! R22   R(12,31)                1.0833         estimate D2E/DX2                !
 ! R23   R(13,15)                1.4779         estimate D2E/DX2                !
 ! R24   R(13,18)                1.4586         estimate D2E/DX2                !
 ! R25   R(14,15)                1.4844         estimate D2E/DX2                !
 ! R26   R(14,32)                1.0833         estimate D2E/DX2                !
 ! R27   R(15,33)                1.0836         estimate D2E/DX2                !
 ! R28   R(16,17)                1.5322         estimate D2E/DX2                !
 ! R29   R(16,19)                1.4891         estimate D2E/DX2                !
 ! R30   R(17,18)                1.4846         estimate D2E/DX2                !
 ! R31   R(17,20)                1.4621         estimate D2E/DX2                !
 ! R32   R(18,34)                1.0832         estimate D2E/DX2                !
 ! R33   R(19,21)                1.51           estimate D2E/DX2                !
 ! R34   R(19,27)                1.4735         estimate D2E/DX2                !
 ! R35   R(20,22)                1.4458         estimate D2E/DX2                !
 ! R36   R(20,45)                1.0835         estimate D2E/DX2                !
 ! R37   R(21,22)                1.4598         estimate D2E/DX2                !
 ! R38   R(21,29)                1.468          estimate D2E/DX2                !
 ! R39   R(22,44)                1.0835         estimate D2E/DX2                !
 ! R40   R(23,26)                1.4507         estimate D2E/DX2                !
 ! R41   R(23,46)                1.0827         estimate D2E/DX2                !
 ! R42   R(24,25)                1.4501         estimate D2E/DX2                !
 ! R43   R(24,37)                1.0834         estimate D2E/DX2                !
 ! R44   R(25,26)                1.4472         estimate D2E/DX2                !
 ! R45   R(25,38)                1.0831         estimate D2E/DX2                !
 ! R46   R(26,39)                1.0832         estimate D2E/DX2                !
 ! R47   R(27,28)                1.4508         estimate D2E/DX2                !
 ! R48   R(27,40)                1.0836         estimate D2E/DX2                !
 ! R49   R(28,30)                1.4471         estimate D2E/DX2                !
 ! R50   R(28,41)                1.083          estimate D2E/DX2                !
 ! R51   R(29,30)                1.4502         estimate D2E/DX2                !
 ! R52   R(29,43)                1.0833         estimate D2E/DX2                !
 ! R53   R(30,42)                1.0828         estimate D2E/DX2                !
 ! A1    A(2,1,6)              120.2918         estimate D2E/DX2                !
 ! A2    A(2,1,24)             121.5919         estimate D2E/DX2                !
 ! A3    A(6,1,24)             118.0222         estimate D2E/DX2                !
 ! A4    A(1,2,3)              121.5762         estimate D2E/DX2                !
 ! A5    A(1,2,36)             118.9754         estimate D2E/DX2                !
 ! A6    A(3,2,36)             119.0538         estimate D2E/DX2                !
 ! A7    A(2,3,4)              115.5026         estimate D2E/DX2                !
 ! A8    A(2,3,10)             128.2437         estimate D2E/DX2                !
 ! A9    A(4,3,10)             116.1531         estimate D2E/DX2                !
 ! A10   A(3,4,5)              126.3347         estimate D2E/DX2                !
 ! A11   A(3,4,8)              121.1955         estimate D2E/DX2                !
 ! A12   A(5,4,8)              109.6785         estimate D2E/DX2                !
 ! A13   A(4,5,6)              116.8981         estimate D2E/DX2                !
 ! A14   A(4,5,7)              106.0624         estimate D2E/DX2                !
 ! A15   A(6,5,7)              135.5884         estimate D2E/DX2                !
 ! A16   A(1,6,5)              117.8142         estimate D2E/DX2                !
 ! A17   A(1,6,23)             117.1609         estimate D2E/DX2                !
 ! A18   A(5,6,23)             124.7958         estimate D2E/DX2                !
 ! A19   A(5,7,9)              106.176          estimate D2E/DX2                !
 ! A20   A(5,7,16)             137.0059         estimate D2E/DX2                !
 ! A21   A(9,7,16)             116.7602         estimate D2E/DX2                !
 ! A22   A(4,8,9)              107.9216         estimate D2E/DX2                !
 ! A23   A(4,8,11)             123.9608         estimate D2E/DX2                !
 ! A24   A(9,8,11)             123.9682         estimate D2E/DX2                !
 ! A25   A(7,9,8)              109.8987         estimate D2E/DX2                !
 ! A26   A(7,9,13)             125.7322         estimate D2E/DX2                !
 ! A27   A(8,9,13)             121.5673         estimate D2E/DX2                !
 ! A28   A(3,10,12)            121.4498         estimate D2E/DX2                !
 ! A29   A(3,10,35)            119.0941         estimate D2E/DX2                !
 ! A30   A(12,10,35)           118.4969         estimate D2E/DX2                !
 ! A31   A(8,11,12)            115.1241         estimate D2E/DX2                !
 ! A32   A(8,11,14)            115.1765         estimate D2E/DX2                !
 ! A33   A(12,11,14)           129.4359         estimate D2E/DX2                !
 ! A34   A(10,12,11)           120.8436         estimate D2E/DX2                !
 ! A35   A(10,12,31)           118.7783         estimate D2E/DX2                !
 ! A36   A(11,12,31)           119.4128         estimate D2E/DX2                !
 ! A37   A(9,13,15)            116.0171         estimate D2E/DX2                !
 ! A38   A(9,13,18)            115.2836         estimate D2E/DX2                !
 ! A39   A(15,13,18)           128.5215         estimate D2E/DX2                !
 ! A40   A(11,14,15)           120.9278         estimate D2E/DX2                !
 ! A41   A(11,14,32)           119.3647         estimate D2E/DX2                !
 ! A42   A(15,14,32)           118.7426         estimate D2E/DX2                !
 ! A43   A(13,15,14)           121.5027         estimate D2E/DX2                !
 ! A44   A(13,15,33)           119.162          estimate D2E/DX2                !
 ! A45   A(14,15,33)           118.5432         estimate D2E/DX2                !
 ! A46   A(7,16,17)            116.4243         estimate D2E/DX2                !
 ! A47   A(7,16,19)            125.3156         estimate D2E/DX2                !
 ! A48   A(17,16,19)           118.0016         estimate D2E/DX2                !
 ! A49   A(16,17,18)           120.4476         estimate D2E/DX2                !
 ! A50   A(16,17,20)           117.9011         estimate D2E/DX2                !
 ! A51   A(18,17,20)           121.6498         estimate D2E/DX2                !
 ! A52   A(13,18,17)           121.8601         estimate D2E/DX2                !
 ! A53   A(13,18,34)           119.0007         estimate D2E/DX2                !
 ! A54   A(17,18,34)           119.0478         estimate D2E/DX2                !
 ! A55   A(16,19,21)           119.0449         estimate D2E/DX2                !
 ! A56   A(16,19,27)           123.5825         estimate D2E/DX2                !
 ! A57   A(21,19,27)           117.068          estimate D2E/DX2                !
 ! A58   A(17,20,22)           121.5597         estimate D2E/DX2                !
 ! A59   A(17,20,45)           119.5888         estimate D2E/DX2                !
 ! A60   A(22,20,45)           118.8149         estimate D2E/DX2                !
 ! A61   A(19,21,22)           118.8048         estimate D2E/DX2                !
 ! A62   A(19,21,29)           118.7081         estimate D2E/DX2                !
 ! A63   A(22,21,29)           122.4836         estimate D2E/DX2                !
 ! A64   A(20,22,21)           121.4269         estimate D2E/DX2                !
 ! A65   A(20,22,44)           118.835          estimate D2E/DX2                !
 ! A66   A(21,22,44)           119.4814         estimate D2E/DX2                !
 ! A67   A(6,23,26)            121.6886         estimate D2E/DX2                !
 ! A68   A(6,23,46)            119.6002         estimate D2E/DX2                !
 ! A69   A(26,23,46)           118.1621         estimate D2E/DX2                !
 ! A70   A(1,24,25)            121.5355         estimate D2E/DX2                !
 ! A71   A(1,24,37)            119.467          estimate D2E/DX2                !
 ! A72   A(25,24,37)           118.8034         estimate D2E/DX2                !
 ! A73   A(24,25,26)           120.1753         estimate D2E/DX2                !
 ! A74   A(24,25,38)           119.7226         estimate D2E/DX2                !
 ! A75   A(26,25,38)           119.7203         estimate D2E/DX2                !
 ! A76   A(23,26,25)           120.2572         estimate D2E/DX2                !
 ! A77   A(23,26,39)           119.3886         estimate D2E/DX2                !
 ! A78   A(25,26,39)           119.9001         estimate D2E/DX2                !
 ! A79   A(19,27,28)           121.5998         estimate D2E/DX2                !
 ! A80   A(19,27,40)           119.7441         estimate D2E/DX2                !
 ! A81   A(28,27,40)           118.6027         estimate D2E/DX2                !
 ! A82   A(27,28,30)           120.1154         estimate D2E/DX2                !
 ! A83   A(27,28,41)           119.6545         estimate D2E/DX2                !
 ! A84   A(30,28,41)           120.1306         estimate D2E/DX2                !
 ! A85   A(21,29,30)           121.2957         estimate D2E/DX2                !
 ! A86   A(21,29,43)           119.5955         estimate D2E/DX2                !
 ! A87   A(30,29,43)           118.9453         estimate D2E/DX2                !
 ! A88   A(28,30,29)           119.9744         estimate D2E/DX2                !
 ! A89   A(28,30,42)           119.9148         estimate D2E/DX2                !
 ! A90   A(29,30,42)           119.9214         estimate D2E/DX2                !
 ! D1    D(6,1,2,3)             -0.413          estimate D2E/DX2                !
 ! D2    D(6,1,2,36)           172.3066         estimate D2E/DX2                !
 ! D3    D(24,1,2,3)          -176.814          estimate D2E/DX2                !
 ! D4    D(24,1,2,36)           -4.0944         estimate D2E/DX2                !
 ! D5    D(2,1,6,5)              9.5764         estimate D2E/DX2                !
 ! D6    D(2,1,6,23)          -165.1912         estimate D2E/DX2                !
 ! D7    D(24,1,6,5)          -173.8961         estimate D2E/DX2                !
 ! D8    D(24,1,6,23)           11.3363         estimate D2E/DX2                !
 ! D9    D(2,1,24,25)          172.3089         estimate D2E/DX2                !
 ! D10   D(2,1,24,37)           -2.567          estimate D2E/DX2                !
 ! D11   D(6,1,24,25)           -4.171          estimate D2E/DX2                !
 ! D12   D(6,1,24,37)         -179.0469         estimate D2E/DX2                !
 ! D13   D(1,2,3,4)             -9.975          estimate D2E/DX2                !
 ! D14   D(1,2,3,10)           166.2058         estimate D2E/DX2                !
 ! D15   D(36,2,3,4)           177.311          estimate D2E/DX2                !
 ! D16   D(36,2,3,10)           -6.5083         estimate D2E/DX2                !
 ! D17   D(2,3,4,5)             12.4396         estimate D2E/DX2                !
 ! D18   D(2,3,4,8)            171.5129         estimate D2E/DX2                !
 ! D19   D(10,3,4,5)          -164.2193         estimate D2E/DX2                !
 ! D20   D(10,3,4,8)            -5.146          estimate D2E/DX2                !
 ! D21   D(2,3,10,12)         -167.5091         estimate D2E/DX2                !
 ! D22   D(2,3,10,35)            1.1151         estimate D2E/DX2                !
 ! D23   D(4,3,10,12)            8.6505         estimate D2E/DX2                !
 ! D24   D(4,3,10,35)          177.2747         estimate D2E/DX2                !
 ! D25   D(3,4,5,6)             -3.5104         estimate D2E/DX2                !
 ! D26   D(3,4,5,7)            164.8931         estimate D2E/DX2                !
 ! D27   D(8,4,5,6)           -164.5764         estimate D2E/DX2                !
 ! D28   D(8,4,5,7)              3.8271         estimate D2E/DX2                !
 ! D29   D(3,4,8,9)           -163.1534         estimate D2E/DX2                !
 ! D30   D(3,4,8,11)            -5.3616         estimate D2E/DX2                !
 ! D31   D(5,4,8,9)             -0.9462         estimate D2E/DX2                !
 ! D32   D(5,4,8,11)           156.8457         estimate D2E/DX2                !
 ! D33   D(4,5,6,1)             -7.59           estimate D2E/DX2                !
 ! D34   D(4,5,6,23)           166.7395         estimate D2E/DX2                !
 ! D35   D(7,5,6,1)           -171.5663         estimate D2E/DX2                !
 ! D36   D(7,5,6,23)             2.7632         estimate D2E/DX2                !
 ! D37   D(4,5,7,9)             -5.1031         estimate D2E/DX2                !
 ! D38   D(4,5,7,16)           177.904          estimate D2E/DX2                !
 ! D39   D(6,5,7,9)            160.0538         estimate D2E/DX2                !
 ! D40   D(6,5,7,16)           -16.939          estimate D2E/DX2                !
 ! D41   D(1,6,23,26)          -12.5586         estimate D2E/DX2                !
 ! D42   D(1,6,23,46)          158.7848         estimate D2E/DX2                !
 ! D43   D(5,6,23,26)          173.0783         estimate D2E/DX2                !
 ! D44   D(5,6,23,46)          -15.5783         estimate D2E/DX2                !
 ! D45   D(5,7,9,8)              4.7369         estimate D2E/DX2                !
 ! D46   D(5,7,9,13)          -156.3932         estimate D2E/DX2                !
 ! D47   D(16,7,9,8)          -177.5593         estimate D2E/DX2                !
 ! D48   D(16,7,9,13)           21.3106         estimate D2E/DX2                !
 ! D49   D(5,7,16,17)          155.863          estimate D2E/DX2                !
 ! D50   D(5,7,16,19)          -30.119          estimate D2E/DX2                !
 ! D51   D(9,7,16,17)          -20.9023         estimate D2E/DX2                !
 ! D52   D(9,7,16,19)          153.1157         estimate D2E/DX2                !
 ! D53   D(4,8,9,7)             -2.4128         estimate D2E/DX2                !
 ! D54   D(4,8,9,13)           159.6403         estimate D2E/DX2                !
 ! D55   D(11,8,9,7)          -160.2027         estimate D2E/DX2                !
 ! D56   D(11,8,9,13)            1.8505         estimate D2E/DX2                !
 ! D57   D(4,8,11,12)           11.7578         estimate D2E/DX2                !
 ! D58   D(4,8,11,14)         -162.9097         estimate D2E/DX2                !
 ! D59   D(9,8,11,12)          166.0595         estimate D2E/DX2                !
 ! D60   D(9,8,11,14)           -8.6081         estimate D2E/DX2                !
 ! D61   D(7,9,13,15)          165.0713         estimate D2E/DX2                !
 ! D62   D(7,9,13,18)          -10.5018         estimate D2E/DX2                !
 ! D63   D(8,9,13,15)            5.9829         estimate D2E/DX2                !
 ! D64   D(8,9,13,18)         -169.5902         estimate D2E/DX2                !
 ! D65   D(3,10,12,11)          -2.08           estimate D2E/DX2                !
 ! D66   D(3,10,12,31)         166.6133         estimate D2E/DX2                !
 ! D67   D(35,10,12,11)       -170.7701         estimate D2E/DX2                !
 ! D68   D(35,10,12,31)         -2.0768         estimate D2E/DX2                !
 ! D69   D(8,11,12,10)          -7.8555         estimate D2E/DX2                !
 ! D70   D(8,11,12,31)        -176.4779         estimate D2E/DX2                !
 ! D71   D(14,11,12,10)        165.8927         estimate D2E/DX2                !
 ! D72   D(14,11,12,31)         -2.7298         estimate D2E/DX2                !
 ! D73   D(8,11,14,15)           7.5198         estimate D2E/DX2                !
 ! D74   D(8,11,14,32)         176.1399         estimate D2E/DX2                !
 ! D75   D(12,11,14,15)       -166.2256         estimate D2E/DX2                !
 ! D76   D(12,11,14,32)          2.3944         estimate D2E/DX2                !
 ! D77   D(9,13,15,14)          -6.7808         estimate D2E/DX2                !
 ! D78   D(9,13,15,33)        -176.4378         estimate D2E/DX2                !
 ! D79   D(18,13,15,14)        168.1013         estimate D2E/DX2                !
 ! D80   D(18,13,15,33)         -1.5558         estimate D2E/DX2                !
 ! D81   D(9,13,18,17)           0.7126         estimate D2E/DX2                !
 ! D82   D(9,13,18,34)         177.2025         estimate D2E/DX2                !
 ! D83   D(15,13,18,17)       -174.2009         estimate D2E/DX2                !
 ! D84   D(15,13,18,34)          2.289          estimate D2E/DX2                !
 ! D85   D(11,14,15,13)         -0.0435         estimate D2E/DX2                !
 ! D86   D(11,14,15,33)        169.6756         estimate D2E/DX2                !
 ! D87   D(32,14,15,13)       -168.733          estimate D2E/DX2                !
 ! D88   D(32,14,15,33)          0.9861         estimate D2E/DX2                !
 ! D89   D(7,16,17,18)          12.7762         estimate D2E/DX2                !
 ! D90   D(7,16,17,20)        -166.7847         estimate D2E/DX2                !
 ! D91   D(19,16,17,18)       -161.6969         estimate D2E/DX2                !
 ! D92   D(19,16,17,20)         18.7422         estimate D2E/DX2                !
 ! D93   D(7,16,19,21)         166.4538         estimate D2E/DX2                !
 ! D94   D(7,16,19,27)         -20.078          estimate D2E/DX2                !
 ! D95   D(17,16,19,21)        -19.6138         estimate D2E/DX2                !
 ! D96   D(17,16,19,27)        153.8544         estimate D2E/DX2                !
 ! D97   D(16,17,18,13)         -2.3487         estimate D2E/DX2                !
 ! D98   D(16,17,18,34)       -178.837          estimate D2E/DX2                !
 ! D99   D(20,17,18,13)        177.1954         estimate D2E/DX2                !
 ! D100  D(20,17,18,34)          0.7072         estimate D2E/DX2                !
 ! D101  D(16,17,20,22)         -5.3427         estimate D2E/DX2                !
 ! D102  D(16,17,20,45)        176.8836         estimate D2E/DX2                !
 ! D103  D(18,17,20,22)        175.102          estimate D2E/DX2                !
 ! D104  D(18,17,20,45)         -2.6717         estimate D2E/DX2                !
 ! D105  D(16,19,21,22)          7.1756         estimate D2E/DX2                !
 ! D106  D(16,19,21,29)       -173.4948         estimate D2E/DX2                !
 ! D107  D(27,19,21,22)       -166.7151         estimate D2E/DX2                !
 ! D108  D(27,19,21,29)         12.6145         estimate D2E/DX2                !
 ! D109  D(16,19,27,28)        174.1015         estimate D2E/DX2                !
 ! D110  D(16,19,27,40)         -8.592          estimate D2E/DX2                !
 ! D111  D(21,19,27,28)        -12.3107         estimate D2E/DX2                !
 ! D112  D(21,19,27,40)        164.9958         estimate D2E/DX2                !
 ! D113  D(17,20,22,21)         -7.5567         estimate D2E/DX2                !
 ! D114  D(17,20,22,44)        178.296          estimate D2E/DX2                !
 ! D115  D(45,20,22,21)        170.2337         estimate D2E/DX2                !
 ! D116  D(45,20,22,44)         -3.9135         estimate D2E/DX2                !
 ! D117  D(19,21,22,20)          6.6904         estimate D2E/DX2                !
 ! D118  D(19,21,22,44)       -179.1994         estimate D2E/DX2                !
 ! D119  D(29,21,22,20)       -172.6125         estimate D2E/DX2                !
 ! D120  D(29,21,22,44)          1.4977         estimate D2E/DX2                !
 ! D121  D(19,21,29,30)         -6.2588         estimate D2E/DX2                !
 ! D122  D(19,21,29,43)        178.4385         estimate D2E/DX2                !
 ! D123  D(22,21,29,30)        173.0448         estimate D2E/DX2                !
 ! D124  D(22,21,29,43)         -2.2579         estimate D2E/DX2                !
 ! D125  D(6,23,26,25)           6.2535         estimate D2E/DX2                !
 ! D126  D(6,23,26,39)         178.5145         estimate D2E/DX2                !
 ! D127  D(46,23,26,25)       -165.2098         estimate D2E/DX2                !
 ! D128  D(46,23,26,39)          7.0512         estimate D2E/DX2                !
 ! D129  D(1,24,25,26)          -2.3998         estimate D2E/DX2                !
 ! D130  D(1,24,25,38)        -175.2885         estimate D2E/DX2                !
 ! D131  D(37,24,25,26)        172.5092         estimate D2E/DX2                !
 ! D132  D(37,24,25,38)         -0.3795         estimate D2E/DX2                !
 ! D133  D(24,25,26,23)          1.5859         estimate D2E/DX2                !
 ! D134  D(24,25,26,39)       -170.6355         estimate D2E/DX2                !
 ! D135  D(38,25,26,23)        174.4747         estimate D2E/DX2                !
 ! D136  D(38,25,26,39)          2.2533         estimate D2E/DX2                !
 ! D137  D(19,27,28,30)          5.2408         estimate D2E/DX2                !
 ! D138  D(19,27,28,41)       -178.3803         estimate D2E/DX2                !
 ! D139  D(40,27,28,30)       -172.0955         estimate D2E/DX2                !
 ! D140  D(40,27,28,41)          4.2834         estimate D2E/DX2                !
 ! D141  D(27,28,30,29)          1.7686         estimate D2E/DX2                !
 ! D142  D(27,28,30,42)        176.764          estimate D2E/DX2                !
 ! D143  D(41,28,30,29)       -174.593          estimate D2E/DX2                !
 ! D144  D(41,28,30,42)          0.4025         estimate D2E/DX2                !
 ! D145  D(21,29,30,28)         -1.0959         estimate D2E/DX2                !
 ! D146  D(21,29,30,42)       -176.0911         estimate D2E/DX2                !
 ! D147  D(43,29,30,28)        174.2366         estimate D2E/DX2                !
 ! D148  D(43,29,30,42)         -0.7585         estimate D2E/DX2                !
 --------------------------------------------------------------------------------
 Trust Radius=3.00D-01 FncErr=1.00D-07 GrdErr=1.00D-06 EigMax=2.50D+02 EigMin=1.00D-04
 Number of steps in this run=    276 maximum allowed number of steps=    276.
 GradGradGradGradGradGradGradGradGradGradGradGradGradGradGradGradGradGrad

                          Input orientation:                          
 ---------------------------------------------------------------------
 Center     Atomic      Atomic             Coordinates (Angstroms)
 Number     Number       Type             X           Y           Z
 ---------------------------------------------------------------------
      1          6           0       -3.122140    1.602890    0.161510
      2          6           0       -3.451740    0.183590   -0.108730
      3          6           0       -2.413220   -0.804980   -0.366490
      4          6           0       -1.075580   -0.270760   -0.563580
      5          6           0       -0.629960    1.120400   -0.275590
      6          6           0       -1.658570    2.067230    0.185350
      7          6           0        0.872130    1.084650   -0.277870
      8          6           0        0.072020   -1.141190   -0.646370
      9          6           0        1.251410   -0.340430   -0.440650
     10          6           0       -2.534430   -2.278230   -0.376230
     11          6           0        0.018450   -2.578570   -0.432750
     12          6           0       -1.336230   -3.153630   -0.386280
     13          6           0        2.512500   -0.934820   -0.031840
     14          6           0        1.317700   -3.222370   -0.173040
     15          6           0        2.545120   -2.411250    0.024670
     16          6           0        1.971510    2.047970   -0.113230
     17          6           0        3.311620    1.478280    0.363290
     18          6           0        3.547980    0.012570    0.365310
     19          6           0        1.918090    3.487670   -0.489640
     20          6           0        4.332230    2.420610    0.819500
     21          6           0        2.996150    4.417470    0.013640
     22          6           0        4.140920    3.850190    0.719740
     23          6           0       -1.382270    3.380680    0.777490
     24          6           0       -4.164070    2.586370    0.489530
     25          6           0       -3.830110    3.932230    0.913630
     26          6           0       -2.445580    4.322120    1.073340
     27          6           0        0.944880    4.044610   -1.445650
     28          6           0        0.847820    5.471890   -1.687070
     29          6           0        2.860150    5.857150   -0.239150
     30          6           0        1.791800    6.378540   -1.069800
     31          1           0       -1.459320   -4.208610   -0.173300
     32          1           0        1.349620   -4.280340    0.057820
     33          1           0        3.441450   -2.906420    0.379090
     34          1           0        4.496840   -0.366660    0.724760
     35          1           0       -3.502220   -2.728570   -0.189300
     36          1           0       -4.476980   -0.147440    0.002950
     37          1           0       -5.203260    2.280100    0.495010
     38          1           0       -4.617510    4.609170    1.221490
     39          1           0       -2.201720    5.272240    1.532910
     40          1           0        0.311670    3.377400   -2.018330
     41          1           0        0.103210    5.849210   -2.377040
     42          1           0        1.749120    7.437180   -1.293440
     43          1           0        3.612160    6.539850    0.137500
     44          1           0        4.914400    4.508500    1.096990
     45          1           0        5.270720    2.045300    1.209800
     46          1           0       -0.384850    3.608440    1.131840
 ---------------------------------------------------------------------
                    Distance matrix (angstroms):
                    1          2          3          4          5
     1  C    0.000000
     2  C    1.481917   0.000000
     3  C    2.564993   1.456789   0.000000
     4  C    2.867879   2.461597   1.453794   0.000000
     5  C    2.575813   2.977902   2.625903   1.488906   0.000000
     6  C    1.535649   2.617258   3.020532   2.523286   1.472070
     7  C    4.051644   4.419997   3.791053   2.390050   1.502517
     8  C    4.287809   3.802760   2.523448   1.442736   2.396882
     9  C    4.823591   4.743879   3.694702   2.331276   2.387639
    10  C    3.962027   2.640752   1.478260   2.488630   3.897155
    11  C    5.263179   4.447104   3.010487   2.557343   3.758659
    12  C    5.110189   3.960992   2.583884   2.900054   4.333405
    13  C    6.182760   6.068683   4.938782   3.687552   3.762765
    14  C    6.565610   5.861080   4.449827   3.819989   4.760625
    15  C    6.946213   6.535543   5.226686   4.247023   4.758554
    16  C    5.120434   5.734769   5.237301   3.855396   2.766657
    17  C    6.438129   6.902323   6.206420   4.813081   4.009027
    18  C    6.860113   7.017837   6.061339   4.724449   4.369579
    19  C    5.420361   6.316416   6.099365   4.805551   3.484587
    20  C    7.527898   8.152059   7.570475   6.196837   5.245293
    21  C    6.736260   7.714661   7.528597   6.236319   4.909480
    22  C    7.623255   8.472237   8.112167   6.770599   5.586030
    23  C    2.562639   3.910176   4.459966   3.901992   2.604575
    24  C    1.469846   2.576564   3.911458   4.337165   3.901847
    25  C    2.548084   3.903932   5.107587   5.237815   4.422849
    26  C    2.946757   4.420077   5.325534   5.064677   3.920089
    27  C    5.008554   6.002091   5.996661   4.845898   3.521387
    28  C    5.843543   6.995962   7.195652   6.159523   4.807450
    29  C    7.351670   8.488006   8.497566   7.290165   5.883791
    30  C    6.962023   8.172868   8.353430   7.258879   5.843263
    31  H    6.053974   4.823415   3.540049   3.975706   5.394131
    32  H    7.390520   6.558008   5.139760   4.726993   5.761761
    33  H    7.966300   7.569822   6.264910   5.314028   5.763702
    34  H    7.889565   8.011080   7.009414   5.720217   5.431034
    35  H    4.362233   2.913712   2.217547   3.474118   4.803321
    36  H    2.219096   1.083130   2.197260   3.450462   4.060119
    37  H    2.213797   2.797799   4.247849   4.966411   4.780565
    38  H    3.520995   4.765948   6.057524   6.288518   5.505753
    39  H    4.023933   5.491074   6.370640   6.032272   4.793629
    40  H    4.437526   5.292471   5.257937   4.165313   3.002975
    41  H    5.905790   7.062730   7.392765   6.490933   5.226402
    42  H    7.738539   9.003724   9.279952   8.241600   6.826254
    43  H    8.350147   9.505859   9.513450   8.297640   6.894684
    44  H    8.596724   9.494783   9.168907   7.840834   6.641018
    45  H    8.469636   9.015863   8.345761   6.984593   6.154661
    46  H    3.529381   4.761767   5.083065   4.289493   2.869021
                    6          7          8          9         10
     6  C    0.000000
     7  C    2.753993   0.000000
     8  C    3.739072   2.393811   0.000000
     9  C    3.828405   1.483645   1.440312   0.000000
    10  C    4.468280   4.787827   2.856469   4.253446   0.000000
    11  C    4.977741   3.764563   1.454154   2.555293   2.571108
    12  C    5.261943   4.780337   2.469966   3.822686   1.483951
    13  C    5.143666   2.613351   2.525110   1.452850   5.234010
    14  C    6.080008   4.331275   2.471249   2.895097   3.971346
    15  C    6.144397   3.887383   2.859995   2.485660   5.097082
    16  C    3.642390   1.470962   3.750072   2.515989   6.252093
    17  C    5.008125   2.552869   4.286729   2.863301   6.988173
    18  C    5.600194   2.953508   3.799600   2.459352   6.541663
    19  C    3.907142   2.629331   4.985868   3.886028   7.285836
    20  C    6.034626   3.867984   5.743221   4.324670   8.405944
    21  C    5.217234   3.962843   6.315445   5.088036   8.693199
    22  C    6.090862   4.396410   6.583014   5.220830   9.127923
    23  C    1.467011   3.386423   4.958795   4.718771   5.889126
    24  C    2.576735   5.311062   5.755817   6.225658   5.202845
    25  C    2.953676   5.624895   6.587853   6.775806   6.473974
    26  C    2.548027   4.828476   6.256474   6.139973   6.758237
    27  C    3.653511   3.182824   5.319140   4.509164   7.295722
    28  C    4.623814   4.608070   6.739269   5.958147   8.557002
    29  C    5.912912   5.170153   7.544287   6.406141   9.762412
    30  C    5.662848   5.431226   7.725495   6.769964   9.702421
    31  H    6.289237   5.784911   3.460905   4.730999   2.218876
    32  H    7.025462   5.396647   3.461562   3.972532   4.391206
    33  H    7.126355   4.791831   3.939627   3.471679   6.056094
    34  H    6.641073   4.031140   4.696693   3.448432   7.369195
    35  H    5.151612   5.803743   3.937497   5.325729   1.083682
    36  H    3.589076   5.496352   4.701336   5.748781   2.908186
    37  H    3.564552   6.239937   6.390348   7.028898   5.353511
    38  H    4.036133   6.693763   7.651616   7.855283   7.370767
    39  H    3.518951   5.501217   7.145015   6.879034   7.795198
    40  H    3.233357   2.932579   4.728357   4.146619   6.540866
    41  H    4.896232   5.262963   7.201520   6.586320   8.775857
    42  H    6.529589   6.492698   8.764690   7.840037  10.657357
    43  H    6.912830   6.118783   8.493846   7.296962  10.761181
    44  H    7.070702   5.472928   7.642444   6.268489  10.184064
    45  H    7.004644   4.741688   6.373819   4.956869   9.062492
    46  H    2.212133   3.152269   5.092126   4.554519   6.445762
                   11         12         13         14         15
    11  C    0.000000
    12  C    1.472417   0.000000
    13  C    3.013790   4.456621   0.000000
    14  C    1.473085   2.663370   2.584641   0.000000
    15  C    2.573187   3.973020   1.477871   1.484441   0.000000
    16  C    5.032038   6.170279   3.032545   5.311076   4.498076
    17  C    5.285516   6.604465   2.572503   5.134148   3.978772
    18  C    4.450673   5.869005   1.458593   3.965956   2.645121
    19  C    6.356975   7.396496   4.485680   6.744282   5.954405
    20  C    6.720761   8.040988   3.910896   6.474237   5.212714
    21  C    7.616465   8.732182   5.374290   7.824270   6.843608
    22  C    7.723467   8.959685   5.110083   7.667381   6.498872
    23  C    6.240141   6.637295   5.869224   7.196778   7.038294
    24  C    6.709745   6.458430   7.566187   8.014378   8.378874
    25  C    7.682101   7.623557   8.050515   8.880828   9.037342
    26  C    7.480593   7.697271   7.310226   8.522621   8.446601
    27  C    6.763930   7.624984   5.408421   7.386984   6.811809
    28  C    8.189693   8.992315   6.823260   8.837603   8.243469
    29  C    8.903601   9.941097   6.804020   9.209843   8.278604
    30  C    9.153165  10.055548   7.421725   9.654347   8.889644
    31  H    2.215434   1.083279   5.149084   2.946949   4.393772
    32  H    2.215557   2.946267   3.542998   1.083335   2.218967
    33  H    3.533200   4.844908   2.217886   2.216977   1.083612
    34  H    5.127217   6.559445   2.198375   4.366698   2.911990
    35  H    3.532263   2.216075   6.278470   4.845176   6.059439
    36  H    5.129242   4.364973   7.033776   6.562353   7.378021
    37  H    7.192612   6.727259   8.375335   8.558410   9.070137
    38  H    8.711615   8.579789   9.118317   9.924941  10.100591
    39  H    8.392151   8.684909   7.949837   9.351737   9.156599
    40  H    6.170383   6.930622   5.233071   6.926338   6.532275
    41  H    8.649562   9.332001   7.571506   9.414147   8.942390
    42  H   10.200552  11.068314   8.500869  10.726949   9.968079
    43  H    9.817613  10.896076   7.557025  10.033041   9.015181
    44  H    8.748542   9.998935   6.055833   8.620648   7.392313
    45  H    7.187801   8.557344   4.246241   6.729559   5.356703
    46  H    6.394504   6.995384   5.512713   7.159703   6.785810
                   16         17         18         19         20
    16  C    0.000000
    17  C    1.532160   0.000000
    18  C    2.618609   1.484647   0.000000
    19  C    1.489051   2.589800   3.932404   0.000000
    20  C    2.565511   1.462107   2.572935   2.946275   0.000000
    21  C    2.584669   2.976678   4.453238   1.509978   2.534161
    22  C    2.940778   2.537864   3.899298   2.556363   1.445770
    23  C    3.717168   5.081662   5.985100   3.536869   5.794740
    24  C    6.188581   7.558422   8.131150   6.226057   8.504321
    25  C    6.185764   7.571595   8.372610   5.933684   8.301665
    26  C    5.107875   6.460414   7.415948   4.709653   7.044067
    27  C    2.610725   3.931892   5.129625   1.473525   4.386618
    28  C    3.932287   5.120860   6.427076   2.552733   5.266338
    29  C    3.913488   4.443114   5.915877   2.562159   3.885559
    30  C    4.438599   5.326927   6.757905   2.951214   5.068377
    31  H    7.135755   7.442480   6.571264   8.410689   8.858570
    32  H    6.361094   6.091343   4.832847   7.807999   7.374202
    33  H    5.191251   4.386650   2.920966   6.630211   5.418920
    34  H    3.593043   2.222433   1.083215   4.793806   2.793733
    35  H    7.265180   8.026915   7.584640   8.252975   9.429228
    36  H    6.812954   7.964616   8.034730   7.372489   9.212156
    37  H    7.204246   8.553563   9.041168   7.289814   9.542044
    38  H    7.194193   8.567968   9.409410   6.848343   9.222214
    39  H    5.524631   6.794046   7.879497   4.924249   7.164723
    40  H    2.855146   4.275333   5.241901   2.220279   5.013345
    41  H    4.802583   6.075223   7.311176   3.526037   6.313302
    42  H    5.521407   6.379236   7.817428   4.034015   6.025193
    43  H    4.788693   5.075509   6.531570   3.546686   4.236952
    44  H    4.022368   3.505632   4.755612   3.540814   2.185225
    45  H    3.554603   2.208204   2.795172   4.025997   1.083492
    46  H    3.088316   4.334990   5.383772   2.819098   4.874355
                   21         22         23         24         25
    21  C    0.000000
    22  C    1.459754   0.000000
    23  C    4.563876   5.543411   0.000000
    24  C    7.405954   8.403755   2.907277   0.000000
    25  C    6.902410   7.973810   2.512899   1.450079   0.000000
    26  C    5.544771   6.612846   1.450677   2.511348   1.447220
    27  C    2.544850   3.865409   3.286150   5.654446   5.327228
    28  C    2.935905   4.389437   3.926897   6.179228   5.569311
    29  C    1.468018   2.566657   5.016432   7.782586   7.056472
    30  C    2.543638   3.887592   4.740714   7.230799   6.443935
    31  H    9.710583   9.854160   7.649004   7.343485   8.548411
    32  H    8.852396   8.621775   8.165315   8.816964   9.747221
    33  H    7.346510   6.801256   7.934395   9.382264   9.996422
    34  H    5.064155   4.231847   6.972035   9.153528   9.373058
    35  H    9.661050  10.125415   6.538487   5.398837   6.759454
    36  H    8.757065   9.526964   4.756551   2.794350   4.229833
    37  H    8.487072   9.477837   3.986356   1.083396   2.188679
    38  H    7.711256   8.805561   3.488997   2.198430   1.083062
    39  H    5.482396   6.550767   2.195486   3.486167   2.197905
    40  H    3.523788   4.731143   3.268953   5.191083   5.104759
    41  H    4.016756   5.467104   4.272160   6.088762   5.474882
    42  H    3.518834   4.758161   5.527164   7.853353   6.948643
    43  H    2.213438   2.802296   5.944264   8.730618   7.923979
    44  H    2.204907   1.083495   6.404851   9.299581   8.765396
    45  H    3.497379   2.185002   6.799442   9.477701   9.299104
    46  H    3.651857   4.550919   1.082721   3.967328   3.467315
                   26         27         28         29         30
    26  C    0.000000
    27  C    4.232912   0.000000
    28  C    4.448406   1.450804   0.000000
    29  C    5.677122   2.899863   2.508858   0.000000
    30  C    5.174679   2.511128   1.447113   1.450241   0.000000
    31  H    8.677567   8.689919  10.066105  10.953615  11.111311
    32  H    9.457121   8.469299   9.919800  10.253711  10.727477
    33  H    9.348310   7.607848   9.010661   8.804561   9.541022
    34  H    8.384710   6.065180   7.295268   6.507203   7.485680
    35  H    7.240371   8.199456   9.402856  10.686291  10.570780
    36  H    5.024867   7.004876   7.923795   9.484049   9.112454
    37  H    3.479815   6.684256   7.180847   8.851715   8.256919
    38  H    2.195820   6.194558   6.250907   7.720513   7.032776
    39  H    1.083236   4.503331   4.439350   5.394891   4.893486
    40  H    4.248923   1.083553   2.187254   3.976103   3.478122
    41  H    4.553401   2.198290   1.082993   3.488747   2.200092
    42  H    5.735918   3.489914   2.197647   2.200548   1.082846
    43  H    6.518461   3.980825   3.480111   1.083265   2.190275
    44  H    7.362377   4.736803   5.021572   2.797154   4.235878
    45  H    8.046354   5.455414   6.300430   4.737141   6.006366
    46  H    2.181598   2.932896   3.596967   4.179274   4.154332
                   31         32         33         34         35
    31  H    0.000000
    32  H    2.819345   0.000000
    33  H    5.100822   2.523217   0.000000
    34  H    7.144434   5.066231   2.771952   0.000000
    35  H    2.522740   5.099942   6.969164   8.390416   0.000000
    36  H    5.062651   7.143748   8.393747   9.005471   2.765746
    37  H    7.521109   9.282820  10.081887  10.057339   5.333722
    38  H    9.469575  10.769594  11.051722  10.396009   7.554908
    39  H    9.661720  10.297558  10.003357   8.793236   8.286753
    40  H    8.005504   8.001795   7.418190   6.249654   7.427919
    41  H   10.414303  10.492372   9.767352   8.219622   9.558433
    42  H   12.131497  11.801940  10.613736   8.516045  11.495137
    43  H   11.888898  11.054499   9.450901   6.987662  11.688662
    44  H   10.873176   9.541029   7.593813   4.907147  11.174490
    45  H    9.290737   7.530990   5.343766   2.579090  10.085226
    46  H    7.997759   8.148298   7.592800   6.308568   7.184783
                   36         37         38         39         40
    36  H    0.000000
    37  H    2.581193   0.000000
    38  H    4.912222   2.509072   0.000000
    39  H    6.073756   4.363414   2.524418   0.000000
    40  H    6.280226   6.159172   6.025820   4.745403   0.000000
    41  H    7.912162   7.010409   6.064018   4.575293   2.506386
    42  H    9.898051   8.839096   7.406517   5.318304   4.367327
    43  H   10.496292   9.797189   8.522325   6.111890   5.053902
    44  H   10.539104  10.377629   9.533255   7.170250   5.671837
    45  H   10.063908  10.500967  10.215217   8.145852   6.065269
    46  H    5.668029   5.038563   4.350277   2.496018   3.234516
                   41         42         43         44         45
    41  H    0.000000
    42  H    2.530782   0.000000
    43  H    4.371799   2.514698   0.000000
    44  H    6.083908   4.930550   2.596697   0.000000
    45  H    7.351076   6.909432   4.909341   2.491394   0.000000
    46  H    4.191836   5.009497   5.055489   5.375256   5.868131
                   46
    46  H    0.000000
 Stoichiometry    C30H16
 Framework group  C1[X(C30H16)]
 Deg. of freedom   132
 Full point group                 C1      NOp   1
 Largest Abelian subgroup         C1      NOp   1
 Largest concise Abelian subgroup C1      NOp   1
                         Standard orientation:                         
 ---------------------------------------------------------------------
 Center     Atomic      Atomic             Coordinates (Angstroms)
 Number     Number       Type             X           Y           Z
 ---------------------------------------------------------------------
      1          6           0        1.403297    3.128366   -0.180147
      2          6           0        2.819448    2.783490    0.087538
      3          6           0        3.239075    1.407603    0.317935
      4          6           0        2.162899    0.445701    0.491449
      5          6           0        0.720149    0.674605    0.203497
      6          6           0        0.334098    2.027232   -0.230502
      7          6           0        0.081062   -0.684927    0.175260
      8          6           0        2.428668   -0.971316    0.545476
      9          6           0        1.186039   -1.664181    0.321179
     10          6           0        4.611239    0.857685    0.320629
     11          6           0        3.739249   -1.561037    0.323728
     12          6           0        4.859085   -0.605288    0.300880
     13          6           0        1.155743   -3.049112   -0.116795
     14          6           0        3.735625   -3.005290    0.033734
     15          6           0        2.462244   -3.736654   -0.183457
     16          6           0       -1.271390   -1.234469   -0.005307
     17          6           0       -1.358867   -2.677628   -0.512409
     18          6           0       -0.153155   -3.543753   -0.528633
     19          6           0       -2.536776   -0.551421    0.381367
     20          6           0       -2.656402   -3.159994   -0.983028
     21          6           0       -3.848615   -1.089786   -0.137550
     22          6           0       -3.850234   -2.352348   -0.870227
     23          6           0       -0.962497    2.379229   -0.819622
     24          6           0        0.989976    4.506499   -0.480752
     25          6           0       -0.361920    4.817886   -0.902824
     26          6           0       -1.328760    3.757032   -1.087904
     27          6           0       -2.603364    0.547846    1.360372
     28          6           0       -3.837704    1.267202    1.612886
     29          6           0       -5.076690   -0.330299    0.127197
     30          6           0       -5.068561    0.840806    0.982560
     31          1           0        5.858607   -0.962017    0.083636
     32          1           0        4.668629   -3.501627   -0.204531
     33          1           0        2.505961   -4.752148   -0.559059
     34          1           0       -0.236615   -4.554333   -0.909577
     35          1           0        5.447107    1.526041    0.150355
     36          1           0        3.573996    3.554954   -0.005577
     37          1           0        1.728260    5.299280   -0.467250
     38          1           0       -0.614773    5.831001   -1.190379
     39          1           0       -2.286239    3.972964   -1.546170
     40          1           0       -1.725415    0.804175    1.941395
     41          1           0       -3.844858    2.087328    2.320145
     42          1           0       -5.997334    1.347217    1.213827
     43          1           0       -6.022208   -0.690067   -0.260135
     44          1           0       -4.783521   -2.742202   -1.258749
     45          1           0       -2.738636   -4.158903   -1.394580
     46          1           0       -1.610713    1.596262   -1.192537
 ---------------------------------------------------------------------
 Rotational constants (GHZ):           0.2129286           0.1558364           0.0956068
 Standard basis: 6-311+G(d,p) (5D, 7F)
 There are   786 symmetry adapted cartesian basis functions of A   symmetry.
 There are   756 symmetry adapted basis functions of A   symmetry.
   756 basis functions,  1208 primitive gaussians,   786 cartesian basis functions
    98 alpha electrons       98 beta electrons
       nuclear repulsion energy      2502.5586349495 Hartrees.
 NAtoms=   46 NActive=   46 NUniq=   46 SFac= 1.00D+00 NAtFMM=   60 NAOKFM=F Big=F
 Integral buffers will be    131072 words long.
 Raffenetti 2 integral format.
 Two-electron integral symmetry is turned on.
 One-electron integrals computed using PRISM.
 NBasis=   756 RedAO= T EigKep=  1.13D-06  NBF=   756
 NBsUse=   740 1.00D-06 EigRej=  1.00D-06 NBFU=   740
 ExpMin= 4.38D-02 ExpMax= 4.56D+03 ExpMxC= 6.82D+02 IAcc=2 IRadAn=         4 AccDes= 0.00D+00
 Harris functional with IExCor=  402 and IRadAn=       4 diagonalized for initial guess.
 HarFok:  IExCor=  402 AccDes= 0.00D+00 IRadAn=         4 IDoV= 1 UseB2=F ITyADJ=14
 ICtDFT=  3500011 ScaDFX=  1.000000  1.000000  1.000000  1.000000
 FoFCou: FMM=F IPFlag=           0 FMFlag=      100000 FMFlg1=           0
         NFxFlg=           0 DoJE=T BraDBF=F KetDBF=T FulRan=T
         wScrn=  0.000000 ICntrl=       500 IOpCl=  0 I1Cent=   200000004 NGrid=           0
         NMat0=    1 NMatS0=      1 NMatT0=    0 NMatD0=    1 NMtDS0=    0 NMtDT0=    0
 Petite list used in FoFCou.
 Requested convergence on RMS density matrix=1.00D-08 within 128 cycles.
 Requested convergence on MAX density matrix=1.00D-06.
 Requested convergence on             energy=1.00D-06.
 No special actions if energy rises.
 SCF Done:  E(RB3LYP) =  -1153.01118242     A.U. after   18 cycles
            NFock= 18  Conv=0.38D-08     -V/T= 2.0084

 **********************************************************************

            Population analysis using the SCF density.

 **********************************************************************

 Orbital symmetries:
       Occupied  (A) (A) (A) (A) (A) (A) (A) (A) (A) (A) (A) (A)
                 (A) (A) (A) (A) (A) (A) (A) (A) (A) (A) (A) (A)
                 (A) (A) (A) (A) (A) (A) (A) (A) (A) (A) (A) (A)
                 (A) (A) (A) (A) (A) (A) (A) (A) (A) (A) (A) (A)
                 (A) (A) (A) (A) (A) (A) (A) (A) (A) (A) (A) (A)
                 (A) (A) (A) (A) (A) (A) (A) (A) (A) (A) (A) (A)
                 (A) (A) (A) (A) (A) (A) (A) (A) (A) (A) (A) (A)
                 (A) (A) (A) (A) (A) (A) (A) (A) (A) (A) (A) (A)
                 (A) (A)
       Virtual   (A) (A) (A) (A) (A) (A) (A) (A) (A) (A) (A) (A)
                 (A) (A) (A) (A) (A) (A) (A) (A) (A) (A) (A) (A)
                 (A) (A) (A) (A) (A) (A) (A) (A) (A) (A) (A) (A)
                 (A) (A) (A) (A) (A) (A) (A) (A) (A) (A) (A) (A)
                 (A) (A) (A) (A) (A) (A) (A) (A) (A) (A) (A) (A)
                 (A) (A) (A) (A) (A) (A) (A) (A) (A) (A) (A) (A)
                 (A) (A) (A) (A) (A) (A) (A) (A) (A) (A) (A) (A)
                 (A) (A) (A) (A) (A) (A) (A) (A) (A) (A) (A) (A)
                 (A) (A) (A) (A) (A) (A) (A) (A) (A) (A) (A) (A)
                 (A) (A) (A) (A) (A) (A) (A) (A) (A) (A) (A) (A)
                 (A) (A) (A) (A) (A) (A) (A) (A) (A) (A) (A) (A)
                 (A) (A) (A) (A) (A) (A) (A) (A) (A) (A) (A) (A)
                 (A) (A) (A) (A) (A) (A) (A) (A) (A) (A) (A) (A)
                 (A) (A) (A) (A) (A) (A) (A) (A) (A) (A) (A) (A)
                 (A) (A) (A) (A) (A) (A) (A) (A) (A) (A) (A) (A)
                 (A) (A) (A) (A) (A) (A) (A) (A) (A) (A) (A) (A)
                 (A) (A) (A) (A) (A) (A) (A) (A) (A) (A) (A) (A)
                 (A) (A) (A) (A) (A) (A) (A) (A) (A) (A) (A) (A)
                 (A) (A) (A) (A) (A) (A) (A) (A) (A) (A) (A) (A)
                 (A) (A) (A) (A) (A) (A) (A) (A) (A) (A) (A) (A)
                 (A) (A) (A) (A) (A) (A) (A) (A) (A) (A) (A) (A)
                 (A) (A) (A) (A) (A) (A) (A) (A) (A) (A) (A) (A)
                 (A) (A) (A) (A) (A) (A) (A) (A) (A) (A) (A) (A)
                 (A) (A) (A) (A) (A) (A) (A) (A) (A) (A) (A) (A)
                 (A) (A) (A) (A) (A) (A) (A) (A) (A) (A) (A) (A)
                 (A) (A) (A) (A) (A) (A) (A) (A) (A) (A) (A) (A)
                 (A) (A) (A) (A) (A) (A) (A) (A) (A) (A) (A) (A)
                 (A) (A) (A) (A) (A) (A) (A) (A) (A) (A) (A) (A)
                 (A) (A) (A) (A) (A) (A) (A) (A) (A) (A) (A) (A)
                 (A) (A) (A) (A) (A) (A) (A) (A) (A) (A) (A) (A)
                 (A) (A) (A) (A) (A) (A) (A) (A) (A) (A) (A) (A)
                 (A) (A) (A) (A) (A) (A) (A) (A) (A) (A) (A) (A)
                 (A) (A) (A) (A) (A) (A) (A) (A) (A) (A) (A) (A)
                 (A) (A) (A) (A) (A) (A) (A) (A) (A) (A) (A) (A)
                 (A) (A) (A) (A) (A) (A) (A) (A) (A) (A) (A) (A)
                 (A) (A) (A) (A) (A) (A) (A) (A) (A) (A) (A) (A)
                 (A) (A) (A) (A) (A) (A) (A) (A) (A) (A) (A) (A)
                 (A) (A) (A) (A) (A) (A) (A) (A) (A) (A) (A) (A)
                 (A) (A) (A) (A) (A) (A) (A) (A) (A) (A) (A) (A)
                 (A) (A) (A) (A) (A) (A) (A) (A) (A) (A) (A) (A)
                 (A) (A) (A) (A) (A) (A) (A) (A) (A) (A) (A) (A)
                 (A) (A) (A) (A) (A) (A) (A) (A) (A) (A) (A) (A)
                 (A) (A) (A) (A) (A) (A) (A) (A) (A) (A) (A) (A)
                 (A) (A) (A) (A) (A) (A) (A) (A) (A) (A) (A) (A)
                 (A) (A) (A) (A) (A) (A) (A) (A) (A) (A) (A) (A)
                 (A) (A) (A) (A) (A) (A) (A) (A) (A) (A) (A) (A)
                 (A) (A) (A) (A) (A) (A) (A) (A) (A) (A) (A) (A)
                 (A) (A) (A) (A) (A) (A) (A) (A) (A) (A) (A) (A)
                 (A) (A) (A) (A) (A) (A) (A) (A) (A) (A) (A) (A)
                 (A) (A) (A) (A) (A) (A) (A) (A) (A) (A) (A) (A)
                 (A) (A) (A) (A) (A) (A) (A) (A) (A) (A) (A) (A)
                 (A) (A) (A) (A) (A) (A) (A) (A) (A) (A) (A) (A)
                 (A) (A) (A) (A) (A) (A) (A) (A) (A) (A) (A) (A)
                 (A) (A) (A) (A) (A) (A)
 The electronic state is 1-A.
 Alpha  occ. eigenvalues --  -10.22604 -10.22049 -10.21984 -10.21961 -10.21809
 Alpha  occ. eigenvalues --  -10.21602 -10.21423 -10.21284 -10.21278 -10.21247
 Alpha  occ. eigenvalues --  -10.21237 -10.21199 -10.21101 -10.20982 -10.20964
 Alpha  occ. eigenvalues --  -10.20850 -10.20762 -10.20186 -10.20068 -10.19944
 Alpha  occ. eigenvalues --  -10.19893 -10.19885 -10.19780 -10.19708 -10.19621
 Alpha  occ. eigenvalues --  -10.19523 -10.19430 -10.19228 -10.19097 -10.19024
 Alpha  occ. eigenvalues --   -0.89182  -0.86014  -0.84852  -0.83100  -0.81637
 Alpha  occ. eigenvalues --   -0.80988  -0.78742  -0.77417  -0.76181  -0.75441
 Alpha  occ. eigenvalues --   -0.74253  -0.73192  -0.71333  -0.70337  -0.69813
 Alpha  occ. eigenvalues --   -0.66298  -0.63674  -0.63151  -0.62206  -0.60971
 Alpha  occ. eigenvalues --   -0.59919  -0.58800  -0.58557  -0.55825  -0.55718
 Alpha  occ. eigenvalues --   -0.52186  -0.51798  -0.50939  -0.50108  -0.48904
 Alpha  occ. eigenvalues --   -0.48611  -0.47083  -0.46948  -0.46449  -0.44872
 Alpha  occ. eigenvalues --   -0.44204  -0.43645  -0.43144  -0.42938  -0.42296
 Alpha  occ. eigenvalues --   -0.42128  -0.41337  -0.40847  -0.40773  -0.40122
 Alpha  occ. eigenvalues --   -0.39501  -0.39391  -0.38590  -0.37803  -0.37186
 Alpha  occ. eigenvalues --   -0.36505  -0.35402  -0.35258  -0.34766  -0.34547
 Alpha  occ. eigenvalues --   -0.33820  -0.33373  -0.32953  -0.32033  -0.30241
 Alpha  occ. eigenvalues --   -0.28681  -0.27191  -0.26653  -0.25290  -0.24009
 Alpha  occ. eigenvalues --   -0.21862  -0.20951  -0.19883
 Alpha virt. eigenvalues --   -0.11465  -0.07203  -0.06953  -0.04436  -0.02971
 Alpha virt. eigenvalues --   -0.01824  -0.01168  -0.00313   0.00099   0.00510
 Alpha virt. eigenvalues --    0.00570   0.01387   0.01497   0.02053   0.02298
 Alpha virt. eigenvalues --    0.02622   0.02874   0.03150   0.03206   0.04112
 Alpha virt. eigenvalues --    0.04288   0.04711   0.04881   0.05221   0.05815
 Alpha virt. eigenvalues --    0.05938   0.06293   0.06485   0.06703   0.07078
 Alpha virt. eigenvalues --    0.07321   0.07791   0.08142   0.08368   0.08680
 Alpha virt. eigenvalues --    0.09126   0.09544   0.09700   0.09797   0.10248
 Alpha virt. eigenvalues --    0.10534   0.10893   0.11144   0.11230   0.11912
 Alpha virt. eigenvalues --    0.12089   0.12542   0.12688   0.13372   0.13780
 Alpha virt. eigenvalues --    0.13956   0.14135   0.14343   0.14585   0.14676
 Alpha virt. eigenvalues --    0.14852   0.15163   0.15366   0.15532   0.15761
 Alpha virt. eigenvalues --    0.15943   0.15992   0.16278   0.16408   0.16687
 Alpha virt. eigenvalues --    0.17025   0.17159   0.17337   0.17475   0.17829
 Alpha virt. eigenvalues --    0.18066   0.18450   0.18529   0.18675   0.18743
 Alpha virt. eigenvalues --    0.18918   0.19169   0.19252   0.19297   0.19695
 Alpha virt. eigenvalues --    0.19830   0.20037   0.20285   0.20397   0.20486
 Alpha virt. eigenvalues --    0.20675   0.20986   0.21253   0.21513   0.21597
 Alpha virt. eigenvalues --    0.21700   0.21892   0.22273   0.22588   0.22894
 Alpha virt. eigenvalues --    0.22946   0.23142   0.23193   0.23453   0.23649
 Alpha virt. eigenvalues --    0.23885   0.24105   0.24269   0.24513   0.24807
 Alpha virt. eigenvalues --    0.25165   0.25189   0.25439   0.25515   0.25964
 Alpha virt. eigenvalues --    0.26268   0.26376   0.26822   0.26925   0.27054
 Alpha virt. eigenvalues --    0.27532   0.27647   0.27709   0.28236   0.28318
 Alpha virt. eigenvalues --    0.28774   0.28941   0.29451   0.29513   0.29883
 Alpha virt. eigenvalues --    0.30097   0.30531   0.30654   0.30886   0.31122
 Alpha virt. eigenvalues --    0.31431   0.31632   0.32039   0.32064   0.32392
 Alpha virt. eigenvalues --    0.32726   0.33110   0.33296   0.33387   0.34264
 Alpha virt. eigenvalues --    0.34589   0.34852   0.35547   0.35835   0.36250
 Alpha virt. eigenvalues --    0.36550   0.37116   0.37701   0.37787   0.37934
 Alpha virt. eigenvalues --    0.38870   0.39438   0.39524   0.39713   0.40010
 Alpha virt. eigenvalues --    0.40086   0.40225   0.41316   0.41803   0.42181
 Alpha virt. eigenvalues --    0.42920   0.43780   0.44067   0.45141   0.46615
 Alpha virt. eigenvalues --    0.47571   0.48253   0.48789   0.49493   0.50110
 Alpha virt. eigenvalues --    0.50266   0.51041   0.51651   0.52503   0.52982
 Alpha virt. eigenvalues --    0.53405   0.53714   0.54381   0.54798   0.55166
 Alpha virt. eigenvalues --    0.55510   0.55567   0.55811   0.56292   0.56530
 Alpha virt. eigenvalues --    0.56995   0.57147   0.57283   0.57634   0.58188
 Alpha virt. eigenvalues --    0.58276   0.58989   0.59573   0.60255   0.60525
 Alpha virt. eigenvalues --    0.61531   0.61707   0.62047   0.62622   0.62751
 Alpha virt. eigenvalues --    0.63603   0.63770   0.64040   0.64783   0.65059
 Alpha virt. eigenvalues --    0.65669   0.65959   0.66576   0.66858   0.66900
 Alpha virt. eigenvalues --    0.67356   0.67553   0.68088   0.68426   0.68477
 Alpha virt. eigenvalues --    0.68795   0.69191   0.69243   0.69707   0.69964
 Alpha virt. eigenvalues --    0.70337   0.70436   0.70683   0.71179   0.71487
 Alpha virt. eigenvalues --    0.71619   0.72011   0.72310   0.72818   0.73442
 Alpha virt. eigenvalues --    0.73896   0.74421   0.74467   0.75010   0.75762
 Alpha virt. eigenvalues --    0.76112   0.76349   0.77417   0.78013   0.78208
 Alpha virt. eigenvalues --    0.79178   0.79903   0.80447   0.80571   0.81041
 Alpha virt. eigenvalues --    0.81611   0.81929   0.82073   0.82785   0.83003
 Alpha virt. eigenvalues --    0.83264   0.83755   0.84654   0.84742   0.85413
 Alpha virt. eigenvalues --    0.85858   0.86380   0.86790   0.87320   0.88019
 Alpha virt. eigenvalues --    0.88405   0.88993   0.89055   0.89794   0.90431
 Alpha virt. eigenvalues --    0.90697   0.91077   0.91461   0.92608   0.92788
 Alpha virt. eigenvalues --    0.93138   0.93585   0.93985   0.94401   0.95032
 Alpha virt. eigenvalues --    0.95268   0.95907   0.96107   0.96685   0.96769
 Alpha virt. eigenvalues --    0.97022   0.97739   0.98153   0.98754   0.99386
 Alpha virt. eigenvalues --    0.99496   1.00108   1.00670   1.01074   1.02025
 Alpha virt. eigenvalues --    1.02269   1.02813   1.03404   1.03642   1.04612
 Alpha virt. eigenvalues --    1.05257   1.06141   1.06302   1.06905   1.07542
 Alpha virt. eigenvalues --    1.09037   1.09098   1.09586   1.09894   1.10083
 Alpha virt. eigenvalues --    1.11283   1.12250   1.13026   1.13586   1.15418
 Alpha virt. eigenvalues --    1.16225   1.16745   1.17895   1.18889   1.20724
 Alpha virt. eigenvalues --    1.21167   1.22253   1.22627   1.23825   1.24487
 Alpha virt. eigenvalues --    1.25480   1.26228   1.27218   1.28257   1.29078
 Alpha virt. eigenvalues --    1.30302   1.31435   1.32821   1.34123   1.35785
 Alpha virt. eigenvalues --    1.36615   1.37470   1.40418   1.42227   1.43705
 Alpha virt. eigenvalues --    1.43859   1.44133   1.44877   1.45531   1.45646
 Alpha virt. eigenvalues --    1.46081   1.47264   1.47989   1.48252   1.48425
 Alpha virt. eigenvalues --    1.48534   1.49238   1.49798   1.50487   1.50783
 Alpha virt. eigenvalues --    1.51616   1.51711   1.52221   1.52401   1.53124
 Alpha virt. eigenvalues --    1.53431   1.54339   1.55071   1.55198   1.56114
 Alpha virt. eigenvalues --    1.57118   1.58161   1.58610   1.58833   1.59366
 Alpha virt. eigenvalues --    1.59806   1.61534   1.61804   1.62209   1.63393
 Alpha virt. eigenvalues --    1.64093   1.64454   1.64817   1.65493   1.66669
 Alpha virt. eigenvalues --    1.67246   1.68412   1.69133   1.70223   1.70474
 Alpha virt. eigenvalues --    1.71222   1.72541   1.73541   1.74693   1.74897
 Alpha virt. eigenvalues --    1.75047   1.75564   1.76464   1.76986   1.77908
 Alpha virt. eigenvalues --    1.79073   1.79382   1.79739   1.80397   1.80988
 Alpha virt. eigenvalues --    1.81762   1.82237   1.82694   1.83742   1.84229
 Alpha virt. eigenvalues --    1.84619   1.85116   1.85360   1.86157   1.86438
 Alpha virt. eigenvalues --    1.87324   1.87665   1.88040   1.88314   1.88669
 Alpha virt. eigenvalues --    1.89522   1.89560   1.90221   1.90711   1.91285
 Alpha virt. eigenvalues --    1.91656   1.92045   1.93383   1.93815   1.94304
 Alpha virt. eigenvalues --    1.95533   1.96632   1.96927   1.97570   1.98681
 Alpha virt. eigenvalues --    1.99056   1.99505   2.00329   2.01235   2.01556
 Alpha virt. eigenvalues --    2.02777   2.03125   2.04523   2.05033   2.05945
 Alpha virt. eigenvalues --    2.07871   2.08137   2.08772   2.09008   2.10102
 Alpha virt. eigenvalues --    2.11317   2.11948   2.12671   2.14101   2.14650
 Alpha virt. eigenvalues --    2.14999   2.16008   2.16868   2.17585   2.18038
 Alpha virt. eigenvalues --    2.18713   2.19500   2.20434   2.21470   2.23409
 Alpha virt. eigenvalues --    2.25187   2.26353   2.27006   2.27493   2.30503
 Alpha virt. eigenvalues --    2.31190   2.31483   2.32942   2.33573   2.34483
 Alpha virt. eigenvalues --    2.35940   2.36392   2.36791   2.38084   2.38660
 Alpha virt. eigenvalues --    2.39974   2.40992   2.41794   2.44566   2.46165
 Alpha virt. eigenvalues --    2.47713   2.48222   2.48810   2.50429   2.50883
 Alpha virt. eigenvalues --    2.53067   2.56899   2.58076   2.59729   2.60597
 Alpha virt. eigenvalues --    2.61341   2.61961   2.63486   2.64884   2.65620
 Alpha virt. eigenvalues --    2.66056   2.66242   2.67754   2.68670   2.69169
 Alpha virt. eigenvalues --    2.69354   2.69891   2.70316   2.70761   2.71135
 Alpha virt. eigenvalues --    2.71787   2.72059   2.72518   2.72638   2.72885
 Alpha virt. eigenvalues --    2.73609   2.73803   2.74141   2.74607   2.74775
 Alpha virt. eigenvalues --    2.75356   2.75762   2.76354   2.76543   2.77229
 Alpha virt. eigenvalues --    2.77457   2.78395   2.78951   2.79671   2.81084
 Alpha virt. eigenvalues --    2.81380   2.82618   2.82965   2.83448   2.84303
 Alpha virt. eigenvalues --    2.85407   2.86288   2.87430   2.88183   2.89214
 Alpha virt. eigenvalues --    2.90121   2.91135   2.92167   2.94181   2.96014
 Alpha virt. eigenvalues --    2.96807   2.98132   2.99054   3.00684   3.00861
 Alpha virt. eigenvalues --    3.03121   3.03480   3.04121   3.05260   3.05940
 Alpha virt. eigenvalues --    3.07090   3.07299   3.09340   3.09592   3.10256
 Alpha virt. eigenvalues --    3.10873   3.11466   3.11976   3.13714   3.15779
 Alpha virt. eigenvalues --    3.16376   3.18721   3.20959   3.23476   3.25706
 Alpha virt. eigenvalues --    3.26322   3.27025   3.27450   3.29105   3.29850
 Alpha virt. eigenvalues --    3.30988   3.32160   3.33775   3.34592   3.36090
 Alpha virt. eigenvalues --    3.36992   3.38139   3.39355   3.42523   3.43805
 Alpha virt. eigenvalues --    3.45330   3.46339   3.49815   3.52618   3.54107
 Alpha virt. eigenvalues --    3.56438   3.59384   3.61422   3.66817   3.72363
 Alpha virt. eigenvalues --    3.74571   3.75470   3.80569   3.98353   4.01016
 Alpha virt. eigenvalues --    4.01213   4.03111   4.03502   4.03712   4.04108
 Alpha virt. eigenvalues --    4.05679   4.12920   4.13287   4.15971   4.18275
 Alpha virt. eigenvalues --    4.22749   4.28051   4.41032   4.53309   4.57209
 Alpha virt. eigenvalues --    4.58573   4.62678   4.63198   4.64572   4.67750
 Alpha virt. eigenvalues --    4.68128   4.74378  23.43389  23.60869  23.65244
 Alpha virt. eigenvalues --   23.72969  23.74547  23.75608  23.77505  23.79610
 Alpha virt. eigenvalues --   23.80512  23.82807  23.83748  23.84363  23.84795
 Alpha virt. eigenvalues --   23.85036  23.86790  23.86898  23.87789  23.88580
 Alpha virt. eigenvalues --   23.89019  23.89197  23.89876  23.91139  23.91761
 Alpha virt. eigenvalues --   23.92238  23.92304  23.92526  23.96863  23.97761
 Alpha virt. eigenvalues --   23.98534  23.99568
          Condensed to atoms (all electrons):
               1          2          3          4          5          6
     1  C   14.141855  -0.599336  -1.196066   0.932265  -0.389003  -1.233207
     2  C   -0.599336   9.014051   0.420854  -0.980863   0.223081   0.289421
     3  C   -1.196066   0.420854  17.804717  -0.039020  -0.120586   1.403526
     4  C    0.932265  -0.980863  -0.039020  11.446106   2.540162   0.454470
     5  C   -0.389003   0.223081  -0.120586   2.540162  10.183646   2.815928
     6  C   -1.233207   0.289421   1.403526   0.454470   2.815928  14.029494
     7  C   -0.884059   0.167041  -2.586487   0.337775   0.914274  -1.421248
     8  C   -0.269030  -0.977717  -3.586499   1.978357  -0.496715  -1.348632
     9  C   -0.661617  -0.444113  -3.504608  -1.488751  -1.043757  -2.748838
    10  C   -0.682414   0.385632  -3.905287  -0.636369  -0.587620  -0.552091
    11  C    0.221365   0.108660   1.758338  -1.761665  -2.294962  -0.465588
    12  C   -0.362447  -0.631892   0.812194   1.112944  -0.112769   0.340249
    13  C   -0.301271  -0.189455  -1.268109  -3.075895  -2.984893  -1.082215
    14  C   -0.067926   0.193040   0.689867  -1.433781   0.067763  -0.022304
    15  C    0.060495  -0.086165   0.504240   0.881390   0.184896   0.118653
    16  C   -0.387276   0.131175  -0.305954   0.137712   1.160758   0.019292
    17  C   -0.397570  -0.022313  -0.681252  -1.238175  -1.729652  -0.766601
    18  C   -0.060288  -0.031397  -0.206575  -0.739175  -0.314901  -0.021396
    19  C   -0.533410   0.282196   0.220532  -0.104637   0.517934   1.864926
    20  C    0.005436  -0.004265  -0.018611  -0.105896  -0.026328   0.069215
    21  C   -0.188214   0.028065  -0.000393   0.009364  -0.106177   0.926713
    22  C   -0.043264   0.000986  -0.032490  -0.143484  -0.082364  -0.104399
    23  C    0.597013  -1.074448  -0.531442  -0.803000  -1.323149  -6.334967
    24  C   -2.653076   0.016865   0.549277  -1.350272  -1.231530   0.063527
    25  C    0.477799  -1.051940  -0.510516   0.196834  -0.026680  -0.310283
    26  C   -0.385208   0.727521   0.245477  -0.387470  -0.324068   0.910627
    27  C    0.623837  -0.103301   0.031849   0.372187   0.376231  -0.562097
    28  C   -0.009098  -0.026242   0.019834   0.010564  -0.078050  -0.124206
    29  C    0.002301   0.007285  -0.005015  -0.090596  -0.181525  -0.096801
    30  C    0.041179  -0.004204   0.005870   0.029921   0.056392  -0.033517
    31  H    0.002597   0.010612  -0.023613  -0.030796  -0.002558  -0.001543
    32  H    0.000055  -0.000215   0.006446   0.013234   0.003255   0.000627
    33  H   -0.000092  -0.000014  -0.001400  -0.004279   0.001144   0.000049
    34  H   -0.000057  -0.000015   0.000001   0.002854  -0.003867  -0.000615
    35  H    0.011911   0.061194  -0.088949   0.011349  -0.001262   0.005101
    36  H   -0.034126   0.337766  -0.075760   0.010094  -0.025413  -0.031263
    37  H   -0.062770   0.093705   0.041998   0.001757  -0.007641  -0.015024
    38  H    0.021999   0.013156   0.003243   0.000706   0.000593   0.004291
    39  H   -0.008397  -0.003842  -0.002679   0.003116   0.009687   0.053370
    40  H    0.000603   0.001631  -0.000192  -0.007331   0.019915  -0.007164
    41  H    0.001116  -0.000044  -0.000169   0.000248  -0.000519  -0.007899
    42  H   -0.000071   0.000002  -0.000004  -0.000037  -0.000369  -0.000609
    43  H   -0.000011  -0.000002   0.000001   0.000075  -0.000069   0.000504
    44  H    0.000014  -0.000000   0.000008   0.000127  -0.000000   0.000527
    45  H   -0.000048  -0.000000  -0.000036  -0.000540  -0.001612  -0.000633
    46  H   -0.003957   0.003024   0.003939   0.014179   0.025682   0.102243
               7          8          9         10         11         12
     1  C   -0.884059  -0.269030  -0.661617  -0.682414   0.221365  -0.362447
     2  C    0.167041  -0.977717  -0.444113   0.385632   0.108660  -0.631892
     3  C   -2.586487  -3.586499  -3.504608  -3.905287   1.758338   0.812194
     4  C    0.337775   1.978357  -1.488751  -0.636369  -1.761665   1.112944
     5  C    0.914274  -0.496715  -1.043757  -0.587620  -2.294962  -0.112769
     6  C   -1.421248  -1.348632  -2.748838  -0.552091  -0.465588   0.340249
     7  C   12.413413  -0.226276   2.455193   0.841689  -2.740627  -1.065598
     8  C   -0.226276  13.174804   4.031359   1.104244   0.841085  -2.010477
     9  C    2.455193   4.031359  13.964042   0.414104  -1.794062  -2.293083
    10  C    0.841689   1.104244   0.414104  10.558923  -0.913350  -0.192428
    11  C   -2.740627   0.841085  -1.794062  -0.913350  14.533432  -0.999204
    12  C   -1.065598  -2.010477  -2.293083  -0.192428  -0.999204  11.526798
    13  C   -0.911139  -1.053545   1.760796   0.134901   3.235494   0.493286
    14  C   -0.121837  -1.858902   1.378856  -0.360641  -1.892141  -0.988197
    15  C   -1.407112   1.687862  -1.042567  -0.335197  -0.026750   0.456257
    16  C    2.754429  -0.147402   0.778591   0.138213  -0.747066  -0.194216
    17  C   -1.061977  -1.414770   0.077689   0.155097  -0.227950  -0.208042
    18  C   -0.434020  -0.904200  -0.836420  -0.067934   0.682021   0.342837
    19  C   -0.544551  -1.856009  -2.140812   0.253542  -0.720745  -0.149708
    20  C   -0.841387  -0.152177  -0.444639   0.004457  -0.063275  -0.011942
    21  C   -1.950349  -0.569854  -0.975271   0.040650  -0.194394  -0.029626
    22  C   -0.751385  -0.191877  -0.198963   0.004408  -0.020442  -0.005982
    23  C    2.127674   0.417883   1.117821  -0.582998  -0.205513   0.106691
    24  C   -0.199943  -0.404432  -0.443436   0.441973  -0.071706  -0.040037
    25  C    0.175312   0.074838   0.086206  -0.186481   0.026338  -0.003653
    26  C   -0.922347  -0.452212  -0.448132   0.216469  -0.134074  -0.027131
    27  C    1.010724   0.780699   0.672336  -0.099935   0.313865   0.046562
    28  C    0.251904   0.176246   0.195690  -0.018637   0.057671   0.010921
    29  C   -0.137401  -0.061876  -0.199351   0.000235  -0.011150  -0.000175
    30  C    0.073000   0.022663   0.022843  -0.000661   0.002044   0.000196
    31  H    0.005748   0.027630   0.009702   0.026750  -0.067260   0.319256
    32  H   -0.001891   0.022172  -0.025839  -0.005302  -0.062023   0.053387
    33  H   -0.002524  -0.031586   0.006144  -0.000556  -0.022419   0.004898
    34  H   -0.021502   0.005131   0.016871   0.000112   0.007658  -0.000000
    35  H    0.002879  -0.018826  -0.001984   0.377794  -0.016813  -0.018372
    36  H   -0.002131   0.005351   0.002330   0.050164   0.007536   0.001404
    37  H   -0.000830  -0.000022  -0.000329   0.004954   0.000087   0.000696
    38  H   -0.000115   0.000084   0.000011   0.000402   0.000004  -0.000006
    39  H    0.004166   0.000176   0.000969  -0.000123   0.000014   0.000002
    40  H   -0.006822  -0.008766   0.004642   0.000542  -0.001319  -0.000031
    41  H    0.007964   0.000323   0.000911  -0.000016   0.000018   0.000002
    42  H    0.001084   0.000016  -0.000007  -0.000000   0.000001   0.000000
    43  H    0.000607  -0.000009  -0.000242   0.000000  -0.000002  -0.000000
    44  H    0.001326   0.000155  -0.000054  -0.000000  -0.000005  -0.000000
    45  H   -0.008341  -0.000004   0.000207   0.000001   0.000353   0.000019
    46  H   -0.015762   0.000552  -0.007800   0.000104   0.001560  -0.000121
              13         14         15         16         17         18
     1  C   -0.301271  -0.067926   0.060495  -0.387276  -0.397570  -0.060288
     2  C   -0.189455   0.193040  -0.086165   0.131175  -0.022313  -0.031397
     3  C   -1.268109   0.689867   0.504240  -0.305954  -0.681252  -0.206575
     4  C   -3.075895  -1.433781   0.881390   0.137712  -1.238175  -0.739175
     5  C   -2.984893   0.067763   0.184896   1.160758  -1.729652  -0.314901
[...]
 2,0.00000313,0.00001223,-0.00002168,0.00000787,-0.00028686,0.00100549,
 0.00014996,-0.00105081,0.00246566,-0.00489684,-0.22115029,-0.12537076,
 -0.05891122,-0.01425743,-0.01657496,-0.00441108,-0.00000075,-0.0000048
 7,-0.00000089,-0.00000108,-0.00000464,-0.00000086,0.00000473,-0.000003
 01,0.00000079,0.00000869,-0.00000362,-0.00000483,-0.00000389,-0.000001
 45,-0.00000122,-0.00000327,-0.00000083,-0.00000093,-0.00000302,-0.0000
 0113,-0.00000238,-0.00000607,0.00000274,-0.00000272,-0.00000130,0.0000
 0546,-0.00001034,-0.00022102,0.00002615,0.00032531,-0.00072823,-0.0009
 1076,-0.00042866,-0.00007201,0.00073674,0.00192018,0.23212643,0.000002
 39,0.00000620,0.00000060,-0.00000753,-0.00001830,-0.00000376,-0.000017
 12,0.00001075,0.00000010,-0.00000826,-0.00002185,-0.00000189,0.0000668
 4,0.00002134,0.00001300,-0.00001605,-0.00002804,-0.00000952,0.00028039
 ,-0.00044080,0.00017568,-0.00000228,-0.00005673,-0.00002805,-0.0001326
 5,0.00001434,0.00001201,0.00000232,-0.00000133,-0.00000200,0.00001306,
 -0.00001174,-0.00000297,-0.00000338,-0.00000134,0.00000247,-0.00000865
 ,-0.00005361,-0.00000553,-0.00002707,-0.00001960,-0.00000523,0.0000151
 7,0.00004421,0.00000601,-0.00162799,-0.00012146,-0.00041161,-0.0001491
 3,0.00009296,0.00001194,0.00011451,0.00006698,0.00002388,0.00109996,-0
 .00435969,0.00281344,0.00043086,0.00007795,0.00010619,-0.02453633,-0.0
 1344873,-0.00780963,-0.00167089,0.00098728,-0.00165873,0.00000244,0.00
 001534,0.00000226,0.00000430,-0.00000316,-0.00000179,-0.00000300,0.000
 00430,0.00000273,-0.00000478,0.00000397,-0.00000153,0.00096896,-0.0007
 8677,0.00042737,0.00174306,0.00053617,0.00274626,-0.12525158,-0.150089
 02,-0.03299571,0.01061210,0.01076653,0.00338109,-0.00000235,-0.0000042
 4,0.00000050,-0.00000024,-0.00000304,-0.00000013,0.00000439,-0.0000070
 0,0.00000054,0.00001404,-0.00003167,0.00000490,-0.00000300,-0.00000171
 ,0.00000011,-0.00000252,-0.00000072,0.00000090,-0.00000290,-0.00000062
 ,-0.00000016,-0.00000300,0.00000160,0.00000069,-0.00000050,0.00000373,
 0.00000036,0.00001328,-0.00000585,-0.00024078,0.00051964,0.00039615,0.
 00033619,0.00011001,0.00054361,-0.00123412,0.13630350,0.15601999,-0.00
 001632,-0.00000974,-0.00000458,0.00000057,0.00000423,0.00000089,0.0000
 0346,-0.00000146,0.00000122,-0.00000274,0.00000187,-0.00000444,-0.0000
 2138,-0.00000568,0.00002177,0.00001963,0.00000971,-0.00001178,-0.00000
 866,0.00002748,0.00005789,-0.00000273,0.00000421,-0.00003605,0.0000178
 6,0.00003159,-0.00001439,-0.00000230,0.00000393,-0.00000379,-0.0000047
 6,0.00000675,0.00000234,0.00000053,0.00000138,0.00000676,0.00003548,0.
 00002118,-0.00000707,0.00000950,0.00000222,-0.00000130,-0.00000885,-0.
 00000767,-0.00000335,0.00024283,0.00027142,0.00018578,0.00009038,0.000
 02562,0.00006755,-0.00004481,-0.00005480,0.00001425,-0.00308005,0.0021
 5283,0.00378359,0.00001458,-0.00021660,-0.00008791,0.00640759,0.006570
 35,0.00444409,0.00161944,-0.00017869,-0.00267549,0.00000053,0.00000580
 ,-0.00000079,-0.00000079,-0.00000148,-0.00000380,0.00001338,-0.0000046
 4,-0.00000033,-0.00000053,0.00000756,0.00000260,0.00080116,-0.00046387
 ,-0.00036601,-0.00436254,0.00372089,0.00439041,-0.05735456,-0.03425708
 ,-0.05438937,-0.01308491,-0.00980484,-0.00040237,0.,-0.00000181,0.0000
 0089,-0.00000037,-0.00000233,0.00000180,0.00000165,-0.00000135,0.00000
 035,-0.00000050,0.00000256,0.00001132,-0.00000145,-0.00000043,0.000001
 08,-0.00000127,-0.00000015,0.00000026,-0.00000099,-0.00000236,0.000000
 78,-0.00000025,0.00000074,0.00000137,0.00000646,-0.00000480,-0.0000034
 0,0.00042808,-0.00026072,-0.00068390,-0.00053626,-0.00038248,-0.000032
 35,0.00220856,-0.00086275,-0.00314796,0.06693347,0.03380981,0.04852052
 ,0.00001121,-0.00000134,0.00000082,-0.00001692,-0.00001542,-0.00000246
 ,-0.00001480,-0.00000008,-0.00000844,0.00000881,-0.00002382,-0.0000050
 6,0.00006421,0.00000415,0.00001991,-0.00001743,-0.00001900,-0.00000495
 ,-0.00002548,-0.00022364,0.00024557,-0.00006597,-0.00003115,0.00000154
 ,-0.00009134,0.00018452,-0.00008054,-0.00000597,0.00002850,0.00000239,
 -0.00002563,0.00001630,-0.00000005,0.00002496,-0.00000770,0.00000344,0
 .00011043,0.00006312,0.00032048,0.00004192,-0.00001203,-0.00001778,-0.
 00000398,-0.00001887,0.00003741,0.00012118,0.00072171,-0.00000532,0.00
 179621,0.00146799,-0.00273335,0.00003920,-0.00022444,-0.00008119,-0.00
 178474,0.00316951,-0.00292061,0.00583920,0.00389205,0.00023180,-0.0163
 9426,-0.01718658,-0.00469788,-0.21778318,-0.12795449,-0.05526139,0.000
 00097,0.00001243,0.00002928,-0.00000472,0.00000409,0.00000089,-0.00000
 263,-0.00000475,0.00000054,0.00000714,-0.00001712,0.00000311,-0.000736
 66,-0.00139366,-0.00000246,0.00018865,0.00014850,0.00008318,0.00064690
 ,-0.00178110,0.00153195,-0.00005005,0.00037852,-0.00005237,-0.00000020
 ,-0.00000376,-0.00000057,0.00000261,-0.00000118,-0.00000677,0.00000256
 ,-0.00000452,0.00000143,0.00001405,-0.00000406,-0.00009406,-0.00000338
 ,-0.00000255,0.00000201,-0.00000279,-0.00000095,-0.00000080,-0.0000030
 9,-0.00000096,-0.00000138,-0.00000578,0.00000205,-0.00000165,0.0000001
 7,0.00000526,-0.00000548,-0.00029222,0.00020269,-0.00027039,0.00004363
 ,0.00006943,-0.00001131,-0.00001736,0.00002432,-0.00003831,0.00039967,
 0.00114336,-0.00026601,0.22772558,-0.00000605,0.00001206,0.00000426,0.
 00000729,-0.00003094,-0.00000789,-0.00002974,0.00003842,0.00000627,-0.
 00003401,-0.00002263,-0.00000300,0.00000152,0.00000186,0.00000057,-0.0
 0001154,-0.00004185,-0.00001141,-0.00001613,0.00020300,-0.00002466,0.0
 0001932,0.00003449,0.00000292,0.00012153,-0.00006215,0.00003962,0.0000
 0821,-0.00004094,-0.00000271,0.00009807,-0.00005692,0.00000275,-0.0000
 3884,0.00002587,-0.00000315,0.00007015,-0.00061597,-0.00008896,-0.0000
 9271,-0.00007907,-0.00000821,-0.00011409,0.00011339,-0.00004220,0.0002
 7153,-0.00033584,0.00008371,0.00267537,-0.00424449,0.00151854,-0.00136
 256,-0.00009072,-0.00025711,0.00211720,-0.00075926,0.00143694,-0.02642
 716,-0.01496105,-0.00749253,0.01017554,0.00926157,0.00292490,-0.126825
 67,-0.15593892,-0.03535624,-0.00001672,0.00001010,0.00000517,0.0000124
 3,-0.00000514,-0.00000261,0.00000301,0.00000637,0.00000222,0.00000580,
 0.00001097,0.00000525,0.00049660,0.00041201,0.00013880,0.00009317,0.00
 017845,0.00002653,0.00135194,0.00105323,0.00011690,-0.00030755,0.00007
 766,-0.00016993,-0.00000237,-0.00000669,-0.00000014,-0.00001886,-0.000
 01643,0.00000251,0.00001337,-0.00000623,0.00000204,0.00005516,-0.00002
 383,0.00004044,-0.00000539,-0.00000090,-0.00000090,-0.00000421,-0.0000
 0026,0.00000091,-0.00000377,-0.00000160,-0.00000075,-0.00000332,0.0000
 0345,0.00000083,0.00000019,0.00000401,0.00000042,0.00013441,-0.0000663
 9,0.00014365,-0.00001782,-0.00001470,-0.00001062,-0.00001714,0.0000088
 6,-0.00002385,-0.00030893,-0.00004479,-0.00012602,0.13755137,0.1651232
 1,0.00001385,0.00000416,0.00000060,0.00001140,-0.00000695,-0.00000515,
 -0.00003243,0.00000995,0.00002964,0.00003009,0.00003531,0.00000997,-0.
 00002186,0.00002931,-0.00000306,-0.00001742,0.00001557,0.00001135,0.00
 019681,0.00013146,-0.00040408,0.00004945,0.00002640,-0.00004207,0.0000
 6173,-0.00017434,0.00017258,0.00002311,-0.00000633,-0.00000407,0.00005
 836,-0.00005256,-0.00000174,-0.00001296,-0.00000204,-0.00000219,0.0000
 1969,-0.00008163,-0.00083209,-0.00007416,-0.00000952,0.00005138,0.0000
 5158,0.00007296,-0.00008254,-0.00011325,0.00009112,-0.00052299,-0.0018
 0797,0.00098531,0.00879831,0.00022433,0.00035100,0.00029257,-0.0022428
 9,0.00278424,0.00211198,0.00215245,0.00195131,0.00491868,-0.00851486,-
 0.00722123,0.00014479,-0.05452654,-0.03497508,-0.05225992,0.00001682,-
 0.00000496,-0.00000621,-0.00000486,0.00000029,-0.00000057,0.00000471,-
 0.00000287,-0.00000265,-0.00000647,-0.00000212,-0.00000378,-0.00023709
 ,-0.00064514,0.00023950,-0.00000219,0.00008708,-0.00000135,0.00068580,
 -0.00111857,-0.00129783,0.00019763,0.00010849,-0.00012393,0.00000099,0
 .00000027,0.00000244,-0.00000390,0.00000050,0.00001693,0.00000140,0.00
 000030,-0.00000420,-0.00005892,0.00000099,0.00025471,0.00000032,0.0000
 0055,-0.00000665,0.00000058,-0.00000157,0.00000200,-0.00000050,-0.0000
 0098,0.00000025,-0.00000099,-0.00000040,0.00000086,0.00000284,-0.00000
 336,0.00000082,-0.00008266,0.00004951,-0.00013510,0.00000191,0.0000380
 8,0.00003414,-0.00004782,0.00002777,0.00004263,0.00007283,0.00049117,0
 .00018508,0.06202317,0.03744417,0.04347031,-0.00000716,0.00002211,0.00
 000745,0.00001200,-0.00000668,-0.00000351,0.00000285,-0.00001451,-0.00
 000821,-0.00014701,0.00007727,0.00001517,-0.00004945,-0.00020009,0.000
 05826,-0.00002906,-0.00007048,-0.00001410,-0.00072082,0.00104814,-0.00
 012171,0.00019130,-0.00005547,-0.00001121,0.00022778,-0.00003843,0.000
 02111,-0.00001459,-0.00004787,-0.00000379,0.00005657,-0.00009206,-0.00
 000880,-0.00003046,0.00002198,0.00000126,0.00001202,-0.00060281,0.0001
 2497,-0.00015516,-0.00001298,-0.00001898,0.00000191,0.00016273,-0.0000
 3256,-0.00078055,-0.00435530,-0.00122639,-0.01832231,0.01028005,-0.007
 21603,0.00057770,0.00241077,0.00089130,0.00024880,-0.00006003,0.000323
 44,-0.26085986,0.09622621,-0.07814546,0.00255462,-0.00001198,-0.002147
 46,0.00110822,-0.00154623,-0.00114118,-0.00001493,0.00000790,0.0000115
 9,0.00000017,-0.00000441,-0.00000198,-0.00000561,0.00000147,-0.0000006
 7,0.00001244,0.00000621,0.00000431,0.00000778,-0.00002075,0.00022208,0
 .00012577,0.00010780,-0.00002471,-0.00018804,-0.00021869,-0.00010046,-
 0.00016435,0.00022474,0.00010558,-0.00000513,-0.00000804,-0.00000203,-
 0.00000175,-0.00000953,0.00000501,0.00001002,-0.00002638,-0.00000499,0
 .00066089,-0.00102284,-0.00001816,-0.00000431,-0.00000446,-0.00000088,
 -0.00000508,-0.00000131,-0.00000017,-0.00000605,0.00000034,-0.00000083
 ,-0.00000428,0.00000328,0.00000013,-0.00000113,0.00000613,0.00000058,0
 .00000988,-0.00001552,0.00000911,-0.00000102,0.00001102,-0.00002088,-0
 .00003181,0.00000754,-0.00000421,0.00003148,0.00000027,-0.00004532,0.0
 0024430,0.00038232,0.00190403,0.27544447,-0.00000988,0.00000358,-0.000
 00154,-0.00000541,0.00001684,0.00000235,0.00001956,-0.00003443,-0.0000
 2671,-0.00010523,0.00001998,0.00000492,-0.00006728,-0.00017445,0.00010
 704,0.00000553,-0.00003082,-0.00001496,-0.00080489,0.00047433,-0.00004
 173,0.00006072,-0.00003018,0.00002967,-0.00017945,0.00009873,-0.000059
 10,-0.00001689,0.00001787,0.00000054,-0.00006334,0.00001426,-0.0000129
 9,0.00002818,-0.00001452,0.00000279,0.00034990,0.00017978,0.00005933,0
 .00004712,0.00002881,0.00000964,-0.00000418,-0.00007348,-0.00001244,-0
 .00229151,-0.00235686,-0.00048324,-0.01664796,0.00892809,-0.00578300,-
 0.00189480,0.00074000,-0.00065777,-0.00023176,-0.00050131,-0.00013067,
 0.09517857,-0.10099036,0.03312713,-0.00152164,-0.00533347,0.00016892,0
 .02925741,-0.00872025,0.01048022,-0.00000603,-0.00000379,-0.00000948,-
 0.00000378,-0.00000069,-0.00000014,-0.00000637,-0.00000135,-0.00000017
 ,0.00000707,0.00000799,-0.00000540,0.00003470,0.00023314,-0.00002212,-
 0.00010764,-0.00009818,-0.00003891,0.00132703,0.00029042,0.00063254,0.
 00001034,-0.00049305,0.00016203,-0.00000078,0.00000182,0.00000046,0.00
 000852,0.00000586,0.00000175,-0.00000973,-0.00001407,-0.00000529,0.000
 20728,-0.00035369,0.00006568,0.00000220,-0.00000250,0.00000051,0.00000
 045,0.00000026,0.00000337,0.00000003,0.00000257,0.00000025,0.00000254,
 -0.00000142,0.00000101,-0.00000383,0.00000039,0.00000388,0.00004349,-0
 .00001384,0.00003512,0.00001733,0.00000308,0.00000535,0.00013086,-0.00
 006952,0.00007788,-0.00004770,-0.00003928,-0.00003126,-0.00015233,0.00
 088996,-0.00042670,-0.10255476,0.10739847,-0.00000460,0.00000536,-0.00
 000325,-0.00000589,-0.00001034,-0.00000606,0.00000514,0.00000126,-0.00
 000901,-0.00006033,-0.00001395,-0.00001838,0.00007113,-0.00009573,0.00
 011084,-0.00001518,-0.00002637,-0.00002723,-0.00041899,0.00014033,0.00
 008235,0.00000790,-0.00003963,0.00002090,-0.00004945,0.00018455,-0.000
 01827,-0.00000893,-0.00000018,-0.00000571,-0.00001503,0.00000799,-0.00
 001207,0.00000404,-0.00000115,0.00000760,0.00031457,-0.00006037,-0.000
 02368,0.00002032,-0.00000786,-0.00000056,-0.00003904,-0.00002482,0.000
 04150,-0.00188445,0.00055263,0.00270557,-0.00304477,0.00467830,0.00137
 036,0.00051392,0.00026631,-0.00170997,0.00006764,-0.00131353,-0.000341
 56,-0.07913798,0.03097490,-0.06364512,-0.00246877,0.00012554,0.0088292
 3,-0.00299787,0.00232206,0.00367090,0.00000819,0.00000840,0.00001359,-
 0.00000143,-0.00000200,-0.00000208,0.00000380,-0.00000461,0.00000286,0
 .00000629,0.00000469,-0.00000138,0.00005021,0.00026656,-0.00076404,-0.
 00031702,-0.00043594,0.00010656,-0.00006376,0.00059232,0.00004206,0.00
 079703,-0.00020786,-0.00036137,-0.00000177,-0.00000445,0.00000349,0.00
 000190,-0.00000313,-0.00000700,0.00000057,-0.00001682,0.00001739,0.000
 07516,-0.00036436,0.00030493,-0.00000240,-0.00000252,-0.00000265,-0.00
 000271,-0.00000166,0.00000657,-0.00000313,-0.00000028,-0.00000189,-0.0
 0000262,0.00000145,0.00000149,0.00000062,0.00000094,-0.00000073,-0.000
 00571,0.00000521,0.00000585,-0.00003360,0.00001317,0.00004868,0.000033
 19,-0.00000885,0.00000237,-0.00009003,0.00005017,0.00016199,0.00207315
 ,-0.00032079,-0.00504960,0.08662885,-0.03723471,0.05445523,0.00142930,
 -0.00006848,0.00020606,-0.00011850,0.00045070,0.00003414,0.00025989,-0
 .00010933,-0.00000543,-0.00004231,-0.00043318,0.00000909,0.00045399,0.
 00067503,0.00016491,0.00062693,0.00020872,0.00023686,0.00008956,-0.000
 23482,-0.00017900,-0.00009841,0.00005268,0.00000120,0.00002847,0.00007
 843,-0.00003159,-0.00002012,0.00008531,0.00000021,-0.00007488,-0.00008
 865,-0.00001240,0.00009909,-0.00001634,0.00001659,0.00005599,0.0000032
 4,0.00002092,0.00001473,-0.00001304,0.00000130,-0.00001879,-0.00000695
 ,0.00000455,-0.00015832,-0.00003193,0.00017013,-0.00009824,0.00003672,
 0.00000243,-0.00001912,-0.00006110,-0.00000471,-0.00163910,0.00038855,
 0.00088440,0.00003953,0.00004343,0.00002195,0.00004795,0.00006978,-0.0
 0005415,0.00001506,-0.00004103,0.00003550,-0.30312138,-0.08835448,-0.0
 4768210,0.00052361,0.00042472,0.00022560,-0.00142888,0.00387672,0.0010
 8893,-0.01877176,-0.00982288,-0.00452226,-0.00111082,-0.00042549,0.002
 56867,-0.00044914,0.00006283,0.00059861,-0.00010673,-0.00020075,-0.000
 12983,0.00014010,0.00017909,-0.00005942,0.00000165,-0.00000396,-0.0000
 0030,0.00000034,-0.00000350,-0.00000253,0.00000367,-0.00000493,-0.0000
 0103,0.00000623,-0.00000600,-0.00000173,-0.00000841,-0.00000010,-0.000
 00354,0.00001836,0.00000863,-0.00008088,-0.00004495,-0.00007196,-0.000
 01056,-0.00087870,-0.00049226,-0.00019929,0.00098308,0.00001816,0.0002
 0632,-0.00049813,-0.00021939,0.00004617,-0.00001148,0.00003723,-0.0000
 7807,0.00000400,-0.00000061,-0.00001348,0.00000887,0.00001638,-0.00000
 680,0.00001506,-0.00000089,0.00000386,0.00000893,-0.00000165,-0.000008
 14,0.32384378,0.00103035,-0.00419452,-0.00327698,-0.00157246,0.0001939
 6,0.00006755,0.00000144,-0.00004506,0.00004023,-0.00001702,0.00006580,
 0.00023926,-0.00047416,0.00104843,0.00092374,-0.02781301,-0.00679329,-
 0.00438435,0.00027344,-0.00020532,-0.00008007,0.00008191,0.00018077,-0
 .00008966,-0.00006400,-0.00028864,0.00008861,0.00003258,0.00013872,0.0
 0000560,-0.00012506,-0.00009214,-0.00001461,0.00011191,-0.00008584,0.0
 0000233,0.00002015,0.00008649,-0.00002367,0.00003412,0.00001860,0.0000
 1078,-0.00002218,-0.00004015,-0.00000536,0.00047769,-0.00018561,-0.000
 05155,0.00007908,0.00002150,0.00006533,-0.00002515,-0.00003145,0.00000
 229,-0.00023743,0.00032722,0.00001046,0.00001670,-0.00003247,0.0000044
 1,0.00011645,0.00024037,0.00012648,-0.00006366,0.00002869,-0.00006040,
 -0.08893595,-0.08756707,-0.02471620,0.00031756,-0.00068553,0.00013738,
 0.00290501,-0.00098816,-0.00358281,0.02014848,0.01013157,0.00272824,-0
 .00048458,0.00030264,0.00046849,-0.00013253,-0.00006288,0.00039872,0.0
 0001271,-0.00014284,-0.00002275,-0.00008657,-0.00017536,-0.00012677,0.
 00001131,-0.00000005,-0.00000054,0.00000048,0.00000196,-0.00000070,0.0
 0000143,0.00000643,-0.00000221,-0.00000207,0.00000680,-0.00000432,-0.0
 0000089,0.00001016,-0.00000310,-0.00011232,-0.00041478,-0.00014236,-0.
 00008545,-0.00001277,0.00041871,0.00097492,0.00029961,0.00009340,-0.00
 034192,0.00007618,0.00213729,-0.00003648,-0.00000670,-0.00014297,0.000
 00594,-0.00001493,0.00005237,-0.00001166,-0.00000775,0.00001364,0.0000
 0459,-0.00001230,0.00000088,-0.00000441,-0.00000124,-0.00000092,-0.000
 00663,-0.00000473,-0.00000021,0.09399733,0.08890570,0.00004979,-0.0030
 7117,0.00342735,-0.00070961,-0.00013755,0.00008511,-0.00021820,0.00005
 897,-0.00012867,0.00020778,0.00058285,-0.00005492,0.00028069,0.0003002
 0,-0.00212498,-0.01075180,-0.00133217,0.00206089,0.00012570,-0.0001089
 6,-0.00014967,0.00010428,-0.00004618,0.00009571,0.00005087,-0.00013782
 ,-0.00003283,0.00005642,0.00010024,0.00001421,-0.00007825,0.00008911,0
 .00000934,0.00003608,-0.00006801,-0.00001547,0.00003675,0.00013037,0.0
 0004740,0.00011323,0.00008417,0.00001500,0.00002146,-0.00015119,-0.000
 00387,0.00003097,-0.00040987,0.00015799,-0.00000686,0.00015974,-0.0000
 6931,-0.00002590,-0.00009699,-0.00002396,0.00056095,-0.00041285,0.0002
 0248,-0.00014287,-0.00002941,-0.00006667,0.00017996,0.00008894,0.00000
 653,0.00001586,0.00006194,0.00001168,-0.04606212,-0.02524364,-0.046904
 88,0.00053613,-0.00048767,-0.00110724,0.00125221,-0.00300265,0.0073615
 4,0.00616048,0.00183046,0.00545512,0.00116223,0.00012769,-0.00133606,-
 0.00002297,0.00045714,-0.00016868,-0.00012754,-0.00018076,-0.00011780,
 0.00000280,0.00011717,0.00002737,0.00000783,-0.00000151,0.00000016,0.0
 0000744,-0.00000044,0.00000067,-0.00000204,0.00000603,-0.00000350,-0.0
 0000935,0.00001178,0.00001185,-0.00000228,0.00000420,0.00001189,-0.000
 01948,-0.00027642,0.00023719,-0.00003075,0.00031962,-0.00095133,0.0003
 3092,0.00004988,0.00021383,0.00009329,0.00211197,-0.00451894,0.0003465
 7,-0.00016618,-0.00092888,0.00001968,0.00000688,-0.00005573,-0.0000276
 7,-0.00004628,-0.00000392,-0.00004050,-0.00000724,0.00001585,-0.000041
 48,0.00000338,0.00000021,-0.00000953,0.00001595,-0.00000070,0.04653884
 ,0.02869631,0.03929865\\-0.00001258,-0.00000044,-0.00002449,0.00001471
 ,-0.00000476,0.00001874,-0.00001459,0.00000272,0.00000967,0.00001415,-
 0.00002543,0.00000659,-0.00001725,0.00000787,-0.00002377,0.00000794,0.
 00001311,-0.00000018,0.00000466,-0.00000442,0.00001277,0.00000281,0.00
 001848,0.00000844,-0.00000679,-0.00001544,-0.00000058,-0.00001340,0.00
 000539,0.00000769,-0.00000550,-0.00000031,-0.00000700,0.00001377,-0.00
 000937,-0.00001271,0.00001120,0.00001528,-0.00000099,-0.00000492,-0.00
 001358,-0.00000199,0.00001556,-0.00000177,-0.00000607,-0.00000397,0.00
 002344,0.00000188,0.00000804,0.00000814,0.00000748,-0.00000910,-0.0000
 1780,-0.00001289,-0.00000288,-0.00001551,-0.00003161,0.00001641,-0.000
 02001,-0.00000794,0.00000924,-0.00000818,0.00001727,-0.00001533,0.0000
 1765,0.00000140,0.00001309,-0.00000100,0.00001786,-0.00001163,-0.00001
 650,0.00001284,0.00000247,0.00000975,-0.00000359,-0.00000494,0.0000001
 0,0.00001019,-0.00001759,0.00000082,0.00001950,0.00000474,-0.00000163,
 -0.00002344,0.00002167,0.00000278,-0.00000116,-0.00001118,0.00001544,0
 .00000822,0.00000094,-0.00000267,0.00000657,-0.00000091,-0.00000220,-0
 .00000147,0.00000182,-0.00000130,-0.00000023,0.00000533,0.00000140,0.0
 0000342,-0.00000086,-0.00000165,-0.00000799,-0.00000443,0.00000114,-0.
 00000284,-0.00000083,0.00000315,0.00000334,0.00000124,0.00000470,0.000
 00398,-0.00000389,0.00000184,0.00000090,0.00000748,0.00000149,-0.00000
 277,0.00000055,0.00000481,-0.00000102,-0.00000736,0.00000116,-0.000000
 72,0.00000026,0.00000055,-0.00000228,0.00000096,0.00000543,-0.00000449
 ,0.00000076,0.00000241,-0.00000028,-0.00000986,-0.00000507,0.00000373\
 \\@


 EDUCATION IS NOT TRAINING BUT RATHER THE PROCESS THAT EQUIPS YOU TO
 ENTERTAIN YOURSELF, A FRIEND, OR AN IDEA.  -- WALLACE STERLING
 Job cpu time:       0 days 20 hours 55 minutes 27.9 seconds.
 Elapsed time:       0 days  1 hours  2 minutes 45.4 seconds.
 File lengths (MBytes):  RWF=   2284 Int=      0 D2E=      0 Chk=     45 Scr=      1
 Normal termination of Gaussian 16 at Tue Apr 30 03:52:11 2019.
