 Entering Gaussian System, Link 0=/share/apps/gaussian16/g16/g16
 Initial command:
 /share/apps/gaussian16/g16/l1.exe "/home/amen01//scratch/929/Gau-10648.inp" -scrdir="/home/amen01//scratch/929/"
 Entering Link 1 = /share/apps/gaussian16/g16/l1.exe PID=     10649.
  
 Copyright (c) 1988-2017, Gaussian, Inc.  All Rights Reserved.
  
 This is part of the Gaussian(R) 16 program.  It is based on
 the Gaussian(R) 09 system (copyright 2009, Gaussian, Inc.),
 the Gaussian(R) 03 system (copyright 2003, Gaussian, Inc.),
 the Gaussian(R) 98 system (copyright 1998, Gaussian, Inc.),
 the Gaussian(R) 94 system (copyright 1995, Gaussian, Inc.),
 the Gaussian 92(TM) system (copyright 1992, Gaussian, Inc.),
 the Gaussian 90(TM) system (copyright 1990, Gaussian, Inc.),
 the Gaussian 88(TM) system (copyright 1988, Gaussian, Inc.),
 the Gaussian 86(TM) system (copyright 1986, Carnegie Mellon
 University), and the Gaussian 82(TM) system (copyright 1983,
 Carnegie Mellon University). Gaussian is a federally registered
 trademark of Gaussian, Inc.
  
 This software contains proprietary and confidential information,
 including trade secrets, belonging to Gaussian, Inc.
  
 This software is provided under written license and may be
 used, copied, transmitted, or stored only in accord with that
 written license.
  
 The following legend is applicable only to US Government
 contracts under FAR:
  
                    RESTRICTED RIGHTS LEGEND
  
 Use, reproduction and disclosure by the US Government is
 subject to restrictions as set forth in subparagraphs (a)
 and (c) of the Commercial Computer Software - Restricted
 Rights clause in FAR 52.227-19.
  
 Gaussian, Inc.
 340 Quinnipiac St., Bldg. 40, Wallingford CT 06492
  
  
 ---------------------------------------------------------------
 Warning -- This program may not be used in any manner that
 competes with the business of Gaussian, Inc. or will provide
 assistance to any competitor of Gaussian, Inc.  The licensee
 of this program is prohibited from giving any competitor of
 Gaussian, Inc. access to this program.  By using this program,
 the user acknowledges that Gaussian, Inc. is engaged in the
 business of creating and licensing software in the field of
 computational chemistry and represents and warrants to the
 licensee that it is not a competitor of Gaussian, Inc. and that
 it will not use this program in any manner prohibited above.
 ---------------------------------------------------------------
  

 Cite this work as:
 Gaussian 16, Revision B.01,
 M. J. Frisch, G. W. Trucks, H. B. Schlegel, G. E. Scuseria, 
 M. A. Robb, J. R. Cheeseman, G. Scalmani, V. Barone, 
 G. A. Petersson, H. Nakatsuji, X. Li, M. Caricato, A. V. Marenich, 
 J. Bloino, B. G. Janesko, R. Gomperts, B. Mennucci, H. P. Hratchian, 
 J. V. Ortiz, A. F. Izmaylov, J. L. Sonnenberg, D. Williams-Young, 
 F. Ding, F. Lipparini, F. Egidi, J. Goings, B. Peng, A. Petrone, 
 T. Henderson, D. Ranasinghe, V. G. Zakrzewski, J. Gao, N. Rega, 
 G. Zheng, W. Liang, M. Hada, M. Ehara, K. Toyota, R. Fukuda, 
 J. Hasegawa, M. Ishida, T. Nakajima, Y. Honda, O. Kitao, H. Nakai, 
 T. Vreven, K. Throssell, J. A. Montgomery, Jr., J. E. Peralta, 
 F. Ogliaro, M. J. Bearpark, J. J. Heyd, E. N. Brothers, K. N. Kudin, 
 V. N. Staroverov, T. A. Keith, R. Kobayashi, J. Normand, 
 K. Raghavachari, A. P. Rendell, J. C. Burant, S. S. Iyengar, 
 J. Tomasi, M. Cossi, J. M. Millam, M. Klene, C. Adamo, R. Cammi, 
 J. W. Ochterski, R. L. Martin, K. Morokuma, O. Farkas, 
 J. B. Foresman, and D. J. Fox, Gaussian, Inc., Wallingford CT, 2016.
 
 ******************************************
 Gaussian 16:  ES64L-G16RevB.01 20-Dec-2017
                19-Aug-2019 
 ******************************************
 %nprocshared=20
 Will use up to   20 processors via shared memory.
 %mem=180GB
 %chk=7-memb-dir-1cis.chk
 -------------------------------------------
 # opt freq b3lyp/6-311+g(d,p) int=grid=fine
 -------------------------------------------
 1/18=20,19=15,26=3,38=1/1,3;
 2/9=110,12=2,17=6,18=5,40=1/2;
 3/5=4,6=6,7=111,11=2,25=1,30=1,71=1,74=-5,75=-4/1,2,3;
 4//1;
 5/5=2,38=5/2;
 6/7=2,8=2,9=2,10=2,28=1/1;
 7//1,2,3,16;
 1/18=20,19=15,26=3/3(2);
 2/9=110/2;
 99//99;
 2/9=110/2;
 3/5=4,6=6,7=111,11=2,25=1,30=1,71=1,74=-5,75=-4/1,2,3;
 4/5=5,16=3,69=1/1;
 5/5=2,38=5/2;
 7//1,2,3,16;
 1/18=20,19=15,26=3/3(-5);
 2/9=110/2;
 6/7=2,8=2,9=2,10=2,19=2,28=1/1;
 99/9=1/99;
 ---------------
 7-memb-dir-1cis
 ---------------
 Symbolic Z-matrix:
 Charge =  0 Multiplicity = 1
 C                     1.16983  -2.77221  -0.06328 
 C                     1.00164  -1.42831   0.18783 
 C                     2.04069  -0.56147   0.2695 
 C                     3.37702  -0.90308   0.16378 
 C                     2.52478  -3.21865  -0.10749 
 C                     3.61152  -2.29888   0.01424 
 C                     1.5669    0.70436   0.32656 
 C                     2.37672   1.82378   0.22936 
 C                     3.77574   1.55028   0.1901 
 C                     4.26829   0.20808   0.17076 
 C                     0.18506   0.66241   0.34926 
 C                    -0.51407   1.8314    0.27251 
 C                     0.24022   3.01959   0.04148 
 C                     1.66154   3.03632   0.07965 
 C                    -0.04396  -3.44991  -0.31144 
 C                    -1.30053  -2.76002  -0.31725 
 C                    -1.39951  -1.36671   0.01489 
 C                    -0.19383  -0.7267    0.24934 
 C                    -0.54461   4.17089  -0.44613 
 C                    -2.0202    1.92257   0.36703 
 C                    -2.55302   2.84854  -0.72049 
 C                    -1.85941   3.96014  -1.0368 
 C                    -2.46504  -3.44064  -0.6797 
 C                    -3.69685  -2.78726  -0.70996 
 C                    -3.80296  -1.44974  -0.31464 
 C                    -2.6633   -0.71073   0.07081 
 C                    -2.84529   0.64812   0.78407 
 C                    -4.31075   1.05831   0.9814 
 C                    -5.12607  -0.83181  -0.23305 
 C                    -5.35601   0.3881    0.4829 
 H                    -6.37596   0.72539   0.63366 
 H                    -4.49642   1.95846   1.56331 
 H                    -2.51229   0.41762   1.81124 
 H                    -5.98135  -1.35961  -0.64025 
 H                    -4.58237  -3.34992  -0.99651 
 H                    -2.42638  -4.49194  -0.95701 
 H                    -0.00855  -4.50897  -0.55927 
 H                     2.73787  -4.26974  -0.2883 
 H                     4.6312   -2.66726  -0.06945 
 H                     5.33981   0.03751   0.09693 
 H                     4.48204   2.37443   0.12055 
 H                     2.20343   3.95932  -0.10606 
 H                    -0.04749   5.12155  -0.59953 
 H                    -2.23481   4.68772  -1.74823 
 H                    -3.51926   2.65006  -1.17148 
 H                    -2.15103   2.54388   1.27511 
 

 GradGradGradGradGradGradGradGradGradGradGradGradGradGradGradGradGradGrad
 Berny optimization.
 Initialization pass.
                           ----------------------------
                           !    Initial Parameters    !
                           ! (Angstroms and Degrees)  !
 --------------------------                            --------------------------
 ! Name  Definition              Value          Derivative Info.                !
 --------------------------------------------------------------------------------
 ! R1    R(1,2)                  1.3775         estimate D2E/DX2                !
 ! R2    R(1,5)                  1.4273         estimate D2E/DX2                !
 ! R3    R(1,15)                 1.4121         estimate D2E/DX2                !
 ! R4    R(2,3)                  1.3556         estimate D2E/DX2                !
 ! R5    R(2,18)                 1.3875         estimate D2E/DX2                !
 ! R6    R(3,4)                  1.3833         estimate D2E/DX2                !
 ! R7    R(3,7)                  1.3528         estimate D2E/DX2                !
 ! R8    R(4,6)                  1.4232         estimate D2E/DX2                !
 ! R9    R(4,10)                 1.4245         estimate D2E/DX2                !
 ! R10   R(5,6)                  1.4289         estimate D2E/DX2                !
 ! R11   R(5,38)                 1.0876         estimate D2E/DX2                !
 ! R12   R(6,39)                 1.0874         estimate D2E/DX2                !
 ! R13   R(7,8)                  1.385          estimate D2E/DX2                !
 ! R14   R(7,11)                 1.3827         estimate D2E/DX2                !
 ! R15   R(8,9)                  1.426          estimate D2E/DX2                !
 ! R16   R(8,14)                 1.4157         estimate D2E/DX2                !
 ! R17   R(9,10)                 1.4299         estimate D2E/DX2                !
 ! R18   R(9,41)                 1.0876         estimate D2E/DX2                !
 ! R19   R(10,40)                1.0875         estimate D2E/DX2                !
 ! R20   R(11,12)                1.3643         estimate D2E/DX2                !
 ! R21   R(11,18)                1.4433         estimate D2E/DX2                !
 ! R22   R(12,13)                1.4262         estimate D2E/DX2                !
 ! R23   R(12,20)                1.5118         estimate D2E/DX2                !
 ! R24   R(13,14)                1.4219         estimate D2E/DX2                !
 ! R25   R(13,19)                1.4762         estimate D2E/DX2                !
 ! R26   R(14,42)                1.0863         estimate D2E/DX2                !
 ! R27   R(15,16)                1.4335         estimate D2E/DX2                !
 ! R28   R(15,37)                1.0882         estimate D2E/DX2                !
 ! R29   R(16,17)                1.4358         estimate D2E/DX2                !
 ! R30   R(16,23)                1.3967         estimate D2E/DX2                !
 ! R31   R(17,18)                1.385          estimate D2E/DX2                !
 ! R32   R(17,26)                1.425          estimate D2E/DX2                !
 ! R33   R(19,22)                1.4567         estimate D2E/DX2                !
 ! R34   R(19,43)                1.0837         estimate D2E/DX2                !
 ! R35   R(20,21)                1.5245         estimate D2E/DX2                !
 ! R36   R(20,27)                1.5745         estimate D2E/DX2                !
 ! R37   R(20,46)                1.108          estimate D2E/DX2                !
 ! R38   R(21,22)                1.3479         estimate D2E/DX2                !
 ! R39   R(21,45)                1.0846         estimate D2E/DX2                !
 ! R40   R(22,44)                1.0846         estimate D2E/DX2                !
 ! R41   R(23,24)                1.3947         estimate D2E/DX2                !
 ! R42   R(23,36)                1.0879         estimate D2E/DX2                !
 ! R43   R(24,25)                1.3987         estimate D2E/DX2                !
 ! R44   R(24,35)                1.0876         estimate D2E/DX2                !
 ! R45   R(25,26)                1.4119         estimate D2E/DX2                !
 ! R46   R(25,29)                1.4626         estimate D2E/DX2                !
 ! R47   R(26,27)                1.5454         estimate D2E/DX2                !
 ! R48   R(27,28)                1.5345         estimate D2E/DX2                !
 ! R49   R(27,33)                1.1041         estimate D2E/DX2                !
 ! R50   R(28,30)                1.338          estimate D2E/DX2                !
 ! R51   R(28,32)                1.0878         estimate D2E/DX2                !
 ! R52   R(29,30)                1.4331         estimate D2E/DX2                !
 ! R53   R(29,34)                1.0844         estimate D2E/DX2                !
 ! R54   R(30,31)                1.0848         estimate D2E/DX2                !
 ! A1    A(2,1,5)              115.26           estimate D2E/DX2                !
 ! A2    A(2,1,15)             113.2847         estimate D2E/DX2                !
 ! A3    A(5,1,15)             131.332          estimate D2E/DX2                !
 ! A4    A(1,2,3)              122.7691         estimate D2E/DX2                !
 ! A5    A(1,2,18)             127.3456         estimate D2E/DX2                !
 ! A6    A(3,2,18)             109.5348         estimate D2E/DX2                !
 ! A7    A(2,3,4)              125.3039         estimate D2E/DX2                !
 ! A8    A(2,3,7)              109.4165         estimate D2E/DX2                !
 ! A9    A(4,3,7)              124.9331         estimate D2E/DX2                !
 ! A10   A(3,4,6)              114.1658         estimate D2E/DX2                !
 ! A11   A(3,4,10)             114.294          estimate D2E/DX2                !
 ! A12   A(6,4,10)             131.4863         estimate D2E/DX2                !
 ! A13   A(1,5,6)              121.1991         estimate D2E/DX2                !
 ! A14   A(1,5,38)             119.5664         estimate D2E/DX2                !
 ! A15   A(6,5,38)             119.1584         estimate D2E/DX2                !
 ! A16   A(4,6,5)              120.9918         estimate D2E/DX2                !
 ! A17   A(4,6,39)             119.6583         estimate D2E/DX2                !
 ! A18   A(5,6,39)             119.2453         estimate D2E/DX2                !
 ! A19   A(3,7,8)              123.2659         estimate D2E/DX2                !
 ! A20   A(3,7,11)             108.8036         estimate D2E/DX2                !
 ! A21   A(8,7,11)             127.5904         estimate D2E/DX2                !
 ! A22   A(7,8,9)              114.8682         estimate D2E/DX2                !
 ! A23   A(7,8,14)             113.8467         estimate D2E/DX2                !
 ! A24   A(9,8,14)             131.0691         estimate D2E/DX2                !
 ! A25   A(8,9,10)             121.2218         estimate D2E/DX2                !
 ! A26   A(8,9,41)             119.5725         estimate D2E/DX2                !
 ! A27   A(10,9,41)            119.1262         estimate D2E/DX2                !
 ! A28   A(4,10,9)             121.1158         estimate D2E/DX2                !
 ! A29   A(4,10,40)            119.591          estimate D2E/DX2                !
 ! A30   A(9,10,40)            119.18           estimate D2E/DX2                !
 ! A31   A(7,11,12)            119.0278         estimate D2E/DX2                !
 ! A32   A(7,11,18)            106.8831         estimate D2E/DX2                !
 ! A33   A(12,11,18)           133.3349         estimate D2E/DX2                !
 ! A34   A(11,12,13)           116.8684         estimate D2E/DX2                !
 ! A35   A(11,12,20)           123.9644         estimate D2E/DX2                !
 ! A36   A(13,12,20)           119.1279         estimate D2E/DX2                !
 ! A37   A(12,13,14)           122.2827         estimate D2E/DX2                !
 ! A38   A(12,13,19)           114.9651         estimate D2E/DX2                !
 ! A39   A(14,13,19)           122.0806         estimate D2E/DX2                !
 ! A40   A(8,14,13)            119.8499         estimate D2E/DX2                !
 ! A41   A(8,14,42)            119.592          estimate D2E/DX2                !
 ! A42   A(13,14,42)           120.267          estimate D2E/DX2                !
 ! A43   A(1,15,16)            121.5469         estimate D2E/DX2                !
 ! A44   A(1,15,37)            118.626          estimate D2E/DX2                !
 ! A45   A(16,15,37)           119.7325         estimate D2E/DX2                !
 ! A46   A(15,16,17)           121.7706         estimate D2E/DX2                !
 ! A47   A(15,16,23)           119.8273         estimate D2E/DX2                !
 ! A48   A(17,16,23)           118.3892         estimate D2E/DX2                !
 ! A49   A(16,17,18)           115.3141         estimate D2E/DX2                !
 ! A50   A(16,17,26)           121.1275         estimate D2E/DX2                !
 ! A51   A(18,17,26)           123.5511         estimate D2E/DX2                !
 ! A52   A(2,18,11)            105.2813         estimate D2E/DX2                !
 ! A53   A(2,18,17)            120.5884         estimate D2E/DX2                !
 ! A54   A(11,18,17)           133.2345         estimate D2E/DX2                !
 ! A55   A(13,19,22)           120.0636         estimate D2E/DX2                !
 ! A56   A(13,19,43)           119.1455         estimate D2E/DX2                !
 ! A57   A(22,19,43)           118.9177         estimate D2E/DX2                !
 ! A58   A(12,20,21)           109.8902         estimate D2E/DX2                !
 ! A59   A(12,20,27)           119.3283         estimate D2E/DX2                !
 ! A60   A(12,20,46)           101.6936         estimate D2E/DX2                !
 ! A61   A(21,20,27)           119.8322         estimate D2E/DX2                !
 ! A62   A(21,20,46)           101.6996         estimate D2E/DX2                !
 ! A63   A(27,20,46)           100.0746         estimate D2E/DX2                !
 ! A64   A(20,21,22)           119.2406         estimate D2E/DX2                !
 ! A65   A(20,21,45)           119.7908         estimate D2E/DX2                !
 ! A66   A(22,21,45)           120.7813         estimate D2E/DX2                !
 ! A67   A(19,22,21)           119.2498         estimate D2E/DX2                !
 ! A68   A(19,22,44)           118.7706         estimate D2E/DX2                !
 ! A69   A(21,22,44)           121.9402         estimate D2E/DX2                !
 ! A70   A(16,23,24)           120.9128         estimate D2E/DX2                !
 ! A71   A(16,23,36)           120.4921         estimate D2E/DX2                !
 ! A72   A(24,23,36)           118.5907         estimate D2E/DX2                !
 ! A73   A(23,24,25)           120.5864         estimate D2E/DX2                !
 ! A74   A(23,24,35)           118.8467         estimate D2E/DX2                !
 ! A75   A(25,24,35)           120.4907         estimate D2E/DX2                !
 ! A76   A(24,25,26)           121.0923         estimate D2E/DX2                !
 ! A77   A(24,25,29)           119.2351         estimate D2E/DX2                !
 ! A78   A(26,25,29)           119.593          estimate D2E/DX2                !
 ! A79   A(17,26,25)           117.6584         estimate D2E/DX2                !
 ! A80   A(17,26,27)           121.8242         estimate D2E/DX2                !
 ! A81   A(25,26,27)           119.4169         estimate D2E/DX2                !
 ! A82   A(20,27,26)           121.8548         estimate D2E/DX2                !
 ! A83   A(20,27,28)           108.5511         estimate D2E/DX2                !
 ! A84   A(20,27,33)           104.9128         estimate D2E/DX2                !
 ! A85   A(26,27,28)           114.0069         estimate D2E/DX2                !
 ! A86   A(26,27,33)           102.1392         estimate D2E/DX2                !
 ! A87   A(28,27,33)           102.9555         estimate D2E/DX2                !
 ! A88   A(27,28,30)           124.3498         estimate D2E/DX2                !
 ! A89   A(27,28,32)           116.9349         estimate D2E/DX2                !
 ! A90   A(30,28,32)           118.7147         estimate D2E/DX2                !
 ! A91   A(25,29,30)           122.1868         estimate D2E/DX2                !
 ! A92   A(25,29,34)           119.1389         estimate D2E/DX2                !
 ! A93   A(30,29,34)           118.3845         estimate D2E/DX2                !
 ! A94   A(28,30,29)           119.156          estimate D2E/DX2                !
 ! A95   A(28,30,31)           121.8021         estimate D2E/DX2                !
 ! A96   A(29,30,31)           119.0107         estimate D2E/DX2                !
 ! D1    D(5,1,2,3)              5.6818         estimate D2E/DX2                !
 ! D2    D(5,1,2,18)           178.1557         estimate D2E/DX2                !
 ! D3    D(15,1,2,3)          -170.7449         estimate D2E/DX2                !
 ! D4    D(15,1,2,18)            1.729          estimate D2E/DX2                !
 ! D5    D(2,1,5,6)             -3.9802         estimate D2E/DX2                !
 ! D6    D(2,1,5,38)           179.2193         estimate D2E/DX2                !
 ! D7    D(15,1,5,6)           171.6472         estimate D2E/DX2                !
 ! D8    D(15,1,5,38)           -5.1533         estimate D2E/DX2                !
 ! D9    D(2,1,15,16)            1.1545         estimate D2E/DX2                !
 ! D10   D(2,1,15,37)          177.6059         estimate D2E/DX2                !
 ! D11   D(5,1,15,16)         -174.5405         estimate D2E/DX2                !
 ! D12   D(5,1,15,37)            1.9109         estimate D2E/DX2                !
 ! D13   D(1,2,3,4)             -2.4248         estimate D2E/DX2                !
 ! D14   D(1,2,3,7)            171.0749         estimate D2E/DX2                !
 ! D15   D(18,2,3,4)          -176.0815         estimate D2E/DX2                !
 ! D16   D(18,2,3,7)            -2.5817         estimate D2E/DX2                !
 ! D17   D(1,2,18,11)         -172.1392         estimate D2E/DX2                !
 ! D18   D(1,2,18,17)           -1.605          estimate D2E/DX2                !
 ! D19   D(3,2,18,11)            1.1498         estimate D2E/DX2                !
 ! D20   D(3,2,18,17)          171.684          estimate D2E/DX2                !
 ! D21   D(2,3,4,6)             -2.72           estimate D2E/DX2                !
 ! D22   D(2,3,4,10)           174.9196         estimate D2E/DX2                !
 ! D23   D(7,3,4,6)           -175.2368         estimate D2E/DX2                !
 ! D24   D(7,3,4,10)             2.4028         estimate D2E/DX2                !
 ! D25   D(2,3,7,8)           -170.7748         estimate D2E/DX2                !
 ! D26   D(2,3,7,11)             2.9827         estimate D2E/DX2                !
 ! D27   D(4,3,7,8)              2.7546         estimate D2E/DX2                !
 ! D28   D(4,3,7,11)           176.5121         estimate D2E/DX2                !
 ! D29   D(3,4,6,5)              4.2002         estimate D2E/DX2                !
 ! D30   D(3,4,6,39)          -179.5456         estimate D2E/DX2                !
 ! D31   D(10,4,6,5)          -172.9275         estimate D2E/DX2                !
 ! D32   D(10,4,6,39)            3.3267         estimate D2E/DX2                !
 ! D33   D(3,4,10,9)            -4.2013         estimate D2E/DX2                !
 ! D34   D(3,4,10,40)          179.7006         estimate D2E/DX2                !
 ! D35   D(6,4,10,9)           172.9235         estimate D2E/DX2                !
 ! D36   D(6,4,10,40)           -3.1746         estimate D2E/DX2                !
 ! D37   D(1,5,6,4)             -0.9465         estimate D2E/DX2                !
 ! D38   D(1,5,6,39)          -177.216          estimate D2E/DX2                !
 ! D39   D(38,5,6,4)           175.8668         estimate D2E/DX2                !
 ! D40   D(38,5,6,39)           -0.4027         estimate D2E/DX2                !
 ! D41   D(3,7,8,9)             -5.6759         estimate D2E/DX2                !
 ! D42   D(3,7,8,14)           169.5844         estimate D2E/DX2                !
 ! D43   D(11,7,8,9)          -178.212          estimate D2E/DX2                !
 ! D44   D(11,7,8,14)           -2.9517         estimate D2E/DX2                !
 ! D45   D(3,7,11,12)         -173.5537         estimate D2E/DX2                !
 ! D46   D(3,7,11,18)           -2.2022         estimate D2E/DX2                !
 ! D47   D(8,7,11,12)           -0.1423         estimate D2E/DX2                !
 ! D48   D(8,7,11,18)          171.2092         estimate D2E/DX2                !
 ! D49   D(7,8,9,10)             3.6548         estimate D2E/DX2                !
 ! D50   D(7,8,9,41)          -179.616          estimate D2E/DX2                !
 ! D51   D(14,8,9,10)         -170.5921         estimate D2E/DX2                !
 ! D52   D(14,8,9,41)            6.1371         estimate D2E/DX2                !
 ! D53   D(7,8,14,13)           -0.0142         estimate D2E/DX2                !
 ! D54   D(7,8,14,42)         -173.8355         estimate D2E/DX2                !
 ! D55   D(9,8,14,13)          174.279          estimate D2E/DX2                !
 ! D56   D(9,8,14,42)            0.4578         estimate D2E/DX2                !
 ! D57   D(8,9,10,4)             1.2352         estimate D2E/DX2                !
 ! D58   D(8,9,10,40)          177.349          estimate D2E/DX2                !
 ! D59   D(41,9,10,4)         -175.5083         estimate D2E/DX2                !
 ! D60   D(41,9,10,40)           0.6055         estimate D2E/DX2                !
 ! D61   D(7,11,12,13)           5.9497         estimate D2E/DX2                !
 ! D62   D(7,11,12,20)        -176.3557         estimate D2E/DX2                !
 ! D63   D(18,11,12,13)       -162.6403         estimate D2E/DX2                !
 ! D64   D(18,11,12,20)         15.0542         estimate D2E/DX2                !
 ! D65   D(7,11,18,2)            0.6394         estimate D2E/DX2                !
 ! D66   D(7,11,18,17)        -168.1556         estimate D2E/DX2                !
 ! D67   D(12,11,18,2)         170.2249         estimate D2E/DX2                !
 ! D68   D(12,11,18,17)          1.4299         estimate D2E/DX2                !
 ! D69   D(11,12,13,14)         -8.913          estimate D2E/DX2                !
 ! D70   D(11,12,13,19)        161.8706         estimate D2E/DX2                !
 ! D71   D(20,12,13,14)        173.2758         estimate D2E/DX2                !
 ! D72   D(20,12,13,19)        -15.9406         estimate D2E/DX2                !
 ! D73   D(11,12,20,21)       -134.8086         estimate D2E/DX2                !
 ! D74   D(11,12,20,27)          9.2934         estimate D2E/DX2                !
 ! D75   D(11,12,20,46)        118.0279         estimate D2E/DX2                !
 ! D76   D(13,12,20,21)         42.837          estimate D2E/DX2                !
 ! D77   D(13,12,20,27)       -173.0609         estimate D2E/DX2                !
 ! D78   D(13,12,20,46)        -64.3264         estimate D2E/DX2                !
 ! D79   D(12,13,14,8)           5.9255         estimate D2E/DX2                !
 ! D80   D(12,13,14,42)        179.7045         estimate D2E/DX2                !
 ! D81   D(19,13,14,8)        -164.2073         estimate D2E/DX2                !
 ! D82   D(19,13,14,42)          9.5717         estimate D2E/DX2                !
 ! D83   D(12,13,19,22)        -18.5978         estimate D2E/DX2                !
 ! D84   D(12,13,19,43)        177.1454         estimate D2E/DX2                !
 ! D85   D(14,13,19,22)        152.2065         estimate D2E/DX2                !
 ! D86   D(14,13,19,43)        -12.0503         estimate D2E/DX2                !
 ! D87   D(1,15,16,17)          -4.1845         estimate D2E/DX2                !
 ! D88   D(1,15,16,23)         174.4882         estimate D2E/DX2                !
 ! D89   D(37,15,16,17)        179.4026         estimate D2E/DX2                !
 ! D90   D(37,15,16,23)         -1.9246         estimate D2E/DX2                !
 ! D91   D(15,16,17,18)          4.1633         estimate D2E/DX2                !
 ! D92   D(15,16,17,26)       -176.7839         estimate D2E/DX2                !
 ! D93   D(23,16,17,18)       -174.5279         estimate D2E/DX2                !
 ! D94   D(23,16,17,26)          4.5249         estimate D2E/DX2                !
 ! D95   D(15,16,23,24)       -179.1602         estimate D2E/DX2                !
 ! D96   D(15,16,23,36)          0.0676         estimate D2E/DX2                !
 ! D97   D(17,16,23,24)         -0.4428         estimate D2E/DX2                !
 ! D98   D(17,16,23,36)        178.785          estimate D2E/DX2                !
 ! D99   D(16,17,18,2)          -1.4312         estimate D2E/DX2                !
 ! D100  D(16,17,18,11)        165.9918         estimate D2E/DX2                !
 ! D101  D(26,17,18,2)         179.5417         estimate D2E/DX2                !
 ! D102  D(26,17,18,11)        -13.0353         estimate D2E/DX2                !
 ! D103  D(16,17,26,25)         -4.9259         estimate D2E/DX2                !
 ! D104  D(16,17,26,27)        163.0035         estimate D2E/DX2                !
 ! D105  D(18,17,26,25)        174.0467         estimate D2E/DX2                !
 ! D106  D(18,17,26,27)        -18.0239         estimate D2E/DX2                !
 ! D107  D(13,19,22,21)         23.6137         estimate D2E/DX2                !
 ! D108  D(13,19,22,44)       -154.1484         estimate D2E/DX2                !
 ! D109  D(43,19,22,21)       -172.0938         estimate D2E/DX2                !
 ! D110  D(43,19,22,44)         10.144          estimate D2E/DX2                !
 ! D111  D(12,20,21,22)        -38.3174         estimate D2E/DX2                !
 ! D112  D(12,20,21,45)        146.6159         estimate D2E/DX2                !
 ! D113  D(27,20,21,22)        177.7884         estimate D2E/DX2                !
 ! D114  D(27,20,21,45)          2.7216         estimate D2E/DX2                !
 ! D115  D(46,20,21,22)         68.8421         estimate D2E/DX2                !
 ! D116  D(46,20,21,45)       -106.2247         estimate D2E/DX2                !
 ! D117  D(12,20,27,26)        -51.8238         estimate D2E/DX2                !
 ! D118  D(12,20,27,28)        172.6348         estimate D2E/DX2                !
 ! D119  D(12,20,27,33)         63.1171         estimate D2E/DX2                !
 ! D120  D(21,20,27,26)         88.7125         estimate D2E/DX2                !
 ! D121  D(21,20,27,28)        -46.829          estimate D2E/DX2                !
 ! D122  D(21,20,27,33)       -156.3467         estimate D2E/DX2                !
 ! D123  D(46,20,27,26)       -161.4532         estimate D2E/DX2                !
 ! D124  D(46,20,27,28)         63.0053         estimate D2E/DX2                !
 ! D125  D(46,20,27,33)        -46.5124         estimate D2E/DX2                !
 ! D126  D(20,21,22,19)          7.0742         estimate D2E/DX2                !
 ! D127  D(20,21,22,44)       -175.2374         estimate D2E/DX2                !
 ! D128  D(45,21,22,19)       -177.9093         estimate D2E/DX2                !
 ! D129  D(45,21,22,44)         -0.2209         estimate D2E/DX2                !
 ! D130  D(16,23,24,25)         -3.1193         estimate D2E/DX2                !
 ! D131  D(16,23,24,35)       -179.9619         estimate D2E/DX2                !
 ! D132  D(36,23,24,25)        177.6385         estimate D2E/DX2                !
 ! D133  D(36,23,24,35)          0.7959         estimate D2E/DX2                !
 ! D134  D(23,24,25,26)          2.6647         estimate D2E/DX2                !
 ! D135  D(23,24,25,29)       -174.0769         estimate D2E/DX2                !
 ! D136  D(35,24,25,26)        179.4552         estimate D2E/DX2                !
 ! D137  D(35,24,25,29)          2.7135         estimate D2E/DX2                !
 ! D138  D(24,25,26,17)          1.3312         estimate D2E/DX2                !
 ! D139  D(24,25,26,27)       -166.899          estimate D2E/DX2                !
 ! D140  D(29,25,26,17)        178.0613         estimate D2E/DX2                !
 ! D141  D(29,25,26,27)          9.8311         estimate D2E/DX2                !
 ! D142  D(24,25,29,30)        163.2596         estimate D2E/DX2                !
 ! D143  D(24,25,29,34)        -10.4551         estimate D2E/DX2                !
 ! D144  D(26,25,29,30)        -13.5316         estimate D2E/DX2                !
 ! D145  D(26,25,29,34)        172.7537         estimate D2E/DX2                !
 ! D146  D(17,26,27,20)         58.1503         estimate D2E/DX2                !
 ! D147  D(17,26,27,28)       -168.4751         estimate D2E/DX2                !
 ! D148  D(17,26,27,33)        -58.1811         estimate D2E/DX2                !
 ! D149  D(25,26,27,20)       -134.1267         estimate D2E/DX2                !
 ! D150  D(25,26,27,28)         -0.752          estimate D2E/DX2                !
 ! D151  D(25,26,27,33)        109.5419         estimate D2E/DX2                !
 ! D152  D(20,27,28,30)        133.285          estimate D2E/DX2                !
 ! D153  D(20,27,28,32)        -46.4078         estimate D2E/DX2                !
 ! D154  D(26,27,28,30)         -6.0798         estimate D2E/DX2                !
 ! D155  D(26,27,28,32)        174.2274         estimate D2E/DX2                !
 ! D156  D(33,27,28,30)       -115.8758         estimate D2E/DX2                !
 ! D157  D(33,27,28,32)         64.4314         estimate D2E/DX2                !
 ! D158  D(27,28,30,29)          3.1358         estimate D2E/DX2                !
 ! D159  D(27,28,30,31)       -178.915          estimate D2E/DX2                !
 ! D160  D(32,28,30,29)       -177.1765         estimate D2E/DX2                !
 ! D161  D(32,28,30,31)          0.7727         estimate D2E/DX2                !
 ! D162  D(25,29,30,28)          6.8417         estimate D2E/DX2                !
 ! D163  D(25,29,30,31)       -171.1654         estimate D2E/DX2                !
 ! D164  D(34,29,30,28)       -179.3981         estimate D2E/DX2                !
 ! D165  D(34,29,30,31)          2.5948         estimate D2E/DX2                !
 --------------------------------------------------------------------------------
 Trust Radius=3.00D-01 FncErr=1.00D-07 GrdErr=1.00D-06 EigMax=2.50D+02 EigMin=1.00D-04
 Number of steps in this run=    276 maximum allowed number of steps=    276.
 GradGradGradGradGradGradGradGradGradGradGradGradGradGradGradGradGradGrad

                          Input orientation:                          
 ---------------------------------------------------------------------
 Center     Atomic      Atomic             Coordinates (Angstroms)
 Number     Number       Type             X           Y           Z
 ---------------------------------------------------------------------
      1          6           0        1.169830   -2.772210   -0.063280
      2          6           0        1.001640   -1.428310    0.187830
      3          6           0        2.040690   -0.561470    0.269500
      4          6           0        3.377020   -0.903080    0.163780
      5          6           0        2.524780   -3.218650   -0.107490
      6          6           0        3.611520   -2.298880    0.014240
      7          6           0        1.566900    0.704360    0.326560
      8          6           0        2.376720    1.823780    0.229360
      9          6           0        3.775740    1.550280    0.190100
     10          6           0        4.268290    0.208080    0.170760
     11          6           0        0.185060    0.662410    0.349260
     12          6           0       -0.514070    1.831400    0.272510
     13          6           0        0.240220    3.019590    0.041480
     14          6           0        1.661540    3.036320    0.079650
     15          6           0       -0.043960   -3.449910   -0.311440
     16          6           0       -1.300530   -2.760020   -0.317250
     17          6           0       -1.399510   -1.366710    0.014890
     18          6           0       -0.193830   -0.726700    0.249340
     19          6           0       -0.544610    4.170890   -0.446130
     20          6           0       -2.020200    1.922570    0.367030
     21          6           0       -2.553020    2.848540   -0.720490
     22          6           0       -1.859410    3.960140   -1.036800
     23          6           0       -2.465040   -3.440640   -0.679700
     24          6           0       -3.696850   -2.787260   -0.709960
     25          6           0       -3.802960   -1.449740   -0.314640
     26          6           0       -2.663300   -0.710730    0.070810
     27          6           0       -2.845290    0.648120    0.784070
     28          6           0       -4.310750    1.058310    0.981400
     29          6           0       -5.126070   -0.831810   -0.233050
     30          6           0       -5.356010    0.388100    0.482900
     31          1           0       -6.375960    0.725390    0.633660
     32          1           0       -4.496420    1.958460    1.563310
     33          1           0       -2.512290    0.417620    1.811240
     34          1           0       -5.981350   -1.359610   -0.640250
     35          1           0       -4.582370   -3.349920   -0.996510
     36          1           0       -2.426380   -4.491940   -0.957010
     37          1           0       -0.008550   -4.508970   -0.559270
     38          1           0        2.737870   -4.269740   -0.288300
     39          1           0        4.631200   -2.667260   -0.069450
     40          1           0        5.339810    0.037510    0.096930
     41          1           0        4.482040    2.374430    0.120550
     42          1           0        2.203430    3.959320   -0.106060
     43          1           0       -0.047490    5.121550   -0.599530
     44          1           0       -2.234810    4.687720   -1.748230
     45          1           0       -3.519260    2.650060   -1.171480
     46          1           0       -2.151030    2.543880    1.275110
 ---------------------------------------------------------------------
                    Distance matrix (angstroms):
                    1          2          3          4          5
     1  C    0.000000
     2  C    1.377466   0.000000
     3  C    2.399273   1.355620   0.000000
     4  C    2.901188   2.432874   1.383348   0.000000
     5  C    1.427289   2.369069   2.727099   2.482290   0.000000
     6  C    2.488353   2.756719   2.356111   1.423239   1.428915
     7  C    3.520821   2.210666   1.352797   2.426292   4.061520
     8  C    4.760814   3.531099   2.409138   2.905282   5.055837
     9  C    5.053602   4.070336   2.734262   2.485688   4.939246
    10  C    4.305503   3.653637   2.358847   1.424460   3.854832
    11  C    3.596745   2.250327   2.224322   3.560024   4.554727
    12  C    4.913400   3.595867   3.500376   4.757077   5.906100
    13  C    5.866864   4.514974   4.014683   5.024123   6.645077
    14  C    5.831057   4.514432   3.622691   4.297537   6.317029
    15  C    1.412143   2.330111   3.609202   4.291303   2.587180
    16  C    2.483411   2.707128   4.042481   5.055600   3.858411
    17  C    2.929684   2.408158   3.542346   4.801287   4.341049
    18  C    2.478187   1.387512   2.240711   3.576227   3.705129
    19  C    7.161879   5.843273   5.439773   6.441766   8.008816
    20  C    5.692312   4.515753   4.761386   6.095539   6.878529
    21  C    6.773800   5.634900   5.806068   7.072620   7.935403
    22  C    7.446380   6.222597   6.112459   7.246551   8.462846
    23  C    3.746872   4.101213   5.430672   6.424977   5.027426
    24  C    4.909480   4.972784   6.231601   7.372462   6.265600
    25  C    5.151771   4.830850   5.939570   7.216636   6.573602
    26  C    4.354373   3.736362   4.710550   6.044097   5.765208
    27  C    5.342083   4.412022   5.059713   6.442680   6.677158
    28  C    6.767643   5.918997   6.593275   7.976049   8.136494
    29  C    6.590321   6.171044   7.189443   8.512643   8.015502
    30  C    7.271345   6.618620   7.460455   8.833731   8.687005
    31  H    8.346130   7.698452   8.522243   9.899158   9.763602
    32  H    7.558533   6.602334   7.124451   8.493418   8.882077
    33  H    5.219851   4.288429   4.905630   6.256384   6.502004
    34  H    7.312162   7.032253   8.112817   9.403934   8.723194
    35  H    5.855977   6.022990   7.296791   8.407448   7.163740
    36  H    4.085211   4.737912   6.075165   6.914878   5.182368
    37  H    2.156599   3.327027   4.524268   4.998733   2.878679
    38  H    2.179904   3.363766   3.814245   3.456485   1.087607
    39  H    3.462966   3.843813   3.355589   2.177084   2.177724
    40  H    5.030798   4.580023   3.357492   2.177550   4.309148
    41  H    6.123106   5.155438   3.821241   3.459048   5.930043
    42  H    6.810555   5.527859   4.539281   5.009297   7.185160
    43  H    8.005053   6.679916   6.116570   6.971806   8.741717
    44  H    8.371451   7.185316   7.064356   8.148955   9.373175
    45  H    7.253736   6.238538   6.580531   7.871874   8.491422
    46  H    6.409385   5.186502   5.312717   6.608776   7.548611
                    6          7          8          9         10
     6  C    0.000000
     7  C    3.646569   0.000000
     8  C    4.308983   1.385048   0.000000
     9  C    3.856673   2.369214   1.426044   0.000000
    10  C    2.596285   2.751014   2.488364   1.429853   0.000000
    11  C    4.541157   1.382663   2.483250   3.702246   4.112304
    12  C    5.843493   2.367188   2.891122   4.299801   5.051385
    13  C    6.297025   2.683587   2.455584   3.831561   4.913924
    14  C    5.680762   2.346904   1.415680   2.586572   3.847387
    15  C    3.846228   4.501097   5.827861   6.312175   5.675289
    16  C    4.944772   4.542970   5.901879   6.678668   6.329260
    17  C    5.096995   3.631261   4.948246   5.943294   5.884574
    18  C    4.124041   2.270257   3.621198   4.576640   4.559660
    19  C    7.703459   4.131871   3.807805   5.092918   6.264856
    20  C    7.047082   3.788530   4.400184   5.810579   6.520974
    21  C    8.064572   4.761046   5.123933   6.524405   7.368624
    22  C    8.379206   4.919192   4.910396   6.250410   7.285936
    23  C    6.221716   5.869423   7.209934   8.038232   7.705464
    24  C    7.360384   6.401004   7.683246   8.687000   8.555185
    25  C    7.470188   5.821227   7.014294   8.166491   8.254033
    26  C    6.472927   4.467939   5.643641   6.825513   6.992935
    27  C    7.139177   4.436203   5.381382   6.708557   7.153517
    28  C    8.658434   5.924598   6.773017   8.139995   8.659097
    29  C    8.863347   6.889763   7.972317   9.224729   9.460361
    30  C    9.373158   6.931893   7.868963   9.210063   9.631043
    31  H   10.453691   7.948822   8.830590  10.194812  10.666862
    32  H    9.287801   6.313966   7.002686   8.395293   9.045616
    33  H    6.936111   4.350435   5.327481   6.591687   6.979351
    34  H    9.660939   7.884844   8.985963  10.215564  10.400505
    35  H    8.322628   7.483396   8.757789   9.761045   9.610206
    36  H    6.496851   6.677977   8.022815   8.734448   8.257158
    37  H    4.279990   5.517748   6.812868   7.183099   6.408968
    38  H    2.176944   5.146931   6.126123   5.931161   4.754345
    39  H    1.087408   4.573246   5.034025   4.311244   2.908090
    40  H    2.907326   3.838264   3.462398   2.177951   1.087520
    41  H    4.754885   3.365949   2.178859   1.087621   2.177449
    42  H    6.415782   3.344712   2.168656   2.891945   4.290930
    43  H    8.296255   4.793273   4.176020   5.290990   6.584944
    44  H    9.278925   5.884293   5.777476   7.051763   8.126500
    45  H    8.760477   5.647911   6.116181   7.502029   8.271083
    46  H    7.632110   4.255183   4.702410   6.106643   6.919770
                   11         12         13         14         15
    11  C    0.000000
    12  C    1.364262   0.000000
    13  C    2.377829   1.426227   0.000000
    14  C    2.808582   2.494455   1.421931   0.000000
    15  C    4.171349   5.334251   6.485348   6.718100   0.000000
    16  C    3.790019   4.695474   5.992202   6.521422   1.433510
    17  C    2.596150   3.328405   4.682846   5.362918   2.506737
    18  C    1.443318   2.578171   3.777075   4.198989   2.784386
    19  C    3.670762   2.447568   1.476216   2.535901   7.638415
    20  C    2.539978   1.511844   2.533562   3.857232   5.764494
    21  C    3.663415   2.485546   2.900353   4.293949   6.792141
    22  C    4.120199   2.838268   2.540820   3.807492   7.663605
    23  C    4.991674   5.701526   7.040817   7.717272   2.448945
    24  C    5.300132   5.694502   7.055827   7.952981   3.733836
    25  C    4.561386   4.682673   6.037304   7.081028   4.258024
    26  C    3.174303   3.335011   4.727217   5.722299   3.809221
    27  C    3.061419   2.663913   3.961778   5.148905   5.083448
    28  C    4.557263   3.938905   5.043947   6.355621   6.340424
    29  C    5.547962   5.349656   6.611030   7.818687   5.717380
    30  C    5.549465   5.056853   6.199789   7.511437   6.601452
    31  H    6.567483   5.976240   7.027650   8.381452   7.643335
    32  H    5.006987   4.188248   5.087015   6.425224   7.251866
    33  H    3.077825   2.891254   4.180743   5.222724   5.055315
    34  H    6.564473   6.395844   7.638723   8.846255   6.303179
    35  H    6.374816   6.708767   8.056392   8.996032   4.590913
    36  H    5.923958   6.719619   8.033108   8.629047   2.679275
    37  H    5.254149   6.414647   7.556587   7.754278   1.088247
    38  H    5.590119   6.936392   7.712415   7.394078   2.900213
    39  H    5.570474   6.843149   7.185630   6.432102   4.746390
    40  H    5.198617   6.125094   5.907766   4.745822   6.427585
    41  H    4.631129   5.027831   4.291331   2.897411   7.388791
    42  H    3.892396   3.472199   2.181526   1.086307   7.745297
    43  H    4.564889   3.435584   2.216282   2.780333   8.576301
    44  H    5.143769   3.899090   3.480157   4.609752   8.548989
    45  H    4.470502   3.433144   3.967558   5.343708   7.072978
    46  H    3.139179   2.047553   2.732438   4.025831   6.548466
                   16         17         18         19         20
    16  C    0.000000
    17  C    1.435767   0.000000
    18  C    2.383317   1.385007   0.000000
    19  C    6.973201   5.622135   4.959144   0.000000
    20  C    4.786733   3.365802   3.219955   2.809544   0.000000
    21  C    5.760840   4.431670   4.391889   2.420247   1.524473
    22  C    6.781641   5.449118   5.137585   1.456711   2.479573
    23  C    1.396674   2.432898   3.658822   7.853534   5.482476
    24  C    2.428438   2.796630   4.175801   7.643433   5.114055
    25  C    2.824712   2.427356   3.723799   6.498124   3.874969
    26  C    2.491450   1.424992   2.475966   5.346615   2.726828
    27  C    3.900591   2.596432   3.034190   4.383655   1.574458
    28  C    5.032649   3.910266   4.546559   5.090168   2.524087
    29  C    4.284838   3.772909   4.956888   6.786913   4.194417
    30  C    5.195942   4.353422   5.286344   6.190490   3.673643
    31  H    6.229952   5.433674   6.361996   6.858721   4.525149
    32  H    6.001189   4.800543   5.239168   4.954745   2.750280
    33  H    4.012010   2.765680   3.020638   4.801512   2.143075
    34  H    4.896484   4.628446   5.889595   7.757722   5.241949
    35  H    3.402918   3.884154   5.262386   8.553888   6.018564
    36  H    2.162493   3.430177   4.540550   8.879565   6.562317
    37  H    2.187833   3.483996   3.872176   8.697133   6.802167
    38  H    4.311469   5.063341   4.630017   9.057804   7.836670
    39  H    5.937628   6.169928   5.210404   8.584357   8.093094
    40  H    7.217467   6.884548   5.588239   7.211528   7.602378
    41  H    7.745474   6.971364   5.612250   5.368017   6.522580
    42  H    7.581020   6.431361   5.275599   2.777073   4.712878
    43  H    7.985545   6.656049   5.911347   1.083704   3.880631
    44  H    7.641297   6.361009   6.121424   2.195303   3.488042
    45  H    5.909436   4.694172   4.947699   3.418713   2.267914
    46  H    5.602706   4.176799   3.947091   2.861890   1.108040
                   21         22         23         24         25
    21  C    0.000000
    22  C    1.347888   0.000000
    23  C    6.289928   7.434101   0.000000
    24  C    5.750713   7.000744   1.394696   0.000000
    25  C    4.494694   5.793592   2.426310   1.398748   0.000000
    26  C    3.647838   4.867244   2.838130   2.447408   1.411925
    27  C    2.681599   3.906021   4.359492   3.841759   2.554469
    28  C    3.031661   4.301490   5.138721   4.245701   2.868429
    29  C    4.516986   5.854901   3.753208   2.468582   1.462571
    30  C    3.919013   5.224478   4.936456   3.776061   2.534895
    31  H    4.577812   5.801144   5.863106   4.617538   3.500113
    32  H    3.128065   4.209646   6.189336   5.322493   3.952646
    33  H    3.510084   4.592062   4.592732   4.246279   3.110021
    34  H    5.428482   6.741467   4.086157   2.694807   2.204434
    35  H    6.528044   7.800840   2.142822   1.087586   2.164050
    36  H    7.345381   8.471451   1.087946   2.140341   3.400381
    37  H    7.786737   8.682139   2.681450   4.073150   4.880193
    38  H    8.879764   9.456541   5.283074   6.616734   7.122889
    39  H    9.080800   9.326640   7.164296   8.353506   8.525112
    40  H    8.418244   8.276541   8.579998   9.502190   9.272084
    41  H    7.101000   6.638368   9.094908   9.707061   9.135365
    42  H    4.922923   4.168087   8.768300   8.983003   8.085676
    43  H    3.385098   2.196163   8.897307   8.710872   7.574072
    44  H    2.130749   1.084634   8.201524   7.687060   6.494820
    45  H    1.084623   2.118856   6.200795   5.459761   4.197978
    46  H    2.058357   2.726859   6.303520   5.895008   4.604908
                   26         27         28         29         30
    26  C    0.000000
    27  C    1.545423   0.000000
    28  C    2.583170   1.534525   0.000000
    29  C    2.484397   2.902875   2.390019   0.000000
    30  C    2.937334   2.542052   1.338003   1.433052   0.000000
    31  H    4.020334   3.534717   2.120578   2.176760   1.084800
    32  H    3.565454   2.247318   1.087825   3.377717   2.090983
    33  H    2.079681   1.104127   2.081724   3.545708   3.138806
    34  H    3.454867   3.986796   3.356634   1.084384   2.169564
    35  H    3.433267   4.708740   4.839256   2.686886   4.093894
    36  H    3.925569   5.443075   6.173618   4.605323   5.871189
    37  H    4.676679   6.037154   7.202583   6.310066   7.325486
    38  H    6.478283   7.517114   8.926550   8.582772   9.370225
    39  H    7.553636   8.223025   9.743851   9.929751  10.458713
    40  H    8.038054   8.236557   9.744620  10.507105  10.708522
    41  H    7.783095   7.557127   8.932323  10.135126  10.043109
    42  H    6.747274   6.102946   7.213388   8.757432   8.381266
    43  H    6.427076   5.454687   6.097921   7.833823   7.194275
    44  H    5.712773   4.806620   4.993298   6.412516   5.762514
    45  H    3.683865   2.878572   2.791956   3.947899   3.350685
    46  H    3.507883   2.077745   2.637721   4.745597   3.942953
                   31         32         33         34         35
    31  H    0.000000
    32  H    2.432567   0.000000
    33  H    4.050847   2.524367   0.000000
    34  H    2.475033   4.250915   4.604642   0.000000
    35  H    4.741579   5.893977   5.134496   2.458740   0.000000
    36  H    6.734237   7.228052   5.636876   4.748646   2.440095
    37  H    8.328596   8.153157   6.013262   6.752730   4.738608
    38  H   10.433754   9.723882   7.344630   9.198778   7.411717
    39  H   11.539584  10.362270   8.005181  10.708033   9.285221
    40  H   11.748214  10.128758   8.046044  11.430837  10.541345
    41  H   10.994489   9.103150   7.457090  11.135726  10.778661
    42  H    9.198447   7.188757   6.201427   9.775838  10.013240
    43  H    7.803622   5.871626   5.832153   8.787365   9.617096
    44  H    6.206656   4.850777   5.566020   7.199610   8.407127
    45  H    3.888910   2.985336   3.859326   4.735139   6.095948
    46  H    4.644179   2.434467   2.222369   5.794583   6.768201
                   36         37         38         39         40
    36  H    0.000000
    37  H    2.450385   0.000000
    38  H    5.212104   2.770104   0.000000
    39  H    7.343477   5.015885   2.490088   0.000000
    40  H    9.052094   7.050251   5.046870   2.800998   0.000000
    41  H    9.799716   8.246742   6.881445   5.047473   2.489482
    42  H    9.673833   8.764142   8.248410   7.057405   5.025801
    43  H    9.909899   9.630683   9.800583   9.101466   7.440129
    44  H    9.215687   9.536717  10.348673  10.200790   9.077661
    45  H    7.228316   7.996974   9.370983   9.793792   9.322950
    46  H    7.386538   7.595911   8.530593   8.658087   7.986406
                   41         42         43         44         45
    41  H    0.000000
    42  H    2.784832   0.000000
    43  H    5.346197   2.580878   0.000000
    44  H    7.345728   4.788033   2.508404   0.000000
    45  H    8.109631   5.966445   4.299834   2.476794   0.000000
    46  H    6.734934   4.782512   3.818840   3.707243   2.805197
                   46
    46  H    0.000000
 Stoichiometry    C30H16
 Framework group  C1[X(C30H16)]
 Deg. of freedom   132
 Full point group                 C1      NOp   1
 Largest Abelian subgroup         C1      NOp   1
 Largest concise Abelian subgroup C1      NOp   1
                         Standard orientation:                         
 ---------------------------------------------------------------------
 Center     Atomic      Atomic             Coordinates (Angstroms)
 Number     Number       Type             X           Y           Z
 ---------------------------------------------------------------------
      1          6           0        1.738624   -2.705197   -0.028521
      2          6           0        1.526435   -1.362308    0.192924
      3          6           0        2.534671   -0.457025    0.233292
      4          6           0        3.880339   -0.753087    0.110101
      5          6           0        3.107837   -3.103778   -0.088034
      6          6           0        4.162542   -2.142902   -0.009840
      7          6           0        2.016386    0.792052    0.268600
      8          6           0        2.783114    1.936974    0.128456
      9          6           0        4.190175    1.712870    0.068818
     10          6           0        4.730672    0.389115    0.072712
     11          6           0        0.637634    0.701207    0.319053
     12          6           0       -0.104759    1.842107    0.227340
     13          6           0        0.601518    3.050387   -0.047172
     14          6           0        2.021757    3.118977   -0.036933
     15          6           0        0.545856   -3.431957   -0.236533
     16          6           0       -0.734817   -2.787890   -0.234861
     17          6           0       -0.878152   -1.391126    0.065030
     18          6           0        0.307628   -0.702654    0.260415
     19          6           0       -0.233446    4.160236   -0.547456
     20          6           0       -1.611204    1.881604    0.348734
     21          6           0       -2.197262    2.760317   -0.750546
     22          6           0       -1.550409    3.887767   -1.107253
     23          6           0       -1.880350   -3.518670   -0.557990
     24          6           0       -3.135410   -2.910803   -0.580344
     25          6           0       -3.282678   -1.568447   -0.215805
     26          6           0       -2.163669   -0.779646    0.129369
     27          6           0       -2.381659    0.589278    0.812642
     28          6           0       -3.857148    0.951526    1.028224
     29          6           0       -4.625611   -0.996461   -0.123731
     30          6           0       -4.886419    0.232005    0.566549
     31          1           0       -5.914982    0.536215    0.728742
     32          1           0       -4.064592    1.858761    1.591476
     33          1           0       -2.021610    0.396697    1.838495
     34          1           0       -5.468542   -1.564612   -0.501302
     35          1           0       -4.005065   -3.511837   -0.835887
     36          1           0       -1.808686   -4.574536   -0.810256
     37          1           0        0.615098   -4.494953   -0.459081
     38          1           0        3.355560   -4.150764   -0.247228
     39          1           0        5.193201   -2.476499   -0.104231
     40          1           0        5.806131    0.255243   -0.017654
     41          1           0        4.864695    2.559790   -0.034480
     42          1           0        2.526271    4.055848   -0.255566
     43          1           0        0.225928    5.123947   -0.733603
     44          1           0       -1.965036    4.583354   -1.828830
     45          1           0       -3.163822    2.516098   -1.177775
     46          1           0       -1.747713    2.520414    1.243742
 ---------------------------------------------------------------------
 Rotational constants (GHZ):           0.2520408           0.1738206           0.1064107
 Standard basis: 6-311+G(d,p) (5D, 7F)
 There are   786 symmetry adapted cartesian basis functions of A   symmetry.
 There are   756 symmetry adapted basis functions of A   symmetry.
   756 basis functions,  1208 primitive gaussians,   786 cartesian basis functions
    98 alpha electrons       98 beta electrons
       nuclear repulsion energy      2645.7421388271 Hartrees.
 NAtoms=   46 NActive=   46 NUniq=   46 SFac= 1.00D+00 NAtFMM=   60 NAOKFM=F Big=F
 Integral buffers will be    131072 words long.
 Raffenetti 2 integral format.
 Two-electron integral symmetry is turned on.
 One-electron integrals computed using PRISM.
 NBasis=   756 RedAO= T EigKep=  1.08D-06  NBF=   756
 NBsUse=   736 1.00D-06 EigRej=  7.39D-07 NBFU=   736
 ExpMin= 4.38D-02 ExpMax= 4.56D+03 ExpMxC= 6.82D+02 IAcc=2 IRadAn=         4 AccDes= 0.00D+00
 Harris functional with IExCor=  402 and IRadAn=       4 diagonalized for initial guess.
 HarFok:  IExCor=  402 AccDes= 0.00D+00 IRadAn=         4 IDoV= 1 UseB2=F ITyADJ=14
 ICtDFT=  3500011 ScaDFX=  1.000000  1.000000  1.000000  1.000000
 FoFCou: FMM=F IPFlag=           0 FMFlag=      100000 FMFlg1=           0
         NFxFlg=           0 DoJE=T BraDBF=F KetDBF=T FulRan=T
         wScrn=  0.000000 ICntrl=       500 IOpCl=  0 I1Cent=   200000004 NGrid=           0
         NMat0=    1 NMatS0=      1 NMatT0=    0 NMatD0=    1 NMtDS0=    0 NMtDT0=    0
 Petite list used in FoFCou.
 Requested convergence on RMS density matrix=1.00D-08 within 128 cycles.
 Requested convergence on MAX density matrix=1.00D-06.
 Requested convergence on             energy=1.00D-06.
 No special actions if energy rises.
 EnCoef did    13 forward-backward iterations
 EnCoef did     6 forward-backward iterations
 Restarting incremental Fock formation.
 SCF Done:  E(RB3LYP) =  -1152.98650189     A.U. after   21 cycles
            NFock= 21  Conv=0.36D-08     -V/T= 2.0042

 **********************************************************************

            Population analysis using the SCF Density.

 **********************************************************************

 Orbital symmetries:
       Occupied  (A) (A) (A) (A) (A) (A) (A) (A) (A) (A) (A) (A)
                 (A) (A) (A) (A) (A) (A) (A) (A) (A) (A) (A) (A)
                 (A) (A) (A) (A) (A) (A) (A) (A) (A) (A) (A) (A)
                 (A) (A) (A) (A) (A) (A) (A) (A) (A) (A) (A) (A)
                 (A) (A) (A) (A) (A) (A) (A) (A) (A) (A) (A) (A)
                 (A) (A) (A) (A) (A) (A) (A) (A) (A) (A) (A) (A)
                 (A) (A) (A) (A) (A) (A) (A) (A) (A) (A) (A) (A)
                 (A) (A) (A) (A) (A) (A) (A) (A) (A) (A) (A) (A)
                 (A) (A)
       Virtual   (A) (A) (A) (A) (A) (A) (A) (A) (A) (A) (A) (A)
                 (A) (A) (A) (A) (A) (A) (A) (A) (A) (A) (A) (A)
                 (A) (A) (A) (A) (A) (A) (A) (A) (A) (A) (A) (A)
                 (A) (A) (A) (A) (A) (A) (A) (A) (A) (A) (A) (A)
                 (A) (A) (A) (A) (A) (A) (A) (A) (A) (A) (A) (A)
                 (A) (A) (A) (A) (A) (A) (A) (A) (A) (A) (A) (A)
                 (A) (A) (A) (A) (A) (A) (A) (A) (A) (A) (A) (A)
                 (A) (A) (A) (A) (A) (A) (A) (A) (A) (A) (A) (A)
                 (A) (A) (A) (A) (A) (A) (A) (A) (A) (A) (A) (A)
                 (A) (A) (A) (A) (A) (A) (A) (A) (A) (A) (A) (A)
                 (A) (A) (A) (A) (A) (A) (A) (A) (A) (A) (A) (A)
                 (A) (A) (A) (A) (A) (A) (A) (A) (A) (A) (A) (A)
                 (A) (A) (A) (A) (A) (A) (A) (A) (A) (A) (A) (A)
                 (A) (A) (A) (A) (A) (A) (A) (A) (A) (A) (A) (A)
                 (A) (A) (A) (A) (A) (A) (A) (A) (A) (A) (A) (A)
                 (A) (A) (A) (A) (A) (A) (A) (A) (A) (A) (A) (A)
                 (A) (A) (A) (A) (A) (A) (A) (A) (A) (A) (A) (A)
                 (A) (A) (A) (A) (A) (A) (A) (A) (A) (A) (A) (A)
                 (A) (A) (A) (A) (A) (A) (A) (A) (A) (A) (A) (A)
                 (A) (A) (A) (A) (A) (A) (A) (A) (A) (A) (A) (A)
                 (A) (A) (A) (A) (A) (A) (A) (A) (A) (A) (A) (A)
                 (A) (A) (A) (A) (A) (A) (A) (A) (A) (A) (A) (A)
                 (A) (A) (A) (A) (A) (A) (A) (A) (A) (A) (A) (A)
                 (A) (A) (A) (A) (A) (A) (A) (A) (A) (A) (A) (A)
                 (A) (A) (A) (A) (A) (A) (A) (A) (A) (A) (A) (A)
                 (A) (A) (A) (A) (A) (A) (A) (A) (A) (A) (A) (A)
                 (A) (A) (A) (A) (A) (A) (A) (A) (A) (A) (A) (A)
                 (A) (A) (A) (A) (A) (A) (A) (A) (A) (A) (A) (A)
                 (A) (A) (A) (A) (A) (A) (A) (A) (A) (A) (A) (A)
                 (A) (A) (A) (A) (A) (A) (A) (A) (A) (A) (A) (A)
                 (A) (A) (A) (A) (A) (A) (A) (A) (A) (A) (A) (A)
                 (A) (A) (A) (A) (A) (A) (A) (A) (A) (A) (A) (A)
                 (A) (A) (A) (A) (A) (A) (A) (A) (A) (A) (A) (A)
                 (A) (A) (A) (A) (A) (A) (A) (A) (A) (A) (A) (A)
                 (A) (A) (A) (A) (A) (A) (A) (A) (A) (A) (A) (A)
                 (A) (A) (A) (A) (A) (A) (A) (A) (A) (A) (A) (A)
                 (A) (A) (A) (A) (A) (A) (A) (A) (A) (A) (A) (A)
                 (A) (A) (A) (A) (A) (A) (A) (A) (A) (A) (A) (A)
                 (A) (A) (A) (A) (A) (A) (A) (A) (A) (A) (A) (A)
                 (A) (A) (A) (A) (A) (A) (A) (A) (A) (A) (A) (A)
                 (A) (A) (A) (A) (A) (A) (A) (A) (A) (A) (A) (A)
                 (A) (A) (A) (A) (A) (A) (A) (A) (A) (A) (A) (A)
                 (A) (A) (A) (A) (A) (A) (A) (A) (A) (A) (A) (A)
                 (A) (A) (A) (A) (A) (A) (A) (A) (A) (A) (A) (A)
                 (A) (A) (A) (A) (A) (A) (A) (A) (A) (A) (A) (A)
                 (A) (A) (A) (A) (A) (A) (A) (A) (A) (A) (A) (A)
                 (A) (A) (A) (A) (A) (A) (A) (A) (A) (A) (A) (A)
                 (A) (A) (A) (A) (A) (A) (A) (A) (A) (A) (A) (A)
                 (A) (A) (A) (A) (A) (A) (A) (A) (A) (A) (A) (A)
                 (A) (A) (A) (A) (A) (A) (A) (A) (A) (A) (A) (A)
                 (A) (A) (A) (A) (A) (A) (A) (A) (A) (A) (A) (A)
                 (A) (A) (A) (A) (A) (A) (A) (A) (A) (A) (A) (A)
                 (A) (A) (A) (A) (A) (A) (A) (A) (A) (A) (A) (A)
                 (A) (A)
 The electronic state is 1-A.
 Alpha  occ. eigenvalues --  -10.21466 -10.21111 -10.20312 -10.19999 -10.19823
 Alpha  occ. eigenvalues --  -10.19786 -10.19708 -10.19542 -10.19538 -10.19198
 Alpha  occ. eigenvalues --  -10.19195 -10.19059 -10.18932 -10.18869 -10.18853
 Alpha  occ. eigenvalues --  -10.18811 -10.18767 -10.18756 -10.18643 -10.18536
 Alpha  occ. eigenvalues --  -10.18503 -10.18445 -10.18384 -10.18319 -10.17807
 Alpha  occ. eigenvalues --  -10.17634 -10.17359 -10.15846 -10.15329 -10.15080
 Alpha  occ. eigenvalues --   -0.93222  -0.88841  -0.88194  -0.84987  -0.84229
 Alpha  occ. eigenvalues --   -0.83402  -0.80364  -0.79729  -0.78451  -0.76956
 Alpha  occ. eigenvalues --   -0.75820  -0.74082  -0.72698  -0.70995  -0.69987
 Alpha  occ. eigenvalues --   -0.67035  -0.66239  -0.64191  -0.63030  -0.62502
 Alpha  occ. eigenvalues --   -0.60428  -0.59067  -0.58970  -0.56577  -0.55660
 Alpha  occ. eigenvalues --   -0.52752  -0.52001  -0.51410  -0.51019  -0.50064
 Alpha  occ. eigenvalues --   -0.49582  -0.48107  -0.47128  -0.46471  -0.46254
 Alpha  occ. eigenvalues --   -0.45190  -0.44415  -0.44103  -0.43547  -0.43168
 Alpha  occ. eigenvalues --   -0.42435  -0.42108  -0.41167  -0.40588  -0.40396
 Alpha  occ. eigenvalues --   -0.40087  -0.39841  -0.39066  -0.38721  -0.38228
 Alpha  occ. eigenvalues --   -0.36964  -0.35616  -0.35419  -0.34906  -0.34645
 Alpha  occ. eigenvalues --   -0.34195  -0.33440  -0.32810  -0.32316  -0.32118
 Alpha  occ. eigenvalues --   -0.29962  -0.28330  -0.27329  -0.26741  -0.23227
 Alpha  occ. eigenvalues --   -0.22501  -0.20502  -0.15706
 Alpha virt. eigenvalues --   -0.12644  -0.08889  -0.04923  -0.02595  -0.01781
 Alpha virt. eigenvalues --   -0.00730  -0.00086   0.00708   0.00826   0.01262
 Alpha virt. eigenvalues --    0.01664   0.01938   0.02084   0.02703   0.03100
 Alpha virt. eigenvalues --    0.03207   0.03585   0.03824   0.04276   0.04509
 Alpha virt. eigenvalues --    0.04746   0.05057   0.05426   0.05493   0.06029
 Alpha virt. eigenvalues --    0.06561   0.06966   0.07069   0.07397   0.08121
 Alpha virt. eigenvalues --    0.08362   0.08615   0.08906   0.09029   0.09498
 Alpha virt. eigenvalues --    0.09859   0.09964   0.10255   0.10848   0.10940
 Alpha virt. eigenvalues --    0.11318   0.11692   0.11707   0.12204   0.13330
 Alpha virt. eigenvalues --    0.13357   0.13706   0.14118   0.14265   0.14721
 Alpha virt. eigenvalues --    0.14804   0.14928   0.15148   0.15603   0.15657
 Alpha virt. eigenvalues --    0.15778   0.16139   0.16314   0.16510   0.16690
 Alpha virt. eigenvalues --    0.16944   0.17405   0.17460   0.17820   0.18115
 Alpha virt. eigenvalues --    0.18304   0.18413   0.18638   0.18706   0.18895
 Alpha virt. eigenvalues --    0.19124   0.19348   0.19561   0.19903   0.20106
 Alpha virt. eigenvalues --    0.20189   0.20461   0.20585   0.20694   0.21079
 Alpha virt. eigenvalues --    0.21235   0.21475   0.21569   0.21956   0.22185
 Alpha virt. eigenvalues --    0.22399   0.22539   0.22811   0.23071   0.23383
 Alpha virt. eigenvalues --    0.23699   0.23766   0.24017   0.24223   0.24547
 Alpha virt. eigenvalues --    0.24709   0.24866   0.25036   0.25134   0.25445
 Alpha virt. eigenvalues --    0.25590   0.25677   0.26050   0.26343   0.26651
 Alpha virt. eigenvalues --    0.26714   0.26848   0.27181   0.27476   0.27710
 Alpha virt. eigenvalues --    0.28080   0.28249   0.28412   0.28955   0.29268
 Alpha virt. eigenvalues --    0.29702   0.30068   0.30158   0.30453   0.30666
 Alpha virt. eigenvalues --    0.31001   0.31224   0.31465   0.31861   0.32185
 Alpha virt. eigenvalues --    0.32737   0.32858   0.33298   0.33809   0.34409
 Alpha virt. eigenvalues --    0.34566   0.35001   0.35212   0.35229   0.35803
 Alpha virt. eigenvalues --    0.35902   0.36528   0.36773   0.37478   0.38002
 Alpha virt. eigenvalues --    0.38346   0.38788   0.38893   0.39966   0.40249
 Alpha virt. eigenvalues --    0.40806   0.41334   0.42297   0.42451   0.42938
 Alpha virt. eigenvalues --    0.43278   0.43610   0.44277   0.44589   0.45126
 Alpha virt. eigenvalues --    0.45188   0.45744   0.46659   0.48103   0.48825
 Alpha virt. eigenvalues --    0.49106   0.49979   0.50691   0.51250   0.51749
 Alpha virt. eigenvalues --    0.52582   0.53121   0.53370   0.53751   0.54036
 Alpha virt. eigenvalues --    0.54887   0.55115   0.55191   0.55555   0.55932
 Alpha virt. eigenvalues --    0.56227   0.56398   0.56764   0.57690   0.57988
 Alpha virt. eigenvalues --    0.58167   0.58353   0.59283   0.59466   0.59667
 Alpha virt. eigenvalues --    0.59967   0.60147   0.60420   0.61107   0.61527
 Alpha virt. eigenvalues --    0.61747   0.62202   0.62814   0.63204   0.63473
 Alpha virt. eigenvalues --    0.63553   0.64203   0.65024   0.65484   0.65651
 Alpha virt. eigenvalues --    0.66098   0.66455   0.66608   0.67376   0.67752
 Alpha virt. eigenvalues --    0.67841   0.68064   0.68665   0.68889   0.68972
 Alpha virt. eigenvalues --    0.70002   0.70043   0.70583   0.70644   0.70842
 Alpha virt. eigenvalues --    0.71123   0.71433   0.71927   0.72221   0.72725
 Alpha virt. eigenvalues --    0.73079   0.73520   0.73876   0.74261   0.74310
 Alpha virt. eigenvalues --    0.74746   0.75327   0.75812   0.76127   0.76512
 Alpha virt. eigenvalues --    0.76937   0.77356   0.77713   0.78132   0.78859
 Alpha virt. eigenvalues --    0.78970   0.79557   0.79766   0.81524   0.82130
 Alpha virt. eigenvalues --    0.82457   0.83296   0.83739   0.84055   0.84847
 Alpha virt. eigenvalues --    0.85536   0.86236   0.87053   0.87398   0.87955
 Alpha virt. eigenvalues --    0.88184   0.88576   0.90116   0.90196   0.90413
 Alpha virt. eigenvalues --    0.91146   0.91544   0.91764   0.92666   0.93660
 Alpha virt. eigenvalues --    0.93839   0.93851   0.94388   0.94858   0.95139
 Alpha virt. eigenvalues --    0.95674   0.95776   0.96292   0.96648   0.96832
 Alpha virt. eigenvalues --    0.97306   0.97660   0.97943   0.98711   0.98905
 Alpha virt. eigenvalues --    0.99876   1.00143   1.00728   1.01551   1.02161
 Alpha virt. eigenvalues --    1.02463   1.03505   1.04179   1.04420   1.05061
 Alpha virt. eigenvalues --    1.05538   1.06490   1.06793   1.07294   1.08135
 Alpha virt. eigenvalues --    1.08495   1.08703   1.09136   1.10061   1.10672
 Alpha virt. eigenvalues --    1.10837   1.11506   1.12807   1.13469   1.14566
 Alpha virt. eigenvalues --    1.14868   1.15719   1.16983   1.17533   1.18966
 Alpha virt. eigenvalues --    1.19894   1.21489   1.22478   1.22702   1.24961
 Alpha virt. eigenvalues --    1.25420   1.27104   1.27981   1.29125   1.30118
 Alpha virt. eigenvalues --    1.31324   1.32535   1.33960   1.34598   1.35772
 Alpha virt. eigenvalues --    1.37379   1.38462   1.38854   1.39389   1.40578
 Alpha virt. eigenvalues --    1.42081   1.43961   1.44237   1.44680   1.45838
 Alpha virt. eigenvalues --    1.46432   1.46688   1.47940   1.48898   1.49369
 Alpha virt. eigenvalues --    1.49845   1.50165   1.50537   1.50734   1.51685
 Alpha virt. eigenvalues --    1.52004   1.52649   1.52778   1.53568   1.54391
 Alpha virt. eigenvalues --    1.55538   1.56003   1.56601   1.57597   1.57844
 Alpha virt. eigenvalues --    1.58333   1.59258   1.60169   1.60663   1.61090
 Alpha virt. eigenvalues --    1.61203   1.62224   1.62696   1.63368   1.64107
 Alpha virt. eigenvalues --    1.64485   1.65698   1.67050   1.67707   1.68420
 Alpha virt. eigenvalues --    1.68853   1.69707   1.69877   1.70883   1.71573
 Alpha virt. eigenvalues --    1.72293   1.73130   1.74044   1.74340   1.74868
 Alpha virt. eigenvalues --    1.75399   1.76129   1.77100   1.77815   1.78566
 Alpha virt. eigenvalues --    1.78991   1.79978   1.80644   1.81349   1.81781
 Alpha virt. eigenvalues --    1.82074   1.83117   1.83631   1.84395   1.85136
 Alpha virt. eigenvalues --    1.86094   1.86491   1.87315   1.87526   1.88589
 Alpha virt. eigenvalues --    1.88737   1.89085   1.89488   1.91187   1.91266
 Alpha virt. eigenvalues --    1.92134   1.92401   1.92545   1.93344   1.93511
 Alpha virt. eigenvalues --    1.94460   1.94842   1.95996   1.96374   1.96825
 Alpha virt. eigenvalues --    1.97429   1.98847   1.99577   2.00461   2.01299
 Alpha virt. eigenvalues --    2.01746   2.02625   2.02873   2.03149   2.03773
 Alpha virt. eigenvalues --    2.04373   2.05315   2.06142   2.06619   2.07157
 Alpha virt. eigenvalues --    2.08631   2.09357   2.09989   2.11286   2.11686
 Alpha virt. eigenvalues --    2.12736   2.14552   2.14861   2.15764   2.16487
 Alpha virt. eigenvalues --    2.16928   2.18495   2.18657   2.19046   2.20097
 Alpha virt. eigenvalues --    2.21300   2.21780   2.22792   2.23522   2.24881
 Alpha virt. eigenvalues --    2.26173   2.26562   2.27452   2.28549   2.29820
 Alpha virt. eigenvalues --    2.30145   2.30876   2.32975   2.33845   2.36942
 Alpha virt. eigenvalues --    2.37712   2.38221   2.40332   2.40816   2.41859
 Alpha virt. eigenvalues --    2.43112   2.44105   2.44423   2.45733   2.46617
 Alpha virt. eigenvalues --    2.46772   2.49700   2.50566   2.51603   2.51994
 Alpha virt. eigenvalues --    2.55704   2.56531   2.57246   2.58298   2.58961
 Alpha virt. eigenvalues --    2.60140   2.60682   2.62252   2.63478   2.63727
 Alpha virt. eigenvalues --    2.64666   2.65281   2.67422   2.68050   2.68976
 Alpha virt. eigenvalues --    2.70522   2.71301   2.72003   2.72131   2.72699
 Alpha virt. eigenvalues --    2.73051   2.73249   2.73687   2.74123   2.74501
 Alpha virt. eigenvalues --    2.74944   2.75041   2.76007   2.76085   2.76837
 Alpha virt. eigenvalues --    2.77399   2.77534   2.78097   2.78334   2.79122
 Alpha virt. eigenvalues --    2.79180   2.80205   2.81143   2.82379   2.83422
 Alpha virt. eigenvalues --    2.83917   2.84216   2.84899   2.85814   2.85859
 Alpha virt. eigenvalues --    2.87659   2.88054   2.89644   2.90112   2.90717
 Alpha virt. eigenvalues --    2.91304   2.92995   2.94680   2.95511   2.97276
 Alpha virt. eigenvalues --    2.98762   2.99178   2.99962   3.01574   3.02975
 Alpha virt. eigenvalues --    3.04519   3.05737   3.06831   3.07742   3.08910
 Alpha virt. eigenvalues --    3.09566   3.10885   3.13883   3.15154   3.15692
 Alpha virt. eigenvalues --    3.16640   3.19310   3.19856   3.20424   3.22534
 Alpha virt. eigenvalues --    3.22715   3.23146   3.24401   3.24700   3.26057
 Alpha virt. eigenvalues --    3.28574   3.31242   3.32681   3.34725   3.35490
 Alpha virt. eigenvalues --    3.37476   3.38513   3.40598   3.41346   3.43062
 Alpha virt. eigenvalues --    3.43815   3.46108   3.46600   3.47453   3.48537
 Alpha virt. eigenvalues --    3.49858   3.50761   3.52755   3.54492   3.55525
 Alpha virt. eigenvalues --    3.57084   3.58024   3.61062   3.63114   3.65175
 Alpha virt. eigenvalues --    3.66980   3.70447   3.73428   3.77385   3.82383
 Alpha virt. eigenvalues --    3.85036   3.87246   3.92112   3.94371   3.98038
 Alpha virt. eigenvalues --    4.02775   4.03236   4.07220   4.07806   4.08651
 Alpha virt. eigenvalues --    4.09690   4.10698   4.12112   4.20415   4.23768
 Alpha virt. eigenvalues --    4.28090   4.32819   4.38234   4.49262   4.53964
 Alpha virt. eigenvalues --    4.62361   4.68114   4.77147   4.80193   4.84585
 Alpha virt. eigenvalues --    4.85693   4.90732   4.91544  23.39858  23.64259
 Alpha virt. eigenvalues --   23.70484  23.73957  23.78973  23.83405  23.85771
 Alpha virt. eigenvalues --   23.86894  23.90016  23.90374  23.91224  23.95042
 Alpha virt. eigenvalues --   23.95605  23.97942  23.98299  23.99469  24.01120
 Alpha virt. eigenvalues --   24.03862  24.04604  24.05252  24.08041  24.08616
 Alpha virt. eigenvalues --   24.10034  24.14884  24.15783  24.18368  24.21190
 Alpha virt. eigenvalues --   24.24728  24.26558  24.35167
          Condensed to atoms (all electrons):
               1          2          3          4          5          6
     1  C   10.162911   1.187032  -0.347725  -0.108739  -1.839734   0.309423
     2  C    1.187032   7.885454  -0.533178  -0.044038  -0.596191   1.091576
     3  C   -0.347725  -0.533178   8.910169   1.280534   1.786254  -2.595356
     4  C   -0.108739  -0.044038   1.280534  10.592216   0.070144  -3.169145
     5  C   -1.839734  -0.596191   1.786254   0.070144  11.764380  -0.469111
     6  C    0.309423   1.091576  -2.595356  -3.169145  -0.469111  12.314879
     7  C   -0.099214   0.215737   0.431239   0.409161  -0.054716  -1.121158
     8  C   -0.038051   0.176236   0.197441   0.234583  -0.092345   0.269488
     9  C   -0.147910  -0.732813   1.523239  -0.908884   0.315837  -0.891836
    10  C    0.075175  -0.328786  -0.552248  -1.401274  -0.390389  -0.160950
    11  C   -0.335329   0.015074  -0.998349   0.283205  -0.993362   0.453881
    12  C   -0.212489  -0.000099  -0.282401  -0.152591  -0.249510   0.030721
    13  C   -0.016156  -0.297703  -0.120861  -0.273469  -0.014368  -0.289417
    14  C   -0.054607  -0.278409  -0.500999  -0.228783  -0.134979   0.127511
    15  C    1.308553   0.078535  -0.492753  -0.481606  -1.285921   0.342224
    16  C   -0.881438   0.133767   0.321476  -0.307050   0.536869  -0.463318
    17  C   -0.922351  -0.061499  -0.491201  -0.139685  -1.190937   0.368202
    18  C    0.201720  -0.224884  -0.820551   0.488672  -1.308433   0.099979
    19  C    0.050599  -0.093046  -0.167225   0.112804  -0.028631   0.050928
    20  C    0.133796   0.171923  -0.238487  -0.051492   0.033522  -0.009149
    21  C   -0.013721  -0.119246   0.055501  -0.013470  -0.011096   0.013489
    22  C   -0.011378   0.062451  -0.008749  -0.025965   0.011137  -0.015518
    23  C   -1.170544  -0.768179   0.050341  -0.167589   0.053678  -0.101481
    24  C   -0.054908  -0.355261   0.001744  -0.018393  -0.276078   0.029472
    25  C   -0.046649  -0.069222   0.134806  -0.102224   0.283769  -0.059542
    26  C   -0.716547   0.326379   0.028072  -0.035917   0.130470  -0.207395
    27  C   -0.645054  -0.820633  -0.545703   0.117409  -0.255750   0.048508
    28  C    0.032661   0.046792  -0.181547   0.043109   0.006290  -0.001810
    29  C   -0.076032  -0.253938  -0.023846  -0.020635   0.032965  -0.005790
    30  C   -0.047042  -0.010024   0.016995   0.000923  -0.014533   0.001035
    31  H    0.000040   0.000067   0.000002   0.000000   0.000003  -0.000000
    32  H   -0.000139  -0.000344   0.000311   0.000001  -0.000019   0.000004
    33  H   -0.003667  -0.026382  -0.001783  -0.000342  -0.001393   0.000801
    34  H    0.000218  -0.000470   0.000044  -0.000002   0.000008   0.000002
    35  H    0.004276   0.001560   0.000068   0.000023   0.000565   0.000011
    36  H    0.047732   0.004144   0.001528   0.000184   0.006127   0.000932
    37  H   -0.055047   0.025753  -0.005640   0.009136   0.030929  -0.004124
    38  H   -0.076541   0.028141  -0.015210  -0.057701   0.339258   0.037302
    39  H    0.006715  -0.001496   0.037065  -0.070375   0.020806   0.345192
    40  H    0.005941  -0.017153   0.020909  -0.102758  -0.001535   0.002757
    41  H    0.001308  -0.000135  -0.011955  -0.016637  -0.001942   0.007211
    42  H   -0.000123   0.003668  -0.006566   0.006684   0.000419  -0.000474
    43  H   -0.000029  -0.000679   0.002086   0.000029  -0.000008   0.000018
    44  H   -0.000042  -0.000146  -0.000125   0.000050  -0.000007   0.000007
    45  H    0.000146   0.001109  -0.000089   0.000008   0.000022  -0.000015
    46  H   -0.000379   0.003203   0.002356  -0.002247   0.000055  -0.000334
               7          8          9         10         11         12
     1  C   -0.099214  -0.038051  -0.147910   0.075175  -0.335329  -0.212489
     2  C    0.215737   0.176236  -0.732813  -0.328786   0.015074  -0.000099
     3  C    0.431239   0.197441   1.523239  -0.552248  -0.998349  -0.282401
     4  C    0.409161   0.234583  -0.908884  -1.401274   0.283205  -0.152591
     5  C   -0.054716  -0.092345   0.315837  -0.390389  -0.993362  -0.249510
     6  C   -1.121158   0.269488  -0.891836  -0.160950   0.453881   0.030721
     7  C    7.650965   0.169889   0.065013   0.501466  -0.636941   0.529014
     8  C    0.169889  10.554302  -0.842889  -1.000262  -0.132317  -1.327253
     9  C    0.065013  -0.842889  10.326562   1.664521  -1.249085  -0.926392
    10  C    0.501466  -1.000262   1.664521   8.593026  -0.391240   0.074683
    11  C   -0.636941  -0.132317  -1.249085  -0.391240   9.011638   0.019167
    12  C    0.529014  -1.327253  -0.926392   0.074683   0.019167  10.285243
    13  C   -0.272846  -1.348144   0.313310  -0.147904   0.866459  -2.186699
    14  C   -0.710298   1.121157  -1.335702  -0.005896   0.406947   0.064655
    15  C   -0.200907  -0.038237  -0.141822   0.008955  -0.009322   0.046506
    16  C   -0.097230   0.069987  -0.052793  -0.142501  -0.756348  -0.284762
    17  C   -0.487718  -0.267273  -0.272147  -0.067865   1.165693   0.164308
    18  C   -0.250397  -0.435044  -0.528103  -0.231244  -0.163475   0.665699
    19  C   -0.483436  -0.522419  -0.069180  -0.108172  -0.784675   0.425286
    20  C    0.140292  -0.897624  -0.149972  -0.043483  -0.133219   1.472523
    21  C   -0.472308   0.368381   0.003699  -0.011365  -0.201272  -1.012834
    22  C    0.217565  -0.315365   0.007228   0.007287   0.342350  -0.120357
    23  C   -0.025109   0.040581  -0.012978  -0.006431   0.220621   0.066195
    24  C   -0.099643  -0.002383  -0.008325   0.004626   0.075484   0.192968
    25  C    0.219664  -0.041678  -0.006804  -0.022000  -0.538193  -0.118343
    26  C    0.059169   0.219552   0.069407  -0.037487   1.234166  -1.264253
[...]
 68,-0.00022012,-0.00030620,0.00020061,0.00000019,-0.00024435,0.0001505
 8,-0.00000983,0.00002734,-0.00004944,0.00007738,0.00005650,0.00007548,
 -0.00000358,0.00000174,-0.00000123,0.00000907,0.00001265,-0.00002726,-
 0.00001245,-0.00001484,-0.00002417,-0.00000228,-0.00000870,0.00000144,
 -0.00000391,-0.00000171,-0.00000263,0.00000324,-0.00000353,-0.00000200
 ,0.00000044,-0.00000497,-0.00000092,0.00000116,-0.00000430,0.00000182,
 0.00000297,-0.00000280,0.00000289,0.00000716,-0.00000742,0.00000103,-0
 .00000526,0.00001182,-0.00000372,-0.00011263,-0.00026707,0.00010978,0.
 13078676,-0.00006418,-0.00000832,0.00002602,-0.00004568,-0.00019427,0.
 00015614,0.00006417,0.00010867,-0.00006554,0.00005914,0.00008729,0.000
 00787,0.00007143,-0.00007347,-0.00004698,-0.00008134,-0.00001393,-0.00
 001097,-0.00011383,0.00017206,0.00024797,0.00052848,-0.00013887,-0.000
 35401,-0.00014507,0.00002296,0.00010466,0.00003239,-0.00016190,0.00000
 326,-0.00114138,-0.00079997,-0.00024593,0.00374960,0.00031283,0.004147
 48,-0.01189226,-0.01381663,0.00963256,-0.00187208,0.00018087,-0.001626
 14,0.00006621,-0.00004917,-0.00000051,-0.00009967,0.00000609,0.0000037
 0,0.00009442,-0.00007741,-0.00003593,0.00048349,0.00014306,-0.00049868
 ,-0.10897533,-0.21829803,0.09049077,0.00006228,-0.00004769,0.00016416,
 -0.00080539,0.00321377,0.00077234,-0.00033940,0.00126925,0.00239592,0.
 00004229,-0.00000830,0.00002403,-0.00006275,0.00000098,-0.00001658,0.0
 0019048,-0.00016441,0.00000498,-0.00001861,0.00002172,-0.00006649,0.00
 023865,0.00033998,-0.00023838,0.00022035,0.00025615,-0.00025237,0.0000
 5265,0.00019290,0.00028322,-0.00026263,-0.00018517,-0.00011393,0.00000
 876,-0.00000016,-0.00002223,0.00000084,-0.00001702,-0.00002814,-0.0000
 4370,-0.00006370,0.00003680,-0.00000404,0.00001300,-0.00002266,0.00000
 070,-0.00000445,-0.00000259,-0.00000500,0.00000151,-0.00000049,-0.0000
 0117,0.00000348,-0.00000746,0.00000246,-0.00000096,0.00000055,0.000007
 34,-0.00001395,0.00000663,0.00000594,-0.00000749,-0.00000580,0.0000183
 3,0.00000497,-0.00000684,0.00097359,0.00036630,0.00002028,0.11875008,0
 .22812336,-0.00010583,-0.00008400,0.00005347,-0.00001474,0.00004671,0.
 00033731,-0.00002995,-0.00000514,-0.00003182,-0.00001793,0.00007913,-0
 .00004260,0.00005162,0.00002314,-0.00005307,-0.00003546,-0.00003425,-0
 .00001297,0.00014619,-0.00000338,0.00025660,-0.00007843,-0.00035147,-0
 .00018679,-0.00002288,0.00005775,0.00009568,0.00001205,-0.00005294,0.0
 0002742,0.00028557,0.00029450,-0.00074938,-0.00101236,0.00486013,0.003
 16916,0.01009206,0.01108357,-0.00026808,0.00070460,-0.00131601,-0.0020
 1677,0.00008776,-0.00001735,0.00000165,-0.00009231,-0.00001070,0.00000
 591,-0.00005193,0.00004851,-0.00002813,0.00018994,0.00016831,-0.000748
 41,0.04855425,0.09315344,-0.08346580,-0.00103244,-0.00052886,0.0001340
 4,-0.00282520,0.00239375,0.00243894,-0.00593263,-0.00521621,0.00642698
 ,0.00007755,-0.00001511,0.00004273,-0.00006042,0.00005718,0.00000371,0
 .00037925,-0.00015571,0.00009725,-0.00003053,-0.00017361,-0.00025633,0
 .00061307,0.00057062,-0.00029494,0.00024782,0.00067460,-0.00031610,-0.
 00016915,0.00032902,0.00034121,-0.00029285,-0.00043570,-0.00029021,0.0
 0001858,-0.00000002,-0.00001369,-0.00000881,-0.00006674,0.00002442,-0.
 00005513,-0.00010045,0.00009628,-0.00000039,0.00002052,-0.00001866,0.0
 0000439,-0.00000251,0.00000016,0.00000006,0.00000538,0.00000597,0.0000
 0105,0.00001115,-0.00000769,-0.00000521,0.00000689,0.00000083,-0.00000
 122,-0.00000491,0.00002133,-0.00000662,-0.00000470,-0.00000692,-0.0000
 2570,0.00000206,-0.00000071,-0.00060239,0.00003114,0.00036247,-0.04951
 840,-0.10323209,0.07622238,0.00001272,-0.00001622,-0.00002655,-0.00006
 281,0.00004517,-0.00000918,-0.00007047,0.00021506,-0.00000497,0.000135
 81,-0.00004131,-0.00000416,-0.00002949,-0.00005593,0.00000663,-0.00001
 692,0.00008482,0.00001866,0.00025468,-0.00021572,0.00000311,-0.0004631
 4,-0.00006762,0.00021997,-0.00000999,0.00013729,-0.00000971,-0.0000711
 4,-0.00007273,-0.00000439,-0.00002950,0.00028586,0.00003339,-0.0001406
 0,-0.00078337,0.00025280,-0.00428626,-0.00258967,-0.00164750,0.0000231
 8,0.00121917,-0.00041646,-0.00001434,-0.00001371,0.00000325,-0.0000053
 3,0.00004773,0.00001113,0.00000974,-0.00006399,-0.00007510,-0.00002385
 ,0.00000483,-0.00000136,-0.01014584,0.02126143,-0.01957660,-0.00156256
 ,-0.00357352,-0.00038718,0.01052249,-0.01331129,0.01252875,-0.10324747
 ,0.07218427,-0.07772241,-0.00002129,0.00000426,-0.00000068,-0.00002474
 ,-0.00003754,-0.00002153,-0.00006180,-0.00009299,-0.00004797,0.0000590
 3,0.00018911,0.00015961,0.00044729,-0.00035048,0.00051393,0.00016742,-
 0.00007588,-0.00007751,0.00016413,-0.00004498,0.00003063,-0.00007269,0
 .00012271,0.00005904,-0.00000955,-0.00001136,0.00000028,-0.00000826,0.
 00001430,-0.00001172,-0.00014198,-0.00020782,0.00017979,-0.00000118,-0
 .00000327,-0.00000335,0.00000477,-0.00000225,-0.00000231,-0.00000377,0
 .00000573,0.00000050,0.00000108,0.00000493,0.00000105,-0.00000417,0.00
 000555,0.00000054,-0.00000267,0.00000092,-0.00000607,-0.00000738,0.000
 01298,0.00000259,-0.00000990,-0.00000744,-0.00000156,-0.00005147,-0.00
 008362,-0.00005829,0.00065355,0.00027383,0.00107467,0.10785857,0.00013
 358,-0.00003358,-0.00000062,-0.00002234,0.00003972,0.00001086,-0.00005
 229,0.00003793,0.00003018,0.00002644,-0.00018219,-0.00003165,-0.000185
 88,-0.00003712,0.00001235,0.00008267,0.00019269,0.00002630,-0.00015088
 ,-0.00017738,0.00009915,-0.00028937,0.00034178,-0.00037838,0.00012003,
 -0.00008483,-0.00006833,0.00002283,0.00013191,0.00001774,0.00020139,-0
 .00016434,-0.00016812,-0.00095868,0.00006534,-0.00044660,-0.00281556,0
 .00203401,0.00190383,0.00063143,0.00023449,0.00015708,-0.00009393,-0.0
 0002316,-0.00002074,0.00008158,-0.00001148,0.00001075,-0.00016037,-0.0
 0001557,-0.00004548,0.00008315,0.00010809,-0.00001974,-0.00213730,0.00
 523359,-0.00301431,-0.00408087,0.00122140,0.00378866,0.01181926,-0.011
 47977,0.01538371,0.07123094,-0.17063217,0.12194067,-0.00004862,-0.0000
 1455,-0.00002623,0.00003142,-0.00003750,-0.00002102,-0.00013524,-0.000
 00701,-0.00001511,0.00012992,0.00005197,0.00004082,0.00041644,0.000295
 94,0.00061937,0.00002432,-0.00013632,-0.00001427,0.00011663,-0.0001309
 4,-0.00010595,0.00004401,0.00019866,0.00012995,-0.00002449,-0.00000521
 ,0.00000513,0.00001650,0.00000795,-0.00001750,-0.00020704,-0.00032260,
 0.00007185,-0.00000857,-0.00002045,0.00000331,-0.00000769,-0.00001271,
 0.00000229,0.00000072,-0.00000676,-0.00000024,0.00000092,-0.00000667,0
 .00000114,-0.00000130,-0.00000385,-0.00000548,0.00000437,0.00000248,-0
 .00000486,0.00000480,0.00000478,0.00000913,0.00000576,0.00000148,0.000
 00579,0.00001461,0.00001478,0.00007078,0.00081525,-0.00042704,-0.00167
 798,-0.07587934,0.17543196,0.00010497,-0.00005027,-0.00000380,-0.00002
 907,0.00006777,0.00002051,-0.00000121,-0.00005546,0.00000417,-0.000089
 14,-0.00014849,-0.00001980,-0.00015960,-0.00002030,0.00000766,0.000064
 69,0.00013947,0.00001964,-0.00026067,-0.00009080,0.00014371,-0.0004017
 9,0.00025587,-0.00047231,0.00017341,-0.00008514,-0.00010783,0.00001361
 ,0.00018936,0.00002996,0.00018430,-0.00018667,-0.00018182,-0.00034801,
 -0.00032277,-0.00016559,-0.00264386,0.00069525,0.00411386,0.00066916,0
 .00048532,0.00005554,-0.00005551,-0.00000284,-0.00001152,0.00003360,-0
 .00005774,-0.00000807,-0.00006891,0.00006371,0.00005006,0.00009202,-0.
 00000286,-0.00003739,-0.00029062,0.00514899,-0.00167793,0.00114646,0.0
 0507345,0.00565582,-0.00494519,0.00896319,-0.00533205,-0.07948825,0.12
 113282,-0.15350333,-0.00002444,-0.00000613,-0.00001317,0.00002235,-0.0
 0001393,-0.00000364,-0.00011887,0.00003882,-0.00000485,0.00008396,-0.0
 0005088,-0.00009973,-0.00069316,0.00023451,-0.00047761,-0.00015008,-0.
 00004262,0.00005031,0.00007434,-0.00010217,-0.00002793,0.00007394,0.00
 005342,0.00005921,0.00002395,0.00000923,0.00000235,0.00003419,0.000003
 35,-0.00003957,0.00008017,0.00017025,-0.00020130,0.00000678,0.00000517
 ,-0.00000428,0.00000416,0.00000308,0.00000587,-0.00000036,0.00000478,0
 .00000285,-0.00000118,0.00000460,0.00000503,-0.00000180,0.00000586,-0.
 00000280,-0.00000580,0.00000446,-0.00000060,-0.00000473,0.00001233,0.0
 0001593,-0.00000579,-0.00000810,0.00000912,0.00000019,0.00002124,0.000
 10592,0.00060410,-0.00167750,-0.00151055,0.08440879,-0.13615981,0.1552
 2486,0.00016647,0.00008129,0.00004804,0.00007046,0.00004258,-0.0000154
 7,-0.00016686,0.00006852,-0.00005050,0.00018941,-0.00008018,-0.0000388
 5,-0.00013390,0.00008880,0.00003795,0.00012362,0.00010546,0.00003548,0
 .00050531,0.00024662,-0.00003292,0.00002715,-0.00026068,0.00016084,0.0
 0001785,0.00006309,-0.00001726,-0.00007152,-0.00006356,0.00000664,-0.0
 0112180,-0.00060373,-0.00015126,0.00062940,0.00080252,-0.00173607,0.00
 045122,-0.00001810,0.00050851,-0.00021073,0.00023299,0.00001916,-0.000
 21704,0.00002500,-0.00001556,0.00018099,-0.00005328,-0.00001343,-0.000
 29363,0.00014845,0.00004253,0.00000308,0.00011654,0.00012656,0.0007339
 8,-0.00310289,0.00034863,-0.00745068,0.00120728,-0.00185595,-0.3215825
 5,-0.03142338,-0.06894571,-0.01063980,0.00213384,-0.00414307,-0.000134
 77,-0.00002398,-0.00003481,0.00009751,-0.00000651,0.00002054,-0.000550
 45,0.00025064,-0.00023810,0.00024990,0.00021701,0.00031401,-0.00130356
 ,-0.00149194,0.00067814,-0.00025717,-0.00172980,0.00101194,0.00032313,
 -0.00024354,-0.00029473,0.00024172,-0.00005735,0.00077528,-0.00007401,
 -0.00003263,0.00012473,-0.00003482,-0.00013722,-0.00000714,0.00000002,
 0.00021603,-0.00009773,0.00000604,-0.00001149,-0.00000243,0.00000131,0
 .00000465,-0.00000243,0.00000745,0.00000231,-0.00000375,-0.00000065,0.
 00000248,0.00000559,-0.00000063,0.00000240,-0.00000726,-0.00000391,0.0
 0001251,-0.00000341,-0.00000418,0.00000538,0.00000054,-0.00000899,-0.0
 0000159,0.00000039,0.00001150,-0.00004378,-0.00004462,-0.00048470,-0.0
 0010665,-0.00057458,0.00048565,0.00069456,0.00119258,0.34054427,-0.000
 38632,-0.00038807,-0.00014284,-0.00036957,0.00020049,0.00006128,0.0002
 3871,-0.00005238,-0.00006406,-0.00021080,0.00025430,-0.00004383,0.0001
 5104,0.00004494,-0.00003265,-0.00008153,-0.00024288,-0.00002475,-0.000
 37981,-0.00006780,-0.00017193,0.00033497,0.00014212,0.00011468,-0.0001
 2550,0.00008885,0.00005963,0.00009646,-0.00001285,-0.00000084,0.001092
 39,0.00100769,0.00033491,0.00146679,-0.00102231,0.00345854,0.00027817,
 -0.00051789,-0.00019565,-0.00001586,-0.00028296,-0.00062051,0.00058599
 ,-0.00004461,0.00003963,-0.00044293,0.00011379,-0.00001042,0.00029597,
 -0.00015493,0.00000014,0.00007435,-0.00045591,-0.00005774,-0.00201358,
 -0.00060202,0.00578571,0.01720334,0.00072215,0.00609294,-0.02749034,-0
 .04727233,0.00444181,-0.02449379,0.00262952,-0.00362195,0.00039116,-0.
 00002057,0.00009957,-0.00017677,0.00024526,0.00004380,0.00174661,-0.00
 033536,0.00040656,-0.00070782,-0.00091474,-0.00097229,0.00177902,0.002
 89541,-0.00137068,0.00061482,0.00238579,-0.00032620,-0.00144657,0.0011
 9462,0.00060148,-0.00129662,-0.00203095,-0.00120567,-0.00000377,-0.000
 01008,0.00001921,-0.00005562,-0.00027299,0.00017303,-0.00003625,-0.000
 03409,0.00002040,-0.00001849,0.00005893,0.00001906,-0.00000204,-0.0000
 1043,0.00000698,-0.00000292,-0.00000402,0.00000593,0.00000910,0.000002
 96,-0.00000737,0.00000578,0.00000007,0.00000636,-0.00000027,-0.0000118
 5,0.00003147,-0.00001188,-0.00000200,-0.00000910,0.00001385,-0.0000041
 9,-0.00000765,0.00008863,0.00005191,0.00002608,-0.00097244,-0.00028892
 ,-0.00050436,0.00122451,-0.00117087,-0.00287728,0.03233333,0.04435989,
 -0.00019599,-0.00067385,-0.00028263,-0.00095029,0.00043063,0.00003977,
 0.00001554,0.00061936,-0.00003097,0.00002277,-0.00002413,-0.00013851,-
 0.00001381,-0.00010613,-0.00000394,-0.00009810,0.00004023,0.00002457,0
 .00034857,0.00010014,0.00053785,-0.00003358,0.00061346,-0.00020709,0.0
 0003384,-0.00011284,0.00009137,-0.00002140,0.00011947,0.00002271,-0.00
 131656,0.00099505,0.00023815,0.00379078,0.00223617,-0.00280884,-0.0007
 2059,0.00025758,-0.00080635,0.00068327,-0.00080497,-0.00021640,0.00060
 904,0.00008718,0.00012520,-0.00049360,0.00009196,0.00000465,0.00021334
 ,-0.00003705,-0.00008461,0.00012632,-0.00126106,-0.00005264,0.00112741
 ,0.00483142,0.00408067,-0.02107883,-0.00573199,0.00470225,-0.07059195,
 0.00789745,-0.05796730,0.01074408,0.00062476,0.00761241,0.00042447,-0.
 00004595,0.00008539,-0.00020986,0.00032223,0.00012161,0.00152699,-0.00
 036226,0.00029684,-0.00039652,-0.00068451,-0.00121400,0.00223494,0.002
 71595,-0.00062242,0.00051460,0.00264182,-0.00162334,-0.00103656,0.0011
 0229,0.00098861,-0.00057345,-0.00147272,-0.00070143,0.00008313,0.00005
 172,-0.00002641,0.00013615,0.00004702,-0.00045308,-0.00019192,-0.00048
 226,0.00042923,-0.00002503,-0.00000921,-0.00002787,-0.00001008,-0.0000
 1603,0.00001094,0.00000507,-0.00000324,0.00000853,0.00001482,0.0000082
 4,-0.00001418,-0.00001238,0.00000568,0.00000353,0.00000415,-0.00000287
 ,0.00003039,-0.00000407,-0.00000851,-0.00000983,-0.00000602,0.00000185
 ,0.00000148,-0.00003898,0.00003860,0.00005778,0.00055957,0.00004172,0.
 00021071,0.00083503,-0.00285574,-0.00256042,0.07312651,-0.01058289,0.0
 5018060,-0.00018909,0.00019282,0.00012980,-0.00036211,-0.00055114,-0.0
 0023971,0.00064897,-0.00025863,-0.00006869,-0.00067219,0.00000253,0.00
 047346,0.00052193,0.00017041,-0.00004770,-0.00017216,-0.00065224,-0.00
 007644,-0.00021458,0.00025487,-0.00221760,-0.00062095,-0.00000500,0.00
 014243,0.00032801,-0.00016090,0.00004343,-0.00014528,0.00053335,0.0000
 0838,-0.00105422,-0.00025892,-0.00164296,-0.01441472,0.01838053,0.0270
 0270,-0.00059510,-0.00157816,-0.00005696,-0.00030587,-0.00004530,-0.00
 050784,0.00027323,0.00024444,0.00011352,-0.00005763,0.00041182,0.00012
 097,0.00163258,-0.00006340,0.00001791,-0.00083772,-0.00200952,0.001284
 92,-0.00086889,-0.00019339,-0.00092227,-0.03611934,0.02523490,0.031820
 32,0.00274852,-0.00412121,-0.01128205,0.00127115,0.00111353,-0.0009531
 1,-0.00024137,-0.00004238,-0.00007162,0.00011595,-0.00009895,-0.000165
 33,0.00000022,-0.00001111,-0.00049802,-0.00311872,0.00063885,0.0016544
 5,-0.00414265,-0.01783070,-0.00526303,0.00090453,-0.00306499,-0.002829
 30,-0.00044406,0.00011799,0.00014315,-0.00007662,-0.00126507,0.0004701
 0,-0.00006066,-0.00004985,0.00003729,-0.00049650,0.00081662,-0.0001654
 4,0.00159909,0.00097707,-0.00112145,0.00002269,0.00018993,-0.00016318,
 0.00001882,-0.00003287,-0.00004976,0.00000629,-0.00000746,0.00000704,0
 .00000711,-0.00000964,-0.00000345,0.00001264,0.00000318,0.00001613,-0.
 00002286,0.00001837,-0.00003081,-0.00000689,0.00000944,-0.00000808,-0.
 00001152,-0.00000571,0.00001586,0.00003388,0.00001518,0.00005805,-0.00
 004936,0.00008225,0.00006299,-0.00019955,0.00050626,0.00069633,-0.0003
 2110,0.00071645,0.00083914,0.05567605,-0.00131799,0.00019030,0.0001528
 3,0.00054943,-0.00070877,0.00015985,0.00065730,-0.00138903,-0.00058571
 ,-0.00147988,0.00089191,0.00036854,0.00147345,0.00007363,-0.00021906,-
 0.00080107,-0.00150574,-0.00023639,-0.00215793,0.00083248,0.00086232,-
 0.00027958,0.00043519,0.00001272,0.00003517,-0.00022009,-0.00009359,0.
 00015015,0.00045308,-0.00002409,0.00344442,0.00218644,0.00074844,0.003
 88369,-0.00136306,-0.00384610,0.00021724,-0.00127644,-0.00054545,-0.00
 032413,-0.00064210,0.00007357,0.00123817,0.00013677,0.00016493,-0.0007
 7051,0.00063617,0.00027976,0.00365467,-0.00076323,0.00027878,-0.001336
 08,-0.00174940,-0.00112592,-0.00038936,0.00208771,-0.00061375,0.021604
 21,-0.07795664,-0.10499783,-0.00217861,0.00250970,0.01655710,0.0018013
 6,-0.00080814,0.00186511,-0.00007238,-0.00007103,-0.00000468,-0.000129
 18,-0.00001924,-0.00031870,0.00186121,-0.00086136,-0.00119102,-0.00650
 530,0.00149320,0.00379158,-0.00978822,-0.03627213,-0.01219401,0.005761
 69,0.00113125,0.00021781,-0.00077826,0.00230173,0.00185756,-0.00110046
 ,-0.00225453,-0.00301318,0.00003964,-0.00000399,-0.00005121,-0.0003793
 5,0.00010447,0.00051350,0.00110195,-0.00028140,-0.00176166,-0.00008007
 ,-0.00003396,0.00016378,0.00003058,-0.00007320,-0.00009925,-0.00000711
 ,0.00000114,0.00003118,0.00000925,0.00001114,-0.00004983,0.00002209,0.
 00000398,0.00003744,-0.00000842,-0.00004516,0.00002794,0.00000043,-0.0
 0000206,0.00000498,0.00002013,-0.00000726,0.00000622,0.00001837,0.0000
 2916,0.00004856,-0.00002213,0.00002005,0.00007672,0.00025762,-0.000506
 87,-0.00082452,0.00038802,-0.00017069,-0.00064378,-0.01831425,0.113456
 00,0.00053034,0.00026076,0.00010077,0.00009284,0.00008320,-0.00008132,
 -0.00039390,0.00043622,0.00018901,0.00050363,-0.00043480,-0.00019536,-
 0.00039547,0.00008197,0.00006012,0.00030238,0.00045147,0.00004482,0.00
 140173,-0.00028268,-0.00018046,-0.00015546,-0.00038093,0.00004533,0.00
 012903,0.00006648,0.00003452,-0.00013473,-0.00008380,0.00001211,-0.001
 43247,0.00104839,0.00007440,0.00599543,-0.00395699,-0.00499574,0.00038
 360,-0.00088282,0.00134222,0.00015054,0.00051742,-0.00009289,-0.000661
 89,0.00010462,-0.00004697,0.00059959,-0.00012455,0.00005888,-0.0001525
 6,0.00022386,-0.00015566,-0.00014200,0.00005006,0.00038526,0.00100897,
 -0.00106037,-0.00018553,0.03210125,-0.11315193,-0.20487471,-0.00003327
 ,-0.00004991,-0.02987831,-0.00422178,0.00030120,-0.00009557,-0.0004430
 5,0.00005068,-0.00015299,0.00042278,-0.00029489,0.00000333,-0.00162779
 ,0.00061603,0.00038567,0.00160431,0.00158490,0.00073169,0.00025285,0.0
 0594270,0.00025414,0.00005025,0.00039018,0.00020002,0.00051004,-0.0007
 8671,-0.00045652,0.00033346,0.00111884,-0.00035112,-0.00003131,0.00004
 488,-0.00005084,-0.00046791,-0.00050741,0.00102088,0.00114731,0.002862
 74,0.00323973,-0.00002404,-0.00016210,0.00025340,-0.00001426,0.0000350
 7,0.00002996,0.00000322,-0.00001264,0.00000001,-0.00000760,-0.00001463
 ,0.00001519,0.00000018,-0.00000741,-0.00001340,0.00000708,0.00001181,0
 .00001155,0.00000345,0.00000806,-0.00000563,-0.00000474,0.00000432,0.0
 0000290,0.00004622,-0.00000573,-0.00001726,0.00002243,0.00000719,-0.00
 005697,-0.00022758,0.00075730,0.00088555,-0.00025753,0.00100145,-0.000
 05297,-0.03677357,0.10413851,0.23255876\\0.00005704,-0.00001613,-0.000
 00582,0.00001690,-0.00001452,0.00002548,-0.00002172,-0.00001228,0.0000
 6032,0.00002895,-0.00005872,-0.00002056,-0.00004771,0.00000645,-0.0000
 0889,0.00000417,0.00004305,-0.00000547,0.00000991,0.00002884,0.0000326
 6,-0.00000713,0.00003273,-0.00001558,0.00000852,-0.00003749,-0.0000056
 4,-0.00000449,0.00003877,-0.00001073,-0.00001826,-0.00001409,0.0000007
 2,0.00000931,0.00000617,-0.00000153,-0.00003330,0.00000378,0.00000558,
 0.00002588,-0.00001110,0.00000461,-0.00005271,0.00001764,-0.00001403,0
 .00003264,-0.00004311,-0.00001564,-0.00004881,0.00003477,0.00000110,-0
 .00002185,0.00001481,0.00001643,0.00005086,-0.00001997,-0.00000866,-0.
 00004725,-0.00012989,0.00000889,0.00001589,0.00003914,-0.00004519,-0.0
 0005218,-0.00001125,0.00002189,0.00001214,0.00000063,0.00000148,-0.000
 00018,0.00002454,0.00000509,-0.00004437,-0.00002120,-0.00001861,0.0000
 5320,-0.00000060,-0.00000002,0.00006998,0.00009175,-0.00003788,-0.0000
 6351,-0.00002589,-0.00000693,0.00002811,-0.00003614,-0.00002938,0.0000
 2925,0.00005638,0.00004073,-0.00000537,-0.00000816,-0.00000752,0.00000
 954,0.00000332,-0.00000259,-0.00000857,-0.00000647,0.00000214,-0.00000
 506,0.00000896,-0.00000353,-0.00000242,-0.00000225,-0.00000154,-0.0000
 0531,0.00000049,-0.00000160,0.00000249,-0.00000035,0.00000310,0.000005
 66,0.00000114,0.00000400,-0.00000227,-0.00000509,0.00000413,-0.0000008
 2,-0.00000566,0.00000555,-0.00000091,-0.00000310,0.00000172,-0.0000002
 3,-0.00000155,0.00000216,-0.00000117,0.00000732,0.00001095,0.00000678,
 -0.00000025,-0.00000131,0.00000178,-0.00000622,0.00000766,0.00001660,0
 .00003078,0.00000224\\\@


 A great many people think they are thinking when they
 are merely rearranging their prejudices.
                               -- William James
 Job cpu time:       1 days  1 hours  3 minutes  0.6 seconds.
 Elapsed time:       0 days  1 hours 15 minutes 21.6 seconds.
 File lengths (MBytes):  RWF=   2289 Int=      0 D2E=      0 Chk=     53 Scr=      1
 Normal termination of Gaussian 16 at Mon Aug 19 17:46:59 2019.
