 Entering Gaussian System, Link 0=/share/apps/gaussian16/g16/g16
 Initial command:
 /share/apps/gaussian16/g16/l1.exe "/home/am2145//scratch/4093/Gau-13955.inp" -scrdir="/home/am2145//scratch/4093/"
 Entering Link 1 = /share/apps/gaussian16/g16/l1.exe PID=     13956.
  
 Copyright (c) 1988,1990,1992,1993,1995,1998,2003,2009,2016,
            Gaussian, Inc.  All Rights Reserved.
  
 This is part of the Gaussian(R) 16 program.  It is based on
 the Gaussian(R) 09 system (copyright 2009, Gaussian, Inc.),
 the Gaussian(R) 03 system (copyright 2003, Gaussian, Inc.),
 the Gaussian(R) 98 system (copyright 1998, Gaussian, Inc.),
 the Gaussian(R) 94 system (copyright 1995, Gaussian, Inc.),
 the Gaussian 92(TM) system (copyright 1992, Gaussian, Inc.),
 the Gaussian 90(TM) system (copyright 1990, Gaussian, Inc.),
 the Gaussian 88(TM) system (copyright 1988, Gaussian, Inc.),
 the Gaussian 86(TM) system (copyright 1986, Carnegie Mellon
 University), and the Gaussian 82(TM) system (copyright 1983,
 Carnegie Mellon University). Gaussian is a federally registered
 trademark of Gaussian, Inc.
  
 This software contains proprietary and confidential information,
 including trade secrets, belonging to Gaussian, Inc.
  
 This software is provided under written license and may be
 used, copied, transmitted, or stored only in accord with that
 written license.
  
 The following legend is applicable only to US Government
 contracts under FAR:
  
                    RESTRICTED RIGHTS LEGEND
  
 Use, reproduction and disclosure by the US Government is
 subject to restrictions as set forth in subparagraphs (a)
 and (c) of the Commercial Computer Software - Restricted
 Rights clause in FAR 52.227-19.
  
 Gaussian, Inc.
 340 Quinnipiac St., Bldg. 40, Wallingford CT 06492
  
  
 ---------------------------------------------------------------
 Warning -- This program may not be used in any manner that
 competes with the business of Gaussian, Inc. or will provide
 assistance to any competitor of Gaussian, Inc.  The licensee
 of this program is prohibited from giving any competitor of
 Gaussian, Inc. access to this program.  By using this program,
 the user acknowledges that Gaussian, Inc. is engaged in the
 business of creating and licensing software in the field of
 computational chemistry and represents and warrants to the
 licensee that it is not a competitor of Gaussian, Inc. and that
 it will not use this program in any manner prohibited above.
 ---------------------------------------------------------------
  

 Cite this work as:
 Gaussian 16, Revision A.03,
 M. J. Frisch, G. W. Trucks, H. B. Schlegel, G. E. Scuseria, 
 M. A. Robb, J. R. Cheeseman, G. Scalmani, V. Barone, 
 G. A. Petersson, H. Nakatsuji, X. Li, M. Caricato, A. V. Marenich, 
 J. Bloino, B. G. Janesko, R. Gomperts, B. Mennucci, H. P. Hratchian, 
 J. V. Ortiz, A. F. Izmaylov, J. L. Sonnenberg, D. Williams-Young, 
 F. Ding, F. Lipparini, F. Egidi, J. Goings, B. Peng, A. Petrone, 
 T. Henderson, D. Ranasinghe, V. G. Zakrzewski, J. Gao, N. Rega, 
 G. Zheng, W. Liang, M. Hada, M. Ehara, K. Toyota, R. Fukuda, 
 J. Hasegawa, M. Ishida, T. Nakajima, Y. Honda, O. Kitao, H. Nakai, 
 T. Vreven, K. Throssell, J. A. Montgomery, Jr., J. E. Peralta, 
 F. Ogliaro, M. J. Bearpark, J. J. Heyd, E. N. Brothers, K. N. Kudin, 
 V. N. Staroverov, T. A. Keith, R. Kobayashi, J. Normand, 
 K. Raghavachari, A. P. Rendell, J. C. Burant, S. S. Iyengar, 
 J. Tomasi, M. Cossi, J. M. Millam, M. Klene, C. Adamo, R. Cammi, 
 J. W. Ochterski, R. L. Martin, K. Morokuma, O. Farkas, 
 J. B. Foresman, and D. J. Fox, Gaussian, Inc., Wallingford CT, 2016.
 
 ******************************************
 Gaussian 16:  ES64L-G16RevA.03 25-Dec-2016
                30-Apr-2019 
 ******************************************
 %nprocshared=20
 Will use up to   20 processors via shared memory.
 %mem=100GB
 %chk=7-path-2.chk
 -------------------------------------------
 # opt freq b3lyp/6-311+g(d,p) int=grid=fine
 -------------------------------------------
 1/18=20,19=15,26=3,38=1/1,3;
 2/9=110,12=2,17=6,18=5,40=1/2;
 3/5=4,6=6,7=111,11=2,25=1,30=1,71=1,74=-5,75=-4/1,2,3;
 4//1;
 5/5=2,38=5/2;
 6/7=2,8=2,9=2,10=2,28=1/1;
 7//1,2,3,16;
 1/18=20,19=15,26=3/3(2);
 2/9=110/2;
 99//99;
 2/9=110/2;
 3/5=4,6=6,7=111,11=2,25=1,30=1,71=1,74=-5,75=-4/1,2,3;
 4/5=5,16=3,69=1/1;
 5/5=2,38=5/2;
 7//1,2,3,16;
 1/18=20,19=15,26=3/3(-5);
 2/9=110/2;
 6/7=2,8=2,9=2,10=2,19=2,28=1/1;
 99/9=1/99;
 --------
 7-path-2
 --------
 Symbolic Z-matrix:
 Charge =  0 Multiplicity = 2
 C                    -2.36238   1.0147   -0.05646 
 C                    -2.68542  -0.29991  -0.41584 
 C                    -1.65589  -1.19399  -0.71227 
 C                    -0.40352  -0.64802  -0.96081 
 C                    -0.06093   0.67103  -0.66526 
 C                    -1.02909   1.44569  -0.01614 
 C                     1.41958   0.65777  -0.51058 
 C                     0.71965  -1.45918  -0.8988 
 C                     1.81591  -0.66788  -0.60811 
 C                    -1.75662  -2.58181  -0.55681 
 C                     0.66193  -2.78301  -0.48572 
 C                    -0.60545  -3.37094  -0.41912 
 C                     2.92872  -1.17092   0.04729 
 C                     1.8333   -3.34538   0.03595 
 C                     2.95806  -2.5477    0.29798 
 C                     2.37458   1.61035  -0.1526 
 C                     3.58068   1.14206   0.3869 
 C                     3.83259  -0.22929   0.54635 
 C                     2.23434   2.95765  -0.49316 
 C                     4.54165   2.06994   0.79513 
 C                     3.20742   3.87894  -0.10152 
 C                     4.34219   3.43455   0.5799 
 C                    -0.70568   2.55547   0.76893 
 C                    -3.3729    1.84718   0.43104 
 C                    -3.05115   3.05135   1.05753 
 C                    -1.71289   3.37693   1.2762 
 C                     1.15937   3.37737  -1.27863 
 C                     1.00237   4.7274   -1.59225 
 C                     3.05035   5.23162  -0.4126 
 C                     1.94275   5.65752  -1.14756 
 H                    -0.70249  -4.41     -0.12491 
 H                     1.83045  -4.37987   0.36068 
 H                     3.81073  -2.98122   0.8085 
 H                     4.72897  -0.56516   1.05515 
 H                    -2.72705  -3.02857  -0.37156 
 H                    -3.6928   -0.67215  -0.268 
 H                    -4.41143   1.5417    0.36772 
 H                    -3.83669   3.68404   1.45602 
 H                    -1.45494   4.2542    1.85937 
 H                     0.14864   5.04955  -2.17774 
 H                     1.82401   6.70759  -1.39128 
 H                     3.79404   5.95532  -0.09781 
 H                     5.10411   4.14102   0.89007 
 H                     5.46099   1.73425   1.26199 
 H                     0.31715   2.74513   1.06424 
 

 GradGradGradGradGradGradGradGradGradGradGradGradGradGradGradGradGradGrad
 Berny optimization.
 Initialization pass.
                           ----------------------------
                           !    Initial Parameters    !
                           ! (Angstroms and Degrees)  !
 --------------------------                            --------------------------
 ! Name  Definition              Value          Derivative Info.                !
 --------------------------------------------------------------------------------
 ! R1    R(1,2)                  1.4006         estimate D2E/DX2                !
 ! R2    R(1,6)                  1.4018         estimate D2E/DX2                !
 ! R3    R(1,24)                 1.3971         estimate D2E/DX2                !
 ! R4    R(2,3)                  1.3954         estimate D2E/DX2                !
 ! R5    R(2,36)                 1.0841         estimate D2E/DX2                !
 ! R6    R(3,4)                  1.3886         estimate D2E/DX2                !
 ! R7    R(3,10)                 1.4001         estimate D2E/DX2                !
 ! R8    R(4,5)                  1.3945         estimate D2E/DX2                !
 ! R9    R(4,8)                  1.3868         estimate D2E/DX2                !
 ! R10   R(5,6)                  1.3996         estimate D2E/DX2                !
 ! R11   R(5,7)                  1.4886         estimate D2E/DX2                !
 ! R12   R(6,23)                 1.3973         estimate D2E/DX2                !
 ! R13   R(7,9)                  1.3871         estimate D2E/DX2                !
 ! R14   R(7,16)                 1.3956         estimate D2E/DX2                !
 ! R15   R(8,9)                  1.3829         estimate D2E/DX2                !
 ! R16   R(8,11)                 1.388          estimate D2E/DX2                !
 ! R17   R(9,13)                 1.386          estimate D2E/DX2                !
 ! R18   R(10,12)                1.4025         estimate D2E/DX2                !
 ! R19   R(10,35)                1.0843         estimate D2E/DX2                !
 ! R20   R(11,12)                1.3987         estimate D2E/DX2                !
 ! R21   R(11,14)                1.4002         estimate D2E/DX2                !
 ! R22   R(12,31)                1.0843         estimate D2E/DX2                !
 ! R23   R(13,15)                1.3997         estimate D2E/DX2                !
 ! R24   R(13,18)                1.3974         estimate D2E/DX2                !
 ! R25   R(14,15)                1.4036         estimate D2E/DX2                !
 ! R26   R(14,32)                1.0843         estimate D2E/DX2                !
 ! R27   R(15,33)                1.0843         estimate D2E/DX2                !
 ! R28   R(16,17)                1.4018         estimate D2E/DX2                !
 ! R29   R(16,19)                1.3967         estimate D2E/DX2                !
 ! R30   R(17,18)                1.4034         estimate D2E/DX2                !
 ! R31   R(17,20)                1.3968         estimate D2E/DX2                !
 ! R32   R(18,34)                1.0841         estimate D2E/DX2                !
 ! R33   R(19,21)                1.3961         estimate D2E/DX2                !
 ! R34   R(19,27)                1.396          estimate D2E/DX2                !
 ! R35   R(20,22)                1.3958         estimate D2E/DX2                !
 ! R36   R(20,44)                1.0844         estimate D2E/DX2                !
 ! R37   R(21,22)                1.3963         estimate D2E/DX2                !
 ! R38   R(21,29)                1.3968         estimate D2E/DX2                !
 ! R39   R(22,43)                1.0844         estimate D2E/DX2                !
 ! R40   R(23,26)                1.3952         estimate D2E/DX2                !
 ! R41   R(23,45)                1.0814         estimate D2E/DX2                !
 ! R42   R(24,25)                1.395          estimate D2E/DX2                !
 ! R43   R(24,37)                1.0844         estimate D2E/DX2                !
 ! R44   R(25,26)                1.3945         estimate D2E/DX2                !
 ! R45   R(25,38)                1.0845         estimate D2E/DX2                !
 ! R46   R(26,39)                1.0845         estimate D2E/DX2                !
 ! R47   R(27,28)                1.3948         estimate D2E/DX2                !
 ! R48   R(28,30)                1.3954         estimate D2E/DX2                !
 ! R49   R(28,40)                1.0842         estimate D2E/DX2                !
 ! R50   R(29,30)                1.3958         estimate D2E/DX2                !
 ! R51   R(29,42)                1.0844         estimate D2E/DX2                !
 ! R52   R(30,41)                1.0845         estimate D2E/DX2                !
 ! A1    A(2,1,6)              121.0193         estimate D2E/DX2                !
 ! A2    A(2,1,24)             118.8156         estimate D2E/DX2                !
 ! A3    A(6,1,24)             119.6512         estimate D2E/DX2                !
 ! A4    A(1,2,3)              119.06           estimate D2E/DX2                !
 ! A5    A(1,2,36)             120.1071         estimate D2E/DX2                !
 ! A6    A(3,2,36)             119.6406         estimate D2E/DX2                !
 ! A7    A(2,3,4)              116.8403         estimate D2E/DX2                !
 ! A8    A(2,3,10)             123.9472         estimate D2E/DX2                !
 ! A9    A(4,3,10)             118.3251         estimate D2E/DX2                !
 ! A10   A(3,4,5)              123.7476         estimate D2E/DX2                !
 ! A11   A(3,4,8)              119.501          estimate D2E/DX2                !
 ! A12   A(5,4,8)              110.1703         estimate D2E/DX2                !
 ! A13   A(4,5,6)              116.8661         estimate D2E/DX2                !
 ! A14   A(4,5,7)              104.9473         estimate D2E/DX2                !
 ! A15   A(6,5,7)              130.1449         estimate D2E/DX2                !
 ! A16   A(1,6,5)              118.3224         estimate D2E/DX2                !
 ! A17   A(1,6,23)             118.7168         estimate D2E/DX2                !
 ! A18   A(5,6,23)             122.6884         estimate D2E/DX2                !
 ! A19   A(5,7,9)              106.5817         estimate D2E/DX2                !
 ! A20   A(5,7,16)             134.5198         estimate D2E/DX2                !
 ! A21   A(9,7,16)             118.3505         estimate D2E/DX2                !
 ! A22   A(4,8,9)              108.465          estimate D2E/DX2                !
 ! A23   A(4,8,11)             122.513          estimate D2E/DX2                !
 ! A24   A(9,8,11)             121.075          estimate D2E/DX2                !
 ! A25   A(7,9,8)              109.581          estimate D2E/DX2                !
 ! A26   A(7,9,13)             122.8912         estimate D2E/DX2                !
 ! A27   A(8,9,13)             121.8838         estimate D2E/DX2                !
 ! A28   A(3,10,12)            120.6358         estimate D2E/DX2                !
 ! A29   A(3,10,35)            119.4573         estimate D2E/DX2                !
 ! A30   A(12,10,35)           119.0797         estimate D2E/DX2                !
 ! A31   A(8,11,12)            116.9213         estimate D2E/DX2                !
 ! A32   A(8,11,14)            117.3335         estimate D2E/DX2                !
 ! A33   A(12,11,14)           124.8532         estimate D2E/DX2                !
 ! A34   A(10,12,11)           120.1702         estimate D2E/DX2                !
 ! A35   A(10,12,31)           119.4983         estimate D2E/DX2                !
 ! A36   A(11,12,31)           119.7908         estimate D2E/DX2                !
 ! A37   A(9,13,15)            117.2917         estimate D2E/DX2                !
 ! A38   A(9,13,18)            116.3369         estimate D2E/DX2                !
 ! A39   A(15,13,18)           125.8228         estimate D2E/DX2                !
 ! A40   A(11,14,15)           120.7766         estimate D2E/DX2                !
 ! A41   A(11,14,32)           119.5108         estimate D2E/DX2                !
 ! A42   A(15,14,32)           119.237          estimate D2E/DX2                !
 ! A43   A(13,15,14)           120.5819         estimate D2E/DX2                !
 ! A44   A(13,15,33)           119.6097         estimate D2E/DX2                !
 ! A45   A(14,15,33)           119.397          estimate D2E/DX2                !
 ! A46   A(7,16,17)            117.3534         estimate D2E/DX2                !
 ! A47   A(7,16,19)            121.8143         estimate D2E/DX2                !
 ! A48   A(17,16,19)           120.1635         estimate D2E/DX2                !
 ! A49   A(16,17,18)           121.6419         estimate D2E/DX2                !
 ! A50   A(16,17,20)           118.8486         estimate D2E/DX2                !
 ! A51   A(18,17,20)           119.5            estimate D2E/DX2                !
 ! A52   A(13,18,17)           120.118          estimate D2E/DX2                !
 ! A53   A(13,18,34)           119.5833         estimate D2E/DX2                !
 ! A54   A(17,18,34)           120.2986         estimate D2E/DX2                !
 ! A55   A(16,19,21)           119.8791         estimate D2E/DX2                !
 ! A56   A(16,19,27)           120.3009         estimate D2E/DX2                !
 ! A57   A(21,19,27)           119.747          estimate D2E/DX2                !
 ! A58   A(17,20,22)           120.4019         estimate D2E/DX2                !
 ! A59   A(17,20,44)           120.2293         estimate D2E/DX2                !
 ! A60   A(22,20,44)           119.3536         estimate D2E/DX2                !
 ! A61   A(19,21,22)           119.5611         estimate D2E/DX2                !
 ! A62   A(19,21,29)           119.8807         estimate D2E/DX2                !
 ! A63   A(22,21,29)           120.5496         estimate D2E/DX2                !
 ! A64   A(20,22,21)           120.169          estimate D2E/DX2                !
 ! A65   A(20,22,43)           119.5008         estimate D2E/DX2                !
 ! A66   A(21,22,43)           120.2185         estimate D2E/DX2                !
 ! A67   A(6,23,26)            120.3181         estimate D2E/DX2                !
 ! A68   A(6,23,45)            120.7735         estimate D2E/DX2                !
 ! A69   A(26,23,45)           118.7033         estimate D2E/DX2                !
 ! A70   A(1,24,25)            120.2808         estimate D2E/DX2                !
 ! A71   A(1,24,37)            120.2975         estimate D2E/DX2                !
 ! A72   A(25,24,37)           119.3596         estimate D2E/DX2                !
 ! A73   A(24,25,26)           119.5566         estimate D2E/DX2                !
 ! A74   A(24,25,38)           120.1015         estimate D2E/DX2                !
 ! A75   A(26,25,38)           120.0844         estimate D2E/DX2                !
 ! A76   A(23,26,25)           119.8877         estimate D2E/DX2                !
 ! A77   A(23,26,39)           120.0035         estimate D2E/DX2                !
 ! A78   A(25,26,39)           120.0931         estimate D2E/DX2                !
 ! A79   A(19,27,28)           120.2782         estimate D2E/DX2                !
 ! A80   A(27,28,30)           119.8435         estimate D2E/DX2                !
 ! A81   A(27,28,40)           119.8445         estimate D2E/DX2                !
 ! A82   A(30,28,40)           120.3117         estimate D2E/DX2                !
 ! A83   A(21,29,30)           120.13           estimate D2E/DX2                !
 ! A84   A(21,29,42)           120.2988         estimate D2E/DX2                !
 ! A85   A(30,29,42)           119.5653         estimate D2E/DX2                !
 ! A86   A(28,30,29)           119.9448         estimate D2E/DX2                !
 ! A87   A(28,30,41)           119.9993         estimate D2E/DX2                !
 ! A88   A(29,30,41)           120.0427         estimate D2E/DX2                !
 ! D1    D(6,1,2,3)              1.2104         estimate D2E/DX2                !
 ! D2    D(6,1,2,36)           168.6918         estimate D2E/DX2                !
 ! D3    D(24,1,2,3)          -170.5382         estimate D2E/DX2                !
 ! D4    D(24,1,2,36)           -3.0568         estimate D2E/DX2                !
 ! D5    D(2,1,6,5)             16.4675         estimate D2E/DX2                !
 ! D6    D(2,1,6,23)          -157.7015         estimate D2E/DX2                !
 ! D7    D(24,1,6,5)          -171.852          estimate D2E/DX2                !
 ! D8    D(24,1,6,23)           13.979          estimate D2E/DX2                !
 ! D9    D(2,1,24,25)          166.455          estimate D2E/DX2                !
 ! D10   D(2,1,24,37)          -10.661          estimate D2E/DX2                !
 ! D11   D(6,1,24,25)           -5.4089         estimate D2E/DX2                !
 ! D12   D(6,1,24,37)          177.4751         estimate D2E/DX2                !
 ! D13   D(1,2,3,4)            -15.8133         estimate D2E/DX2                !
 ! D14   D(1,2,3,10)           153.1956         estimate D2E/DX2                !
 ! D15   D(36,2,3,4)           176.6459         estimate D2E/DX2                !
 ! D16   D(36,2,3,10)          -14.3452         estimate D2E/DX2                !
 ! D17   D(2,3,4,5)             13.749          estimate D2E/DX2                !
 ! D18   D(2,3,4,8)            162.4517         estimate D2E/DX2                !
 ! D19   D(10,3,4,5)          -155.9003         estimate D2E/DX2                !
 ! D20   D(10,3,4,8)            -7.1977         estimate D2E/DX2                !
 ! D21   D(2,3,10,12)         -157.7679         estimate D2E/DX2                !
 ! D22   D(2,3,10,35)           11.7234         estimate D2E/DX2                !
 ! D23   D(4,3,10,12)           11.0893         estimate D2E/DX2                !
 ! D24   D(4,3,10,35)         -179.4195         estimate D2E/DX2                !
 ! D25   D(3,4,5,6)              3.553          estimate D2E/DX2                !
 ! D26   D(3,4,5,7)            155.5937         estimate D2E/DX2                !
 ! D27   D(8,4,5,6)           -147.6526         estimate D2E/DX2                !
 ! D28   D(8,4,5,7)              4.3881         estimate D2E/DX2                !
 ! D29   D(3,4,8,9)           -154.6938         estimate D2E/DX2                !
 ! D30   D(3,4,8,11)            -5.5843         estimate D2E/DX2                !
 ! D31   D(5,4,8,9)             -2.0915         estimate D2E/DX2                !
 ! D32   D(5,4,8,11)           147.018          estimate D2E/DX2                !
 ! D33   D(4,5,6,1)            -18.434          estimate D2E/DX2                !
 ! D34   D(4,5,6,23)           155.4889         estimate D2E/DX2                !
 ! D35   D(7,5,6,1)           -162.0936         estimate D2E/DX2                !
 ! D36   D(7,5,6,23)            11.8293         estimate D2E/DX2                !
 ! D37   D(4,5,7,9)             -5.0886         estimate D2E/DX2                !
 ! D38   D(4,5,7,16)          -176.0986         estimate D2E/DX2                !
 ! D39   D(6,5,7,9)            141.7407         estimate D2E/DX2                !
 ! D40   D(6,5,7,16)           -29.2693         estimate D2E/DX2                !
 ! D41   D(1,6,23,26)          -12.9876         estimate D2E/DX2                !
 ! D42   D(1,6,23,45)          161.7414         estimate D2E/DX2                !
 ! D43   D(5,6,23,26)          173.1124         estimate D2E/DX2                !
 ! D44   D(5,6,23,45)          -12.1586         estimate D2E/DX2                !
 ! D45   D(5,7,9,8)              4.0034         estimate D2E/DX2                !
 ! D46   D(5,7,9,13)          -149.8517         estimate D2E/DX2                !
 ! D47   D(16,7,9,8)           176.7302         estimate D2E/DX2                !
 ! D48   D(16,7,9,13)           22.8751         estimate D2E/DX2                !
 ! D49   D(5,7,16,17)          155.5522         estimate D2E/DX2                !
 ! D50   D(5,7,16,19)          -33.8118         estimate D2E/DX2                !
 ! D51   D(9,7,16,17)          -14.6499         estimate D2E/DX2                !
 ! D52   D(9,7,16,19)          155.9861         estimate D2E/DX2                !
 ! D53   D(4,8,9,7)             -1.3592         estimate D2E/DX2                !
 ! D54   D(4,8,9,13)           152.8074         estimate D2E/DX2                !
 ! D55   D(11,8,9,7)          -150.9964         estimate D2E/DX2                !
 ! D56   D(11,8,9,13)            3.1702         estimate D2E/DX2                !
 ! D57   D(4,8,11,12)           14.1058         estimate D2E/DX2                !
 ! D58   D(4,8,11,14)         -155.618          estimate D2E/DX2                !
 ! D59   D(9,8,11,12)          159.4559         estimate D2E/DX2                !
 ! D60   D(9,8,11,14)          -10.268          estimate D2E/DX2                !
 ! D61   D(7,9,13,15)          156.523          estimate D2E/DX2                !
 ! D62   D(7,9,13,18)          -15.4845         estimate D2E/DX2                !
 ! D63   D(8,9,13,15)            5.7932         estimate D2E/DX2                !
 ! D64   D(8,9,13,18)         -166.2143         estimate D2E/DX2                !
 ! D65   D(3,10,12,11)          -2.3852         estimate D2E/DX2                !
 ! D66   D(3,10,12,31)         169.166          estimate D2E/DX2                !
 ! D67   D(35,10,12,11)       -171.9157         estimate D2E/DX2                !
 ! D68   D(35,10,12,31)         -0.3645         estimate D2E/DX2                !
 ! D69   D(8,11,12,10)          -9.9277         estimate D2E/DX2                !
 ! D70   D(8,11,12,31)         178.5459         estimate D2E/DX2                !
 ! D71   D(14,11,12,10)        158.9376         estimate D2E/DX2                !
 ! D72   D(14,11,12,31)        -12.5888         estimate D2E/DX2                !
 ! D73   D(8,11,14,15)           8.5451         estimate D2E/DX2                !
 ! D74   D(8,11,14,32)        -179.4266         estimate D2E/DX2                !
 ! D75   D(12,11,14,15)       -160.2786         estimate D2E/DX2                !
 ! D76   D(12,11,14,32)         11.7498         estimate D2E/DX2                !
 ! D77   D(9,13,15,14)          -7.3997         estimate D2E/DX2                !
 ! D78   D(9,13,15,33)        -179.9945         estimate D2E/DX2                !
 ! D79   D(18,13,15,14)        163.76           estimate D2E/DX2                !
 ! D80   D(18,13,15,33)         -8.8349         estimate D2E/DX2                !
 ! D81   D(9,13,18,17)           0.8136         estimate D2E/DX2                !
 ! D82   D(9,13,18,34)        -179.0834         estimate D2E/DX2                !
 ! D83   D(15,13,18,17)       -170.4208         estimate D2E/DX2                !
 ! D84   D(15,13,18,34)          9.6823         estimate D2E/DX2                !
 ! D85   D(11,14,15,13)          0.2527         estimate D2E/DX2                !
 ! D86   D(11,14,15,33)        172.8632         estimate D2E/DX2                !
 ! D87   D(32,14,15,13)       -171.7972         estimate D2E/DX2                !
 ! D88   D(32,14,15,33)          0.8133         estimate D2E/DX2                !
 ! D89   D(7,16,17,18)           0.8734         estimate D2E/DX2                !
 ! D90   D(7,16,17,20)        -178.0031         estimate D2E/DX2                !
 ! D91   D(19,16,17,18)       -169.9247         estimate D2E/DX2                !
 ! D92   D(19,16,17,20)         11.1988         estimate D2E/DX2                !
 ! D93   D(7,16,19,21)         179.2966         estimate D2E/DX2                !
 ! D94   D(7,16,19,27)          -3.8182         estimate D2E/DX2                !
 ! D95   D(17,16,19,21)        -10.3253         estimate D2E/DX2                !
 ! D96   D(17,16,19,27)        166.5599         estimate D2E/DX2                !
 ! D97   D(16,17,18,13)          6.1947         estimate D2E/DX2                !
 ! D98   D(16,17,18,34)       -173.9091         estimate D2E/DX2                !
 ! D99   D(20,17,18,13)       -174.9359         estimate D2E/DX2                !
 ! D100  D(20,17,18,34)          4.9603         estimate D2E/DX2                !
 ! D101  D(16,17,20,22)         -4.5603         estimate D2E/DX2                !
 ! D102  D(16,17,20,44)        176.8661         estimate D2E/DX2                !
 ! D103  D(18,17,20,22)        176.5386         estimate D2E/DX2                !
 ! D104  D(18,17,20,44)         -2.035          estimate D2E/DX2                !
 ! D105  D(16,19,21,22)          2.687          estimate D2E/DX2                !
 ! D106  D(16,19,21,29)       -178.374          estimate D2E/DX2                !
 ! D107  D(27,19,21,22)       -174.2155         estimate D2E/DX2                !
 ! D108  D(27,19,21,29)          4.7235         estimate D2E/DX2                !
 ! D109  D(16,19,27,28)        178.489          estimate D2E/DX2                !
 ! D110  D(21,19,27,28)         -4.6217         estimate D2E/DX2                !
 ! D111  D(17,20,22,21)         -2.9705         estimate D2E/DX2                !
 ! D112  D(17,20,22,43)       -179.1383         estimate D2E/DX2                !
 ! D113  D(44,20,22,21)        175.6156         estimate D2E/DX2                !
 ! D114  D(44,20,22,43)         -0.5522         estimate D2E/DX2                !
 ! D115  D(19,21,22,20)          3.9298         estimate D2E/DX2                !
 ! D116  D(19,21,22,43)       -179.9301         estimate D2E/DX2                !
 ! D117  D(29,21,22,20)       -175.0019         estimate D2E/DX2                !
 ! D118  D(29,21,22,43)          1.1382         estimate D2E/DX2                !
 ! D119  D(19,21,29,30)         -1.8763         estimate D2E/DX2                !
 ! D120  D(19,21,29,42)        179.0108         estimate D2E/DX2                !
 ! D121  D(22,21,29,30)        177.0521         estimate D2E/DX2                !
 ! D122  D(22,21,29,42)         -2.0609         estimate D2E/DX2                !
 ! D123  D(6,23,26,25)           3.3246         estimate D2E/DX2                !
 ! D124  D(6,23,26,39)        -178.1163         estimate D2E/DX2                !
 ! D125  D(45,23,26,25)       -171.5123         estimate D2E/DX2                !
 ! D126  D(45,23,26,39)          7.0467         estimate D2E/DX2                !
 ! D127  D(1,24,25,26)          -4.3573         estimate D2E/DX2                !
 ! D128  D(1,24,25,38)        -178.5339         estimate D2E/DX2                !
 ! D129  D(37,24,25,26)        172.7857         estimate D2E/DX2                !
 ! D130  D(37,24,25,38)         -1.3909         estimate D2E/DX2                !
 ! D131  D(24,25,26,23)          5.4149         estimate D2E/DX2                !
 ! D132  D(24,25,26,39)       -173.1428         estimate D2E/DX2                !
 ! D133  D(38,25,26,23)        179.5925         estimate D2E/DX2                !
 ! D134  D(38,25,26,39)          1.0347         estimate D2E/DX2                !
 ! D135  D(19,27,28,30)          1.6465         estimate D2E/DX2                !
 ! D136  D(19,27,28,40)       -178.1627         estimate D2E/DX2                !
 ! D137  D(27,28,30,29)          1.2212         estimate D2E/DX2                !
 ! D138  D(27,28,30,41)        179.9023         estimate D2E/DX2                !
 ! D139  D(40,28,30,29)       -178.9704         estimate D2E/DX2                !
 ! D140  D(40,28,30,41)         -0.2893         estimate D2E/DX2                !
 ! D141  D(21,29,30,28)         -1.1043         estimate D2E/DX2                !
 ! D142  D(21,29,30,41)       -179.7848         estimate D2E/DX2                !
 ! D143  D(42,29,30,28)        178.0151         estimate D2E/DX2                !
 ! D144  D(42,29,30,41)         -0.6654         estimate D2E/DX2                !
 --------------------------------------------------------------------------------
 Trust Radius=3.00D-01 FncErr=1.00D-07 GrdErr=1.00D-06 EigMax=2.50D+02 EigMin=1.00D-04
 Number of steps in this run=    270 maximum allowed number of steps=    270.
 GradGradGradGradGradGradGradGradGradGradGradGradGradGradGradGradGradGrad

                          Input orientation:                          
 ---------------------------------------------------------------------
 Center     Atomic      Atomic             Coordinates (Angstroms)
 Number     Number       Type             X           Y           Z
 ---------------------------------------------------------------------
      1          6           0       -2.362380    1.014700   -0.056460
      2          6           0       -2.685420   -0.299910   -0.415840
      3          6           0       -1.655890   -1.193990   -0.712270
      4          6           0       -0.403520   -0.648020   -0.960810
      5          6           0       -0.060930    0.671030   -0.665260
      6          6           0       -1.029090    1.445690   -0.016140
      7          6           0        1.419580    0.657770   -0.510580
      8          6           0        0.719650   -1.459180   -0.898800
      9          6           0        1.815910   -0.667880   -0.608110
     10          6           0       -1.756620   -2.581810   -0.556810
     11          6           0        0.661930   -2.783010   -0.485720
     12          6           0       -0.605450   -3.370940   -0.419120
     13          6           0        2.928720   -1.170920    0.047290
     14          6           0        1.833300   -3.345380    0.035950
     15          6           0        2.958060   -2.547700    0.297980
     16          6           0        2.374580    1.610350   -0.152600
     17          6           0        3.580680    1.142060    0.386900
     18          6           0        3.832590   -0.229290    0.546350
     19          6           0        2.234340    2.957650   -0.493160
     20          6           0        4.541650    2.069940    0.795130
     21          6           0        3.207420    3.878940   -0.101520
     22          6           0        4.342190    3.434550    0.579900
     23          6           0       -0.705680    2.555470    0.768930
     24          6           0       -3.372900    1.847180    0.431040
     25          6           0       -3.051150    3.051350    1.057530
     26          6           0       -1.712890    3.376930    1.276200
     27          6           0        1.159370    3.377370   -1.278630
     28          6           0        1.002370    4.727400   -1.592250
     29          6           0        3.050350    5.231620   -0.412600
     30          6           0        1.942750    5.657520   -1.147560
     31          1           0       -0.702490   -4.410000   -0.124910
     32          1           0        1.830450   -4.379870    0.360680
     33          1           0        3.810730   -2.981220    0.808500
     34          1           0        4.728970   -0.565160    1.055150
     35          1           0       -2.727050   -3.028570   -0.371560
     36          1           0       -3.692800   -0.672150   -0.268000
     37          1           0       -4.411430    1.541700    0.367720
     38          1           0       -3.836690    3.684040    1.456020
     39          1           0       -1.454940    4.254200    1.859370
     40          1           0        0.148640    5.049550   -2.177740
     41          1           0        1.824010    6.707590   -1.391280
     42          1           0        3.794040    5.955320   -0.097810
     43          1           0        5.104110    4.141020    0.890070
     44          1           0        5.460990    1.734250    1.261990
     45          1           0        0.317150    2.745130    1.064240
 ---------------------------------------------------------------------
                    Distance matrix (angstroms):
                    1          2          3          4          5
     1  C    0.000000
     2  C    1.400610   0.000000
     3  C    2.409881   1.395415   0.000000
     4  C    2.723898   2.371759   1.388627   0.000000
     5  C    2.405290   2.809427   2.454467   1.394493   0.000000
     6  C    1.401799   2.439325   2.800962   2.380622   1.399567
     7  C    3.825813   4.216296   3.595582   2.287245   1.488627
     8  C    4.040857   3.629278   2.397563   1.386844   2.280711
     9  C    4.538006   4.520436   3.512981   2.247368   2.306182
    10  C    3.681328   2.467713   1.400128   2.394502   3.669890
    11  C    4.873737   4.168383   2.819326   2.432915   3.533434
    12  C    4.738371   3.709112   2.434845   2.783612   4.085904
    13  C    5.725682   5.700151   4.647162   3.520442   3.583087
    14  C    6.051658   5.467891   4.166864   3.643164   4.495704
    15  C    6.412753   6.116450   4.913417   4.061226   4.516897
    16  C    4.775231   5.414978   4.941886   3.670324   2.660235
    17  C    5.960935   6.479790   5.838405   4.571057   3.819716
    18  C    6.347326   6.589025   5.712984   4.515694   4.175892
    19  C    5.009551   5.900993   5.693682   4.491977   3.244459
    20  C    7.035934   7.701505   7.164844   5.909766   5.027269
    21  C    6.263272   7.230985   7.054036   5.854113   4.614174
    22  C    7.156248   8.020286   7.685704   6.446932   5.345553
    23  C    2.408297   3.671001   4.141896   3.653170   2.454326
    24  C    1.397079   2.408284   3.674778   4.120739   3.681623
    25  C    2.421430   3.679065   4.806439   4.976844   4.192296
    26  C    2.788898   4.162687   4.985035   4.787367   3.717544
    27  C    4.413460   5.389731   5.398498   4.329827   3.031440
    28  C    5.240643   6.344886   6.550082   5.591993   4.294654
    29  C    6.870727   7.968494   7.970380   6.841047   5.526561
    30  C    6.424984   7.579337   7.751315   6.730505   5.395594
    31  H    5.673384   4.572690   3.405390   3.865308   5.149800
    32  H    6.845087   6.135319   4.843100   4.545730   5.490124
    33  H    7.404243   7.133610   5.949022   5.131684   5.522739
    34  H    7.349754   7.563554   6.654746   5.514836   5.237473
    35  H    4.071892   2.729337   2.151546   3.378317   4.569628
    36  H    2.158756   1.084082   2.149115   3.361537   3.892612
    37  H    2.157838   2.642840   4.030308   4.756386   4.555432
    38  H    3.403904   4.549851   5.766502   6.032783   5.275834
    39  H    3.871461   5.237421   6.027975   5.752448   4.599579
    40  H    5.204331   6.304991   6.662261   5.852188   4.637128
    41  H    7.191426   8.389964   8.660585   7.697545   6.365545
    42  H    7.893855   9.011795   9.010657   7.872000   6.565555
    43  H    8.149740   9.061128   8.759419   7.529585   6.413854
    44  H    7.966253   8.562530   7.944953   6.708840   5.944437
    45  H    3.380863   4.525299   4.750320   4.016673   2.726904
                    6          7          8          9         10
     6  C    0.000000
     7  C    2.619403   0.000000
     8  C    3.503634   2.263204   0.000000
     9  C    3.593276   1.387061   1.382911   0.000000
    10  C    4.128242   4.537098   2.740286   4.053237   0.000000
    11  C    4.578423   3.523297   1.387981   2.412556   2.427945
    12  C    4.851988   4.509946   2.375039   3.633901   1.402454
    13  C    4.744990   2.435740   2.420366   1.385981   4.930310
    14  C    5.581249   4.061412   2.381538   2.753928   3.717786
    15  C    5.651832   3.646331   2.761818   2.378913   4.791663
    16  C    3.410382   1.395558   3.566178   2.389547   5.899526
    17  C    4.637307   2.389636   4.074919   2.716678   6.576060
    18  C    5.172802   2.779675   3.645749   2.364770   6.163650
    19  C    3.628160   2.439997   4.686920   3.651406   6.827696
    20  C    5.664008   3.666937   5.470994   4.110280   7.945736
    21  C    4.886309   3.706702   5.943078   4.781894   8.160286
    22  C    5.758600   4.176279   6.265616   4.962196   8.642001
    23  C    1.397333   3.123322   4.574965   4.317944   5.408670
    24  C    2.419630   5.026849   5.426735   5.859105   4.817070
    25  C    2.796362   5.308071   6.196050   6.347858   6.001199
    26  C    2.422274   4.516501   5.834024   5.688896   6.234454
    27  C    3.180350   2.837928   4.871328   4.152673   6.673518
    28  C    4.169001   4.231544   6.231739   5.544315   7.880908
    29  C    5.579631   4.856863   7.101786   6.030437   9.174827
    30  C    5.277448   5.067243   7.225322   6.349628   9.051016
    31  H    5.865800   5.507651   3.365817   4.536439   2.154067
    32  H    6.500470   5.128911   3.369065   3.836357   4.116051
    33  H    6.610705   4.549705   3.845290   3.367140   5.746215
    34  H    6.192450   3.859939   4.548828   3.356025   6.980557
    35  H    4.798791   5.550042   3.823703   5.125163   1.084272
    36  H    3.412335   5.288096   4.526261   5.519201   2.734777
    37  H    3.405406   5.962669   6.077609   6.679390   4.990602
    38  H    3.880732   6.376065   7.263479   7.426421   6.902105
    39  H    3.403912   5.178208   6.706643   6.404201   7.256719
    40  H    4.364329   4.866461   6.657725   6.158939   8.030883
    41  H    6.141562   6.126950   8.255803   7.416939   9.990506
    42  H    6.603485   5.820006   8.066491   6.931103  10.193287
    43  H    6.760337   5.260286   7.333879   6.015174   9.713883
    44  H    6.621029   4.542445   6.111245   4.749117   8.604086
    45  H    2.160585   2.837690   4.657441   4.085544   5.941769
                   11         12         13         14         15
    11  C    0.000000
    12  C    1.398696   0.000000
    13  C    2.832185   4.189031   0.000000
    14  C    1.400181   2.480976   2.434820   0.000000
    15  C    2.437575   3.727004   1.399725   1.403580   0.000000
    16  C    4.727129   5.810754   2.842972   4.988767   4.222896
    17  C    4.968575   6.208101   2.426986   4.828418   3.742979
    18  C    4.199969   5.522526   1.397394   3.737337   2.490284
    19  C    5.952118   6.936926   4.221296   6.337900   5.608792
    20  C    6.343810   7.587504   3.696482   6.102229   4.906884
    21  C    7.142038   8.197537   5.059734   7.355128   6.443872
    22  C    7.303281   8.473009   4.846847   7.249680   6.146756
    23  C    5.651891   6.045150   5.255056   6.465579   6.299772
    24  C    6.209586   5.967439   6.997614   7.363647   7.708030
    25  C    7.085784   7.029065   7.389655   8.112930   8.248447
    26  C    6.832934   7.045160   6.613449   7.700853   7.607623
    27  C    6.231086   7.028018   5.057233   6.883144   6.389635
    28  C    7.599116   8.339330   6.417873   8.277153   7.766902
    29  C    8.363264   9.347136   6.420188   8.674522   7.812251
    30  C    8.562773   9.409412   7.001957   9.081018   8.393216
    31  H    2.153816   1.084261   4.868981   2.754909   4.128756
    32  H    2.152160   2.749479   3.406137   1.084263   2.152274
    33  H    3.410166   4.600172   2.152805   2.153991   1.084258
    34  H    4.882003   6.204991   2.150262   4.141654   2.764036
    35  H    3.399782   2.149573   5.967749   4.589469   5.744562
    36  H    4.844255   4.103417   6.647760   6.146245   6.933395
    37  H    6.720897   6.264075   7.831908   7.936641   8.428371
    38  H    8.113610   7.983095   8.445468   9.142108   9.292162
    39  H    7.713813   8.003494   7.206389   8.478856   8.257018
    40  H    8.029657   8.635163   7.167555   8.843831   8.469961
    41  H    9.604268  10.412691   8.084602  10.153781   9.476289
    42  H    9.290802  10.316873   7.180051   9.506072   8.553178
    43  H    8.340741   9.525891   5.801664   8.214250   7.049473
    44  H    6.818439   8.104986   4.040780   6.361285   5.052630
    45  H    5.751659   6.360649   4.815593   6.360063   5.964529
                   16         17         18         19         20
    16  C    0.000000
    17  C    1.401796   0.000000
    18  C    2.449204   1.403383   0.000000
    19  C    1.396734   2.425594   3.713700   0.000000
    20  C    2.409483   1.396809   2.418908   2.787723   0.000000
    21  C    2.417174   2.805065   4.205725   1.396081   2.420048
    22  C    2.781322   2.423357   3.699262   2.412866   1.395804
    23  C    3.351189   4.529521   5.329196   3.224645   5.269810
    24  C    5.781890   6.989379   7.499607   5.790374   7.926051
    25  C    5.742773   6.933708   7.642629   5.509067   7.660459
    26  C    4.676504   5.814412   6.655062   4.345924   6.407724
    27  C    2.422197   3.692336   4.846097   1.395954   4.177280
    28  C    3.697506   4.839357   6.095288   2.420282   5.028735
    29  C    3.692948   4.200589   5.599377   2.417292   3.698487
    30  C    4.189989   5.042496   6.410566   2.793307   4.837257
    31  H    6.761194   7.030851   6.204505   7.939952   8.386722
    32  H    6.036743   5.792728   4.611979   7.398065   7.009950
    33  H    4.905992   4.151157   2.764474   6.280884   5.103787
    34  H    3.425588   2.163268   1.084059   4.585917   2.654515
    35  H    6.898851   7.599794   7.190786   7.775925   8.954885
    36  H    6.483535   7.524876   7.582268   6.953929   8.743882
    37  H    6.806275   8.002119   8.433990   6.849255   8.978828
    38  H    6.742976   7.913410   8.657916   6.417503   8.557960
    39  H    5.069831   6.100086   7.055755   4.563576   6.470138
    40  H    4.569912   5.798686   6.989872   3.400588   6.083960
    41  H    5.274401   6.101060   7.477239   3.877762   5.802909
    42  H    4.571284   4.842307   6.218185   3.402204   4.056161
    43  H    3.865461   3.401144   4.564484   3.398422   2.148196
    44  H    3.397402   2.156858   2.649399   3.871502   1.084358
    45  H    2.646024   3.698547   4.633973   2.479169   4.286572
                   21         22         23         24         25
    21  C    0.000000
    22  C    1.396252   0.000000
    23  C    4.221565   5.127329   0.000000
    24  C    6.907408   7.878104   2.780271   0.000000
    25  C    6.418567   7.418655   2.414626   1.395005   0.000000
    26  C    5.134158   6.095256   1.395203   2.410407   1.394546
    27  C    2.414885   3.686156   2.889019   5.079953   4.826221
    28  C    2.793637   4.188567   3.634541   5.615368   5.124598
    29  C    1.396848   2.425565   4.760835   7.309193   6.644032
    30  C    2.420111   3.699057   4.506643   6.728061   6.049263
    31  H    9.164850   9.353209   7.022587   6.825868   7.911138
    32  H    8.385560   8.211093   7.395780   8.115168   8.918444
    33  H    6.946504   6.441802   7.145240   8.663744   9.139984
    34  H    4.837667   4.046374   6.273410   8.476390   8.579593
    35  H    9.110683   9.625557   6.047161   4.983395   6.254020
    36  H    8.267598   9.063387   4.518367   2.634011   4.004147
    37  H    7.983092   8.958447   3.862808   1.084376   2.145983
    38  H    7.216883   8.229454   3.398380   2.154006   1.084511
    39  H    5.071835   5.992961   2.153168   3.392999   2.153528
    40  H    3.877777   5.272444   3.953879   5.427905   4.969752
    41  H    3.402729   4.575978   5.320333   7.345224   6.567492
    42  H    2.157659   2.667216   5.705935   8.277773   7.524924
    43  H    2.156240   1.084356   6.023479   8.793868   8.229440
    44  H    3.396680   2.146621   6.240619   8.873604   8.615862
    45  H    3.316351   4.112278   1.081370   3.850159   3.382198
                   26         27         28         29         30
    26  C    0.000000
    27  C    3.844091   0.000000
    28  C    4.174256   1.394843   0.000000
    29  C    5.383342   2.786406   2.416616   0.000000
    30  C    4.943623   2.414528   1.395416   1.395828   0.000000
    31  H    7.976233   8.089544   9.410192  10.350237  10.459353
    32  H    8.576793   7.956913   9.351044   9.719406  10.150694
    33  H    8.435354   7.198437   8.548293   8.337866   9.052257
    34  H    7.555561   5.807936   6.993387   6.210854   7.164963
    35  H    6.691342   7.547391   8.692165  10.080217   9.892288
    36  H    4.764415   6.400276   7.276909   8.963564   8.520433
    37  H    3.387554   6.092123   6.580228   8.360776   7.720858
    38  H    2.153411   5.703768   5.813523   7.301922   6.638914
    39  H    1.084541   4.177379   4.263329   5.139537   4.749235
    40  H    4.265285   2.150851   1.084174   3.401292   2.156323
    41  H    5.542419   3.397764   2.153284   2.154115   1.084502
    42  H    6.233962   3.870613   3.396257   1.084393   2.148938
    43  H    6.870547   4.565895   4.830116   2.665387   4.055355
    44  H    7.359562   5.259138   6.081523   4.565855   5.794479
    45  H    2.136624   2.568677   3.384651   3.979205   4.002081
                   31         32         33         34         35
    31  H    0.000000
    32  H    2.579242   0.000000
    33  H    4.825124   2.465415   0.000000
    34  H    6.758409   4.841045   2.596410   0.000000
    35  H    2.463337   4.809677   6.643595   7.980985   0.000000
    36  H    4.788941   6.681970   7.924242   8.525748   2.548747
    37  H    7.030054   8.603843   9.394414   9.405229   4.926565
    38  H    8.822473   9.916798  10.165038   9.570106   7.044891
    39  H    8.920309   9.358794   9.010156   7.881227   7.722309
    40  H    9.717079   9.908886   9.317822   7.934480   8.762871
    41  H   11.471168  11.225024  10.132084   8.204676  10.795591
    42  H   11.298645  10.530055   8.982395   6.687307  11.104496
    43  H   10.385891   9.143450   7.239184   4.723993  10.692137
    44  H    8.812706   7.167681   5.016440   2.421967   9.612333
    45  H    7.324591   7.317834   6.712793   5.515638   6.683135
                   36         37         38         39         40
    36  H    0.000000
    37  H    2.412820   0.000000
    38  H    4.687146   2.470697   0.000000
    39  H    5.814004   4.280597   2.482037   0.000000
    40  H    7.151337   6.291154   5.563424   4.416142   0.000000
    41  H    9.282107   8.286206   7.020862   5.228514   2.484850
    42  H   10.000255   9.328799   8.111790   5.854584   4.293655
    43  H   10.094224   9.877997   8.970342   6.631251   5.898607
    44  H    9.587674   9.914710   9.501904   7.384924   7.144510
    45  H    5.434369   4.928778   4.276614   2.459640   3.981103
                   41         42         43         44         45
    41  H    0.000000
    42  H    2.473862   0.000000
    43  H    4.748778   2.446196   0.000000
    44  H    6.708321   4.737638   2.461347   0.000000
    45  H    4.899112   4.872827   4.989372   5.245958   0.000000
 Stoichiometry    C30H15(2)
 Framework group  C1[X(C30H15)]
 Deg. of freedom   129
 Full point group                 C1      NOp   1
 Largest Abelian subgroup         C1      NOp   1
 Largest concise Abelian subgroup C1      NOp   1
                         Standard orientation:                         
 ---------------------------------------------------------------------
 Center     Atomic      Atomic             Coordinates (Angstroms)
 Number     Number       Type             X           Y           Z
 ---------------------------------------------------------------------
      1          6           0       -1.338495    2.861371    0.104000
      2          6           0       -2.665908    2.581577   -0.244420
      3          6           0       -3.025692    1.266694   -0.542451
      4          6           0       -1.991530    0.377549   -0.803631
      5          6           0       -0.652191    0.641908   -0.519208
      6          6           0       -0.370039    1.848276    0.131832
      7          6           0       -0.018639   -0.697451   -0.375183
      8          6           0       -2.232675   -0.986886   -0.744460
      9          6           0       -1.040665   -1.630718   -0.466909
     10          6           0       -4.317649    0.752988   -0.377189
     11          6           0       -3.445977   -1.512425   -0.322321
     12          6           0       -4.526094   -0.627351   -0.242689
     13          6           0       -1.003531   -2.853950    0.183682
     14          6           0       -3.437995   -2.813704    0.194510
     15          6           0       -2.228100   -3.480315    0.443155
     16          6           0        1.257735   -1.144171   -0.030376
     17          6           0        1.365694   -2.435853    0.503418
     18          6           0        0.242017   -3.259917    0.670005
     19          6           0        2.406702   -0.430449   -0.378717
     20          6           0        2.622882   -2.898880    0.898591
     21          6           0        3.663075   -0.907186   -0.000177
     22          6           0        3.762804   -2.124768    0.675890
     23          6           0        0.776964    2.037050    0.907260
     24          6           0       -1.024175    4.131632    0.593358
     25          6           0        0.205657    4.363552    1.209607
     26          6           0        1.082981    3.299464    1.416434
     27          6           0        2.309836    0.722939   -1.159101
     28          6           0        3.454213    1.452840   -1.480400
     29          6           0        4.809831   -0.176079   -0.318953
     30          6           0        4.704790    1.009192   -1.048634
     31          1           0       -5.501180   -0.993148    0.059008
     32          1           0       -4.367713   -3.262432    0.526013
     33          1           0       -2.242857   -4.438542    0.950304
     34          1           0        0.334181   -4.215006    1.174479
     35          1           0       -5.140402    1.431679   -0.181989
     36          1           0       -3.437979    3.326097   -0.086848
     37          1           0       -1.751600    4.934023    0.539569
     38          1           0        0.437165    5.344647    1.609634
     39          1           0        1.990336    3.446757    1.991967
     40          1           0        3.367557    2.363841   -2.061780
     41          1           0        5.596372    1.573877   -1.298351
     42          1           0        5.787810   -0.531965   -0.014304
     43          1           0        4.733159   -2.504547    0.975899
     44          1           0        2.724817   -3.874409    1.360959
     45          1           0        1.395377    1.197548    1.193899
 ---------------------------------------------------------------------
 Rotational constants (GHZ):           0.2451686           0.1755008           0.1108499
 Standard basis: 6-311+G(d,p) (5D, 7F)
 There are   780 symmetry adapted cartesian basis functions of A   symmetry.
 There are   750 symmetry adapted basis functions of A   symmetry.
   750 basis functions,  1200 primitive gaussians,   780 cartesian basis functions
    98 alpha electrons       97 beta electrons
       nuclear repulsion energy      2625.6796995899 Hartrees.
 NAtoms=   45 NActive=   45 NUniq=   45 SFac= 1.00D+00 NAtFMM=   60 NAOKFM=F Big=F
 Integral buffers will be    131072 words long.
 Raffenetti 2 integral format.
 Two-electron integral symmetry is turned on.
 One-electron integrals computed using PRISM.
 NBasis=   750 RedAO= T EigKep=  1.09D-06  NBF=   750
 NBsUse=   732 1.00D-06 EigRej=  8.06D-07 NBFU=   732
 ExpMin= 4.38D-02 ExpMax= 4.56D+03 ExpMxC= 6.82D+02 IAcc=2 IRadAn=         4 AccDes= 0.00D+00
 Harris functional with IExCor=  402 and IRadAn=       4 diagonalized for initial guess.
 HarFok:  IExCor=  402 AccDes= 0.00D+00 IRadAn=         4 IDoV= 1 UseB2=F ITyADJ=14
 ICtDFT=  3500011 ScaDFX=  1.000000  1.000000  1.000000  1.000000
 FoFCou: FMM=F IPFlag=           0 FMFlag=      100000 FMFlg1=           0
         NFxFlg=           0 DoJE=T BraDBF=F KetDBF=T FulRan=T
         wScrn=  0.000000 ICntrl=       500 IOpCl=  0 I1Cent=   200000004 NGrid=           0
         NMat0=    1 NMatS0=      1 NMatT0=    0 NMatD0=    1 NMtDS0=    0 NMtDT0=    0
 Petite list used in FoFCou.
 Initial guess <Sx>= 0.0000 <Sy>= 0.0000 <Sz>= 0.5000 <S**2>= 0.7500 S= 0.5000
 Requested convergence on RMS density matrix=1.00D-08 within 128 cycles.
 Requested convergence on MAX density matrix=1.00D-06.
 Requested convergence on             energy=1.00D-06.
 No special actions if energy rises.
 Restarting incremental Fock formation.
 SCF Done:  E(UB3LYP) =  -1152.39147115     A.U. after   27 cycles
            NFock= 27  Conv=0.90D-08     -V/T= 2.0032
 <Sx>= 0.0000 <Sy>= 0.0000 <Sz>= 0.5000 <S**2>= 0.7607 S= 0.5053
 <L.S>=  0.00000000000    
 Annihilation of the first spin contaminant:
 S**2 before annihilation     0.7607,   after     0.7501

 **********************************************************************

            Population analysis using the SCF density.

 **********************************************************************

 Orbital symmetries:
 Alpha Orbitals:
       Occupied  (A) (A) (A) (A) (A) (A) (A) (A) (A) (A) (A) (A)
                 (A) (A) (A) (A) (A) (A) (A) (A) (A) (A) (A) (A)
                 (A) (A) (A) (A) (A) (A) (A) (A) (A) (A) (A) (A)
                 (A) (A) (A) (A) (A) (A) (A) (A) (A) (A) (A) (A)
                 (A) (A) (A) (A) (A) (A) (A) (A) (A) (A) (A) (A)
                 (A) (A) (A) (A) (A) (A) (A) (A) (A) (A) (A) (A)
                 (A) (A) (A) (A) (A) (A) (A) (A) (A) (A) (A) (A)
                 (A) (A) (A) (A) (A) (A) (A) (A) (A) (A) (A) (A)
                 (A) (A)
       Virtual   (A) (A) (A) (A) (A) (A) (A) (A) (A) (A) (A) (A)
                 (A) (A) (A) (A) (A) (A) (A) (A) (A) (A) (A) (A)
                 (A) (A) (A) (A) (A) (A) (A) (A) (A) (A) (A) (A)
                 (A) (A) (A) (A) (A) (A) (A) (A) (A) (A) (A) (A)
                 (A) (A) (A) (A) (A) (A) (A) (A) (A) (A) (A) (A)
                 (A) (A) (A) (A) (A) (A) (A) (A) (A) (A) (A) (A)
                 (A) (A) (A) (A) (A) (A) (A) (A) (A) (A) (A) (A)
                 (A) (A) (A) (A) (A) (A) (A) (A) (A) (A) (A) (A)
                 (A) (A) (A) (A) (A) (A) (A) (A) (A) (A) (A) (A)
                 (A) (A) (A) (A) (A) (A) (A) (A) (A) (A) (A) (A)
                 (A) (A) (A) (A) (A) (A) (A) (A) (A) (A) (A) (A)
                 (A) (A) (A) (A) (A) (A) (A) (A) (A) (A) (A) (A)
                 (A) (A) (A) (A) (A) (A) (A) (A) (A) (A) (A) (A)
                 (A) (A) (A) (A) (A) (A) (A) (A) (A) (A) (A) (A)
                 (A) (A) (A) (A) (A) (A) (A) (A) (A) (A) (A) (A)
                 (A) (A) (A) (A) (A) (A) (A) (A) (A) (A) (A) (A)
                 (A) (A) (A) (A) (A) (A) (A) (A) (A) (A) (A) (A)
                 (A) (A) (A) (A) (A) (A) (A) (A) (A) (A) (A) (A)
                 (A) (A) (A) (A) (A) (A) (A) (A) (A) (A) (A) (A)
                 (A) (A) (A) (A) (A) (A) (A) (A) (A) (A) (A) (A)
                 (A) (A) (A) (A) (A) (A) (A) (A) (A) (A) (A) (A)
                 (A) (A) (A) (A) (A) (A) (A) (A) (A) (A) (A) (A)
                 (A) (A) (A) (A) (A) (A) (A) (A) (A) (A) (A) (A)
                 (A) (A) (A) (A) (A) (A) (A) (A) (A) (A) (A) (A)
                 (A) (A) (A) (A) (A) (A) (A) (A) (A) (A) (A) (A)
                 (A) (A) (A) (A) (A) (A) (A) (A) (A) (A) (A) (A)
                 (A) (A) (A) (A) (A) (A) (A) (A) (A) (A) (A) (A)
                 (A) (A) (A) (A) (A) (A) (A) (A) (A) (A) (A) (A)
                 (A) (A) (A) (A) (A) (A) (A) (A) (A) (A) (A) (A)
                 (A) (A) (A) (A) (A) (A) (A) (A) (A) (A) (A) (A)
                 (A) (A) (A) (A) (A) (A) (A) (A) (A) (A) (A) (A)
                 (A) (A) (A) (A) (A) (A) (A) (A) (A) (A) (A) (A)
                 (A) (A) (A) (A) (A) (A) (A) (A) (A) (A) (A) (A)
                 (A) (A) (A) (A) (A) (A) (A) (A) (A) (A) (A) (A)
                 (A) (A) (A) (A) (A) (A) (A) (A) (A) (A) (A) (A)
                 (A) (A) (A) (A) (A) (A) (A) (A) (A) (A) (A) (A)
                 (A) (A) (A) (A) (A) (A) (A) (A) (A) (A) (A) (A)
                 (A) (A) (A) (A) (A) (A) (A) (A) (A) (A) (A) (A)
                 (A) (A) (A) (A) (A) (A) (A) (A) (A) (A) (A) (A)
                 (A) (A) (A) (A) (A) (A) (A) (A) (A) (A) (A) (A)
                 (A) (A) (A) (A) (A) (A) (A) (A) (A) (A) (A) (A)
                 (A) (A) (A) (A) (A) (A) (A) (A) (A) (A) (A) (A)
                 (A) (A) (A) (A) (A) (A) (A) (A) (A) (A) (A) (A)
                 (A) (A) (A) (A) (A) (A) (A) (A) (A) (A) (A) (A)
                 (A) (A) (A) (A) (A) (A) (A) (A) (A) (A) (A) (A)
                 (A) (A) (A) (A) (A) (A) (A) (A) (A) (A) (A) (A)
                 (A) (A) (A) (A) (A) (A) (A) (A) (A) (A) (A) (A)
                 (A) (A) (A) (A) (A) (A) (A) (A) (A) (A) (A) (A)
                 (A) (A) (A) (A) (A) (A) (A) (A) (A) (A) (A) (A)
                 (A) (A) (A) (A) (A) (A) (A) (A) (A) (A) (A) (A)
                 (A) (A) (A) (A) (A) (A) (A) (A) (A) (A) (A) (A)
                 (A) (A) (A) (A) (A) (A) (A) (A) (A) (A) (A) (A)
                 (A) (A) (A) (A) (A) (A) (A) (A) (A) (A)
 Beta  Orbitals:
       Occupied  (A) (A) (A) (A) (A) (A) (A) (A) (A) (A) (A) (A)
                 (A) (A) (A) (A) (A) (A) (A) (A) (A) (A) (A) (A)
                 (A) (A) (A) (A) (A) (A) (A) (A) (A) (A) (A) (A)
                 (A) (A) (A) (A) (A) (A) (A) (A) (A) (A) (A) (A)
                 (A) (A) (A) (A) (A) (A) (A) (A) (A) (A) (A) (A)
                 (A) (A) (A) (A) (A) (A) (A) (A) (A) (A) (A) (A)
                 (A) (A) (A) (A) (A) (A) (A) (A) (A) (A) (A) (A)
                 (A) (A) (A) (A) (A) (A) (A) (A) (A) (A) (A) (A)
                 (A)
       Virtual   (A) (A) (A) (A) (A) (A) (A) (A) (A) (A) (A) (A)
                 (A) (A) (A) (A) (A) (A) (A) (A) (A) (A) (A) (A)
                 (A) (A) (A) (A) (A) (A) (A) (A) (A) (A) (A) (A)
                 (A) (A) (A) (A) (A) (A) (A) (A) (A) (A) (A) (A)
                 (A) (A) (A) (A) (A) (A) (A) (A) (A) (A) (A) (A)
                 (A) (A) (A) (A) (A) (A) (A) (A) (A) (A) (A) (A)
                 (A) (A) (A) (A) (A) (A) (A) (A) (A) (A) (A) (A)
                 (A) (A) (A) (A) (A) (A) (A) (A) (A) (A) (A) (A)
                 (A) (A) (A) (A) (A) (A) (A) (A) (A) (A) (A) (A)
                 (A) (A) (A) (A) (A) (A) (A) (A) (A) (A) (A) (A)
                 (A) (A) (A) (A) (A) (A) (A) (A) (A) (A) (A) (A)
                 (A) (A) (A) (A) (A) (A) (A) (A) (A) (A) (A) (A)
                 (A) (A) (A) (A) (A) (A) (A) (A) (A) (A) (A) (A)
                 (A) (A) (A) (A) (A) (A) (A) (A) (A) (A) (A) (A)
                 (A) (A) (A) (A) (A) (A) (A) (A) (A) (A) (A) (A)
                 (A) (A) (A) (A) (A) (A) (A) (A) (A) (A) (A) (A)
                 (A) (A) (A) (A) (A) (A) (A) (A) (A) (A) (A) (A)
                 (A) (A) (A) (A) (A) (A) (A) (A) (A) (A) (A) (A)
                 (A) (A) (A) (A) (A) (A) (A) (A) (A) (A) (A) (A)
                 (A) (A) (A) (A) (A) (A) (A) (A) (A) (A) (A) (A)
                 (A) (A) (A) (A) (A) (A) (A) (A) (A) (A) (A) (A)
                 (A) (A) (A) (A) (A) (A) (A) (A) (A) (A) (A) (A)
                 (A) (A) (A) (A) (A) (A) (A) (A) (A) (A) (A) (A)
                 (A) (A) (A) (A) (A) (A) (A) (A) (A) (A) (A) (A)
                 (A) (A) (A) (A) (A) (A) (A) (A) (A) (A) (A) (A)
                 (A) (A) (A) (A) (A) (A) (A) (A) (A) (A) (A) (A)
                 (A) (A) (A) (A) (A) (A) (A) (A) (A) (A) (A) (A)
                 (A) (A) (A) (A) (A) (A) (A) (A) (A) (A) (A) (A)
                 (A) (A) (A) (A) (A) (A) (A) (A) (A) (A) (A) (A)
                 (A) (A) (A) (A) (A) (A) (A) (A) (A) (A) (A) (A)
                 (A) (A) (A) (A) (A) (A) (A) (A) (A) (A) (A) (A)
                 (A) (A) (A) (A) (A) (A) (A) (A) (A) (A) (A) (A)
                 (A) (A) (A) (A) (A) (A) (A) (A) (A) (A) (A) (A)
                 (A) (A) (A) (A) (A) (A) (A) (A) (A) (A) (A) (A)
                 (A) (A) (A) (A) (A) (A) (A) (A) (A) (A) (A) (A)
                 (A) (A) (A) (A) (A) (A) (A) (A) (A) (A) (A) (A)
                 (A) (A) (A) (A) (A) (A) (A) (A) (A) (A) (A) (A)
                 (A) (A) (A) (A) (A) (A) (A) (A) (A) (A) (A) (A)
                 (A) (A) (A) (A) (A) (A) (A) (A) (A) (A) (A) (A)
                 (A) (A) (A) (A) (A) (A) (A) (A) (A) (A) (A) (A)
                 (A) (A) (A) (A) (A) (A) (A) (A) (A) (A) (A) (A)
                 (A) (A) (A) (A) (A) (A) (A) (A) (A) (A) (A) (A)
                 (A) (A) (A) (A) (A) (A) (A) (A) (A) (A) (A) (A)
                 (A) (A) (A) (A) (A) (A) (A) (A) (A) (A) (A) (A)
                 (A) (A) (A) (A) (A) (A) (A) (A) (A) (A) (A) (A)
                 (A) (A) (A) (A) (A) (A) (A) (A) (A) (A) (A) (A)
                 (A) (A) (A) (A) (A) (A) (A) (A) (A) (A) (A) (A)
                 (A) (A) (A) (A) (A) (A) (A) (A) (A) (A) (A) (A)
                 (A) (A) (A) (A) (A) (A) (A) (A) (A) (A) (A) (A)
                 (A) (A) (A) (A) (A) (A) (A) (A) (A) (A) (A) (A)
                 (A) (A) (A) (A) (A) (A) (A) (A) (A) (A) (A) (A)
                 (A) (A) (A) (A) (A) (A) (A) (A) (A) (A) (A) (A)
                 (A) (A) (A) (A) (A) (A) (A) (A) (A) (A) (A)
 The electronic state is 2-A.
 Alpha  occ. eigenvalues --  -10.20661 -10.18955 -10.18911 -10.18904 -10.18890
 Alpha  occ. eigenvalues --  -10.18829 -10.18828 -10.18763 -10.18749 -10.18689
 Alpha  occ. eigenvalues --  -10.18677 -10.18668 -10.18651 -10.18558 -10.18495
 Alpha  occ. eigenvalues --  -10.18455 -10.18423 -10.18403 -10.18396 -10.18323
 Alpha  occ. eigenvalues --  -10.18219 -10.18192 -10.18104 -10.18057 -10.18002
 Alpha  occ. eigenvalues --  -10.17822 -10.17479 -10.16765 -10.16705 -10.16346
 Alpha  occ. eigenvalues --   -0.93309  -0.90325  -0.88704  -0.86418  -0.84464
 Alpha  occ. eigenvalues --   -0.83895  -0.81110  -0.79934  -0.78513  -0.77386
 Alpha  occ. eigenvalues --   -0.76137  -0.74711  -0.72589  -0.71470  -0.71172
 Alpha  occ. eigenvalues --   -0.67517  -0.65132  -0.64113  -0.63489  -0.62586
 Alpha  occ. eigenvalues --   -0.60955  -0.59839  -0.59181  -0.56649  -0.55710
 Alpha  occ. eigenvalues --   -0.53718  -0.52727  -0.51471  -0.51121  -0.49964
 Alpha  occ. eigenvalues --   -0.48759  -0.48111  -0.47454  -0.46428  -0.45986
 Alpha  occ. eigenvalues --   -0.44954  -0.44373  -0.43966  -0.43608  -0.43061
 Alpha  occ. eigenvalues --   -0.42618  -0.41574  -0.41293  -0.40819  -0.40635
 Alpha  occ. eigenvalues --   -0.40269  -0.40036  -0.39510  -0.39442  -0.37343
 Alpha  occ. eigenvalues --   -0.37042  -0.35997  -0.35395  -0.35072  -0.34363
 Alpha  occ. eigenvalues --   -0.33886  -0.33679  -0.33550  -0.31398  -0.29877
 Alpha  occ. eigenvalues --   -0.28163  -0.27950  -0.26136  -0.25415  -0.24467
 Alpha  occ. eigenvalues --   -0.21998  -0.20902  -0.20107
 Alpha virt. eigenvalues --   -0.10330  -0.05836  -0.05481  -0.02828  -0.01551
 Alpha virt. eigenvalues --   -0.00186   0.00053   0.00338   0.00536   0.00635
 Alpha virt. eigenvalues --    0.00838   0.01550   0.01721   0.02522   0.02617
 Alpha virt. eigenvalues --    0.03197   0.03357   0.03598   0.03825   0.04404
 Alpha virt. eigenvalues --    0.04727   0.05113   0.05447   0.05668   0.06112
 Alpha virt. eigenvalues --    0.06558   0.06822   0.06980   0.07408   0.07487
 Alpha virt. eigenvalues --    0.08125   0.08343   0.08751   0.08993   0.09290
 Alpha virt. eigenvalues --    0.10065   0.10227   0.10392   0.10621   0.11090
 Alpha virt. eigenvalues --    0.11237   0.11686   0.12135   0.12344   0.12522
 Alpha virt. eigenvalues --    0.13178   0.13409   0.13906   0.14113   0.14420
 Alpha virt. eigenvalues --    0.14930   0.15136   0.15208   0.15479   0.16074
 Alpha virt. eigenvalues --    0.16184   0.16549   0.16611   0.16671   0.16890
 Alpha virt. eigenvalues --    0.17130   0.17527   0.17587   0.17933   0.17975
 Alpha virt. eigenvalues --    0.18195   0.18274   0.18721   0.18873   0.19040
 Alpha virt. eigenvalues --    0.19327   0.19590   0.19772   0.20003   0.20260
 Alpha virt. eigenvalues --    0.20401   0.20481   0.20782   0.20898   0.21154
 Alpha virt. eigenvalues --    0.21463   0.21559   0.21836   0.22060   0.22312
 Alpha virt. eigenvalues --    0.22399   0.22724   0.22930   0.23371   0.23525
 Alpha virt. eigenvalues --    0.23819   0.23947   0.24069   0.24308   0.24758
 Alpha virt. eigenvalues --    0.24877   0.25042   0.25330   0.25483   0.25896
 Alpha virt. eigenvalues --    0.26076   0.26201   0.26581   0.26851   0.27082
 Alpha virt. eigenvalues --    0.27152   0.27514   0.27580   0.28199   0.28303
 Alpha virt. eigenvalues --    0.28528   0.28744   0.28878   0.29486   0.29664
 Alpha virt. eigenvalues --    0.29991   0.30057   0.30352   0.30604   0.30833
 Alpha virt. eigenvalues --    0.30991   0.31173   0.31416   0.31734   0.31869
 Alpha virt. eigenvalues --    0.31964   0.32830   0.33056   0.33318   0.33403
 Alpha virt. eigenvalues --    0.33807   0.34005   0.34410   0.34548   0.35099
 Alpha virt. eigenvalues --    0.35226   0.35521   0.36108   0.36663   0.37218
 Alpha virt. eigenvalues --    0.37288   0.37413   0.37913   0.38215   0.38460
 Alpha virt. eigenvalues --    0.38889   0.39196   0.40191   0.40495   0.41399
 Alpha virt. eigenvalues --    0.41796   0.42190   0.43898   0.44767   0.45201
 Alpha virt. eigenvalues --    0.45632   0.46544   0.47267   0.47958   0.48829
 Alpha virt. eigenvalues --    0.49722   0.50212   0.50857   0.51684   0.52262
 Alpha virt. eigenvalues --    0.52765   0.52965   0.53468   0.54148   0.54367
 Alpha virt. eigenvalues --    0.54711   0.54820   0.55385   0.55813   0.56470
 Alpha virt. eigenvalues --    0.57081   0.57143   0.57460   0.57802   0.58241
 Alpha virt. eigenvalues --    0.58520   0.58865   0.59249   0.59691   0.60240
 Alpha virt. eigenvalues --    0.60505   0.60758   0.61103   0.61666   0.61809
 Alpha virt. eigenvalues --    0.62143   0.62294   0.62591   0.63016   0.63501
 Alpha virt. eigenvalues --    0.64180   0.64572   0.64952   0.65301   0.66185
 Alpha virt. eigenvalues --    0.66307   0.66692   0.67138   0.67634   0.67891
 Alpha virt. eigenvalues --    0.68628   0.69104   0.69786   0.70229   0.70356
 Alpha virt. eigenvalues --    0.70914   0.71358   0.71588   0.72190   0.72524
 Alpha virt. eigenvalues --    0.72645   0.72890   0.73418   0.73666   0.73811
 Alpha virt. eigenvalues --    0.74304   0.74504   0.74759   0.75175   0.75351
 Alpha virt. eigenvalues --    0.75588   0.75899   0.76562   0.76841   0.77181
 Alpha virt. eigenvalues --    0.77424   0.77696   0.77897   0.78784   0.78887
 Alpha virt. eigenvalues --    0.79676   0.79863   0.80474   0.80526   0.81087
 Alpha virt. eigenvalues --    0.81318   0.81775   0.82416   0.82736   0.83597
 Alpha virt. eigenvalues --    0.83862   0.84449   0.85114   0.85620   0.85874
 Alpha virt. eigenvalues --    0.86515   0.86662   0.87186   0.87873   0.88439
 Alpha virt. eigenvalues --    0.89263   0.89354   0.89796   0.90830   0.91183
 Alpha virt. eigenvalues --    0.91585   0.91869   0.92247   0.92825   0.93265
 Alpha virt. eigenvalues --    0.93776   0.94315   0.94429   0.95342   0.95638
 Alpha virt. eigenvalues --    0.95951   0.96876   0.97109   0.97586   0.97816
 Alpha virt. eigenvalues --    0.98176   0.98626   0.99709   1.00504   1.00831
 Alpha virt. eigenvalues --    1.01285   1.02478   1.02749   1.02924   1.04101
 Alpha virt. eigenvalues --    1.04717   1.05904   1.05999   1.06478   1.07056
 Alpha virt. eigenvalues --    1.07744   1.08503   1.09733   1.10180   1.10439
 Alpha virt. eigenvalues --    1.10727   1.11524   1.12067   1.12266   1.14022
 Alpha virt. eigenvalues --    1.14256   1.14544   1.15545   1.16284   1.17082
 Alpha virt. eigenvalues --    1.17838   1.18103   1.19588   1.20745   1.20867
 Alpha virt. eigenvalues --    1.23276   1.24394   1.25357   1.27208   1.27582
 Alpha virt. eigenvalues --    1.29019   1.29747   1.30585   1.31563   1.32108
 Alpha virt. eigenvalues --    1.34368   1.34656   1.36101   1.37203   1.38186
 Alpha virt. eigenvalues --    1.40031   1.41246   1.44756   1.45965   1.46610
 Alpha virt. eigenvalues --    1.47404   1.48053   1.48486   1.48982   1.49516
 Alpha virt. eigenvalues --    1.50488   1.50698   1.51350   1.51913   1.52662
 Alpha virt. eigenvalues --    1.53000   1.53199   1.54178   1.54831   1.55243
 Alpha virt. eigenvalues --    1.56393   1.56626   1.57307   1.57656   1.57978
 Alpha virt. eigenvalues --    1.58637   1.59366   1.59821   1.60374   1.61099
 Alpha virt. eigenvalues --    1.62083   1.62978   1.63687   1.63978   1.64485
 Alpha virt. eigenvalues --    1.65382   1.65448   1.66330   1.67137   1.68331
 Alpha virt. eigenvalues --    1.68797   1.69428   1.70247   1.70692   1.71964
 Alpha virt. eigenvalues --    1.72218   1.72679   1.73811   1.74501   1.74755
 Alpha virt. eigenvalues --    1.75376   1.75933   1.76984   1.77464   1.78241
 Alpha virt. eigenvalues --    1.78361   1.79362   1.80026   1.80565   1.81943
 Alpha virt. eigenvalues --    1.82816   1.83502   1.84247   1.85430   1.86266
 Alpha virt. eigenvalues --    1.86660   1.86703   1.87600   1.88405   1.89006
 Alpha virt. eigenvalues --    1.89351   1.90468   1.90741   1.91800   1.92161
 Alpha virt. eigenvalues --    1.92858   1.93430   1.94039   1.94601   1.94816
 Alpha virt. eigenvalues --    1.95513   1.95854   1.96166   1.97085   1.97616
 Alpha virt. eigenvalues --    1.98015   1.98940   2.00165   2.00671   2.01061
 Alpha virt. eigenvalues --    2.01251   2.02122   2.02568   2.03021   2.04219
 Alpha virt. eigenvalues --    2.04805   2.05670   2.06063   2.06851   2.08320
 Alpha virt. eigenvalues --    2.09423   2.10096   2.11032   2.12482   2.14199
 Alpha virt. eigenvalues --    2.14754   2.15114   2.15313   2.15950   2.17275
 Alpha virt. eigenvalues --    2.17822   2.19566   2.20522   2.21093   2.21974
 Alpha virt. eigenvalues --    2.22819   2.24040   2.25387   2.26108   2.26169
 Alpha virt. eigenvalues --    2.26895   2.28470   2.30421   2.31331   2.35120
 Alpha virt. eigenvalues --    2.36464   2.36856   2.37460   2.38647   2.39065
 Alpha virt. eigenvalues --    2.39669   2.41992   2.42376   2.43945   2.44051
 Alpha virt. eigenvalues --    2.45355   2.45957   2.46392   2.49147   2.50379
 Alpha virt. eigenvalues --    2.52268   2.52618   2.54997   2.55673   2.56136
 Alpha virt. eigenvalues --    2.57145   2.58875   2.59435   2.62527   2.64019
 Alpha virt. eigenvalues --    2.64110   2.65865   2.67373   2.69450   2.69913
 Alpha virt. eigenvalues --    2.70221   2.70556   2.71848   2.72105   2.72340
 Alpha virt. eigenvalues --    2.72665   2.72876   2.73513   2.74040   2.74814
 Alpha virt. eigenvalues --    2.75287   2.75650   2.76046   2.76230   2.76491
 Alpha virt. eigenvalues --    2.77258   2.77330   2.77604   2.78543   2.78695
 Alpha virt. eigenvalues --    2.79123   2.80154   2.80945   2.81545   2.82391
 Alpha virt. eigenvalues --    2.83153   2.83693   2.84964   2.85748   2.85926
 Alpha virt. eigenvalues --    2.87556   2.88189   2.89118   2.89473   2.89717
 Alpha virt. eigenvalues --    2.90765   2.92155   2.92342   2.93549   2.94391
 Alpha virt. eigenvalues --    2.95688   2.96003   2.96914   2.97568   2.98969
 Alpha virt. eigenvalues --    3.01558   3.02618   3.03701   3.06434   3.08121
 Alpha virt. eigenvalues --    3.08769   3.09021   3.12156   3.14036   3.16176
 Alpha virt. eigenvalues --    3.17962   3.19253   3.21156   3.22295   3.23258
 Alpha virt. eigenvalues --    3.23624   3.24087   3.25820   3.26216   3.27490
 Alpha virt. eigenvalues --    3.28863   3.29311   3.33554   3.34975   3.37081
 Alpha virt. eigenvalues --    3.38705   3.39034   3.39454   3.41545   3.42393
 Alpha virt. eigenvalues --    3.42607   3.43551   3.45090   3.46844   3.47392
 Alpha virt. eigenvalues --    3.48930   3.50074   3.51402   3.52744   3.53480
 Alpha virt. eigenvalues --    3.55749   3.57750   3.58841   3.60241   3.64567
 Alpha virt. eigenvalues --    3.65598   3.66121   3.67381   3.71143   3.73814
 Alpha virt. eigenvalues --    3.76727   3.84258   3.87214   3.91071   3.93620
 Alpha virt. eigenvalues --    3.98696   4.03097   4.04872   4.07677   4.08388
 Alpha virt. eigenvalues --    4.09661   4.10905   4.12068   4.14261   4.19288
 Alpha virt. eigenvalues --    4.22291   4.24919   4.26628   4.33152   4.41275
 Alpha virt. eigenvalues --    4.57207   4.62960   4.71664   4.79587   4.82139
 Alpha virt. eigenvalues --    4.83455   4.83807   4.87242   4.95775  23.43560
 Alpha virt. eigenvalues --   23.58328  23.67636  23.80811  23.86636  23.90861
 Alpha virt. eigenvalues --   23.95121  23.96445  23.97869  24.00020  24.01730
 Alpha virt. eigenvalues --   24.03717  24.04508  24.05122  24.05867  24.07403
 Alpha virt. eigenvalues --   24.08812  24.09072  24.09708  24.10513  24.11577
 Alpha virt. eigenvalues --   24.11751  24.12683  24.14190  24.15608  24.16414
 Alpha virt. eigenvalues --   24.18256  24.18539  24.19444  24.24367
  Beta  occ. eigenvalues --  -10.19021 -10.18952 -10.18901 -10.18884 -10.18815
  Beta  occ. eigenvalues --  -10.18800 -10.18785 -10.18758 -10.18727 -10.18686
  Beta  occ. eigenvalues --  -10.18676 -10.18655 -10.18565 -10.18559 -10.18501
  Beta  occ. eigenvalues --  -10.18463 -10.18423 -10.18389 -10.18384 -10.18308
  Beta  occ. eigenvalues --  -10.18227 -10.18191 -10.18124 -10.18097 -10.17998
  Beta  occ. eigenvalues --  -10.17824 -10.17478 -10.16765 -10.16706 -10.16341
  Beta  occ. eigenvalues --   -0.93283  -0.90084  -0.88620  -0.86262  -0.84447
  Beta  occ. eigenvalues --   -0.83702  -0.81047  -0.79604  -0.78390  -0.77331
  Beta  occ. eigenvalues --   -0.76060  -0.74372  -0.72226  -0.71399  -0.71140
  Beta  occ. eigenvalues --   -0.67362  -0.64968  -0.64017  -0.63460  -0.62327
  Beta  occ. eigenvalues --   -0.60515  -0.59699  -0.59103  -0.56463  -0.55518
  Beta  occ. eigenvalues --   -0.53603  -0.52582  -0.51328  -0.50762  -0.49900
  Beta  occ. eigenvalues --   -0.48660  -0.47987  -0.47344  -0.46266  -0.45820
  Beta  occ. eigenvalues --   -0.44917  -0.44293  -0.43891  -0.43503  -0.42970
  Beta  occ. eigenvalues --   -0.42494  -0.41485  -0.41123  -0.40749  -0.40508
  Beta  occ. eigenvalues --   -0.40160  -0.39616  -0.39423  -0.39229  -0.37212
  Beta  occ. eigenvalues --   -0.36964  -0.35765  -0.35270  -0.34970  -0.34336
  Beta  occ. eigenvalues --   -0.33758  -0.33598  -0.33469  -0.31208  -0.29713
  Beta  occ. eigenvalues --   -0.28161  -0.27389  -0.26041  -0.24206  -0.21724
  Beta  occ. eigenvalues --   -0.20971  -0.20080
  Beta virt. eigenvalues --   -0.10378  -0.09836  -0.05571  -0.05427  -0.02682
  Beta virt. eigenvalues --   -0.01487   0.00031   0.00130   0.00420   0.00558
  Beta virt. eigenvalues --    0.00644   0.00920   0.01569   0.01729   0.02539
  Beta virt. eigenvalues --    0.02719   0.03230   0.03374   0.03624   0.03904
  Beta virt. eigenvalues --    0.04420   0.04735   0.05185   0.05491   0.05680
  Beta virt. eigenvalues --    0.06152   0.06569   0.06841   0.07083   0.07428
  Beta virt. eigenvalues --    0.07517   0.08130   0.08366   0.08770   0.09010
  Beta virt. eigenvalues --    0.09322   0.10108   0.10288   0.10448   0.10648
  Beta virt. eigenvalues --    0.11096   0.11273   0.11716   0.12161   0.12428
  Beta virt. eigenvalues --    0.12589   0.13245   0.13421   0.13902   0.14126
  Beta virt. eigenvalues --    0.14422   0.14970   0.15152   0.15211   0.15511
  Beta virt. eigenvalues --    0.16091   0.16236   0.16552   0.16639   0.16683
  Beta virt. eigenvalues --    0.16904   0.17160   0.17542   0.17606   0.17974
  Beta virt. eigenvalues --    0.18024   0.18226   0.18288   0.18740   0.18901
  Beta virt. eigenvalues --    0.19103   0.19358   0.19621   0.19862   0.20028
  Beta virt. eigenvalues --    0.20282   0.20427   0.20557   0.20800   0.20974
  Beta virt. eigenvalues --    0.21201   0.21482   0.21597   0.21872   0.22125
  Beta virt. eigenvalues --    0.22355   0.22514   0.22749   0.22948   0.23410
  Beta virt. eigenvalues --    0.23548   0.23834   0.23989   0.24142   0.24380
  Beta virt. eigenvalues --    0.24809   0.24942   0.25046   0.25386   0.25514
  Beta virt. eigenvalues --    0.25922   0.26093   0.26304   0.26641   0.26877
  Beta virt. eigenvalues --    0.27120   0.27225   0.27545   0.27711   0.28227
  Beta virt. eigenvalues --    0.28390   0.28534   0.28764   0.28885   0.29505
  Beta virt. eigenvalues --    0.29799   0.30083   0.30189   0.30379   0.30681
  Beta virt. eigenvalues --    0.30904   0.31031   0.31300   0.31662   0.31783
  Beta virt. eigenvalues --    0.31904   0.32087   0.32872   0.33096   0.33432
  Beta virt. eigenvalues --    0.33614   0.33828   0.34119   0.34529   0.34715
  Beta virt. eigenvalues --    0.35127   0.35277   0.35565   0.36178   0.36825
  Beta virt. eigenvalues --    0.37271   0.37322   0.37577   0.37957   0.38370
  Beta virt. eigenvalues --    0.38558   0.39101   0.39351   0.40383   0.40796
  Beta virt. eigenvalues --    0.41474   0.41884   0.42218   0.44058   0.44795
  Beta virt. eigenvalues --    0.45272   0.45698   0.46675   0.47418   0.48130
  Beta virt. eigenvalues --    0.48897   0.49778   0.50309   0.50953   0.51718
  Beta virt. eigenvalues --    0.52313   0.52868   0.53068   0.53826   0.54232
  Beta virt. eigenvalues --    0.54457   0.54768   0.54953   0.55474   0.55831
  Beta virt. eigenvalues --    0.56499   0.57153   0.57301   0.57592   0.57857
  Beta virt. eigenvalues --    0.58298   0.58718   0.58915   0.59308   0.59905
  Beta virt. eigenvalues --    0.60260   0.60744   0.60836   0.61260   0.61712
  Beta virt. eigenvalues --    0.61820   0.62207   0.62351   0.62728   0.63092
  Beta virt. eigenvalues --    0.63596   0.64193   0.64685   0.65143   0.65361
  Beta virt. eigenvalues --    0.66192   0.66362   0.67008   0.67450   0.67674
  Beta virt. eigenvalues --    0.68189   0.68874   0.69248   0.69816   0.70306
  Beta virt. eigenvalues --    0.70469   0.70943   0.71397   0.71666   0.72258
  Beta virt. eigenvalues --    0.72569   0.72728   0.72904   0.73482   0.73830
[...]
 .00001465,-0.00000815,-0.00001047,-0.00000225,-0.00000333,0.00001571,0
 .00000270,0.00005957,0.00036221,-0.00011507,0.00014727,0.00015922,0.00
 002134,-0.00001304,-0.00006614,-0.00001149,0.00179569,0.00074202,-0.00
 123661,0.00017655,-0.00032849,0.00009377,0.00341235,0.00187947,-0.0002
 5531,0.00039029,0.00183789,0.00090507,-0.00002017,0.00000774,0.0000189
 5,-0.00000705,0.00000870,0.00000110,0.00000697,-0.00001557,-0.00000134
 ,0.00002213,-0.00001887,0.00001475,-0.00006985,0.00122201,0.00000783,-
 0.00247511,0.00232597,-0.00359525,-0.23110182,-0.13218880,-0.02813223,
 -0.01658663,-0.01794920,-0.00165581,-0.00000024,-0.00000494,-0.0000008
 1,-0.00000059,-0.00000483,-0.00000063,0.00000476,-0.00000291,0.0000007
 4,0.00000763,-0.00000237,-0.00000379,-0.00000396,-0.00000170,-0.000000
 96,-0.00000334,-0.00000076,-0.00000148,-0.00000282,-0.00000226,-0.0000
 0243,-0.00000537,0.00000291,-0.00000333,0.00000328,0.00000156,-0.00001
 235,-0.00084003,-0.00083548,-0.00013380,0.00042892,0.00066371,0.001330
 78,0.24425435,0.00000658,0.00000682,-0.00000105,-0.00000537,-0.0000162
 2,-0.00000410,-0.00001697,0.00000996,-0.00000122,-0.00000670,-0.000018
 42,-0.00000433,0.00005912,0.00002494,0.00001585,-0.00001819,-0.0000245
 9,-0.00000721,0.00030493,-0.00040148,0.00015209,0.00000447,-0.00005810
 ,-0.00002385,-0.00012192,0.00000104,-0.00000393,0.00000383,-0.00000252
 ,0.,0.00001256,-0.00000994,-0.00000132,-0.00000474,-0.00000206,0.00000
 036,-0.00000958,-0.00004944,-0.00000450,-0.00002395,-0.00001851,-0.000
 00440,0.00001295,0.00004013,0.00000468,-0.00154636,-0.00015443,-0.0002
 0939,-0.00014250,0.00008762,0.00001875,0.00011398,0.00006638,0.0000187
 9,0.00121725,-0.00419384,0.00254346,0.00043453,0.00006832,0.00003359,-
 0.02474781,-0.01391403,-0.00348055,-0.00171725,0.00086249,-0.00148786,
 0.00000306,0.00001898,0.00002314,-0.00000083,0.00000027,-0.00000057,-0
 .00000652,0.00000176,-0.00000215,-0.00000330,-0.00000390,0.00000156,0.
 00126670,-0.00088205,0.00038958,0.00216384,0.00105073,0.00223560,-0.13
 184382,-0.15441164,-0.01113601,0.01040468,0.01022150,0.00162497,-0.000
 00217,-0.00000413,0.00000031,-0.00000012,-0.00000288,0.00000011,0.0000
 0452,-0.00000670,0.00000008,0.00001489,-0.00003060,0.00000526,-0.00000
 276,-0.00000177,-0.00000012,-0.00000257,-0.00000097,0.00000095,-0.0000
 0290,-0.00000087,0.00000033,-0.00000354,0.00000129,-0.00000008,-0.0000
 0055,0.00000343,0.00000243,0.00053259,0.00032222,0.00011512,-0.0000097
 7,0.00047222,-0.00127206,0.14252347,0.16100674,0.00001029,0.00000153,-
 0.00001118,-0.00000056,0.00000314,-0.00000015,-0.00000061,-0.00000350,
 -0.00000135,0.00000312,0.00001123,-0.00000890,-0.00003557,-0.00000720,
 0.00002554,-0.00002879,0.00003680,0.00002058,-0.00007284,0.00009308,0.
 00003727,0.00000586,0.00000902,-0.00003393,0.00003792,0.00000207,-0.00
 001667,0.00000078,0.00000323,-0.00000113,-0.00000576,0.00000401,0.0000
 0334,-0.00000194,-0.00000169,0.00000468,0.00001436,0.00002343,-0.00002
 000,0.00000828,0.00000726,-0.00000044,-0.00000600,-0.00000949,-0.00000
 278,0.00032568,0.00026358,0.00010694,0.00011145,-0.00001089,0.00005714
 ,-0.00003349,-0.00003211,0.00003676,-0.00179573,0.00224484,0.00389339,
 -0.00002958,-0.00018909,-0.00012999,0.00688100,0.00598997,0.00337328,0
 .00130687,-0.00047707,-0.00286211,-0.00001473,-0.00002003,0.00009100,-
 0.00001497,0.00000188,-0.00000200,0.00000646,-0.00000486,-0.00000847,0
 .00000204,-0.00002829,0.00000790,0.00054112,0.00001685,-0.00076232,-0.
 00338518,0.00280580,0.00487031,-0.02725627,-0.01178232,-0.03978850,-0.
 01015807,-0.00753926,0.00224319,0.00000049,-0.00000097,0.00000092,-0.0
 0000011,-0.00000164,0.00000172,0.00000091,-0.00000002,0.00000006,-0.00
 000187,0.00000479,0.00001050,-0.00000093,-0.00000027,0.00000083,-0.000
 00133,-0.00000131,0.00000110,-0.00000141,-0.00000292,0.00000222,-0.000
 00258,0.00000017,-0.00000029,0.00000647,-0.00000294,-0.00000321,-0.000
 38103,-0.00034474,-0.00004146,0.00156474,-0.00101607,-0.00356709,0.032
 83693,0.01003839,0.03207969,0.00002091,-0.00000574,-0.00000169,-0.0000
 1256,-0.00000298,0.00000087,-0.00000964,-0.00000465,-0.00000562,0.0000
 1716,-0.00002134,-0.00000711,0.00005438,0.00002517,0.00000576,-0.00002
 387,0.00000416,0.00000617,0.00002705,-0.00017685,0.00021057,-0.0000584
 1,-0.00003409,-0.00000284,-0.00007321,0.00014380,-0.00005775,0.0000003
 9,0.00002971,0.00000318,-0.00002104,0.00000949,-0.00000184,0.00002361,
 -0.00001150,0.00000368,0.00010238,0.00005615,0.00022206,0.00003518,-0.
 00000707,-0.00001058,0.00000817,-0.00001532,0.00002717,0.00013295,0.00
 070677,-0.00003583,0.00139092,0.00150152,-0.00201994,0.00008414,-0.000
 17563,-0.00004097,-0.00244453,0.00294203,-0.00232507,0.00637420,0.0044
 1319,-0.00010467,-0.01783441,-0.01811308,-0.00223542,-0.22344633,-0.13
 401790,-0.02882129,-0.00000523,0.00002054,0.00006897,-0.00002472,0.000
 02090,0.00000246,-0.00000978,-0.00002297,-0.00001421,0.00002064,-0.000
 03514,0.00001285,-0.00107495,-0.00111360,-0.00005342,0.00050930,0.0002
 7600,0.00008426,0.00085279,-0.00179448,0.00125526,-0.00015302,0.000516
 62,-0.00004270,0.00000056,-0.00000346,-0.00000068,0.00000265,-0.000000
 62,-0.00000433,0.00000266,-0.00000428,0.00000051,0.00000353,-0.0000049
 1,-0.00006783,-0.00000322,-0.00000287,0.00000070,-0.00000288,-0.000001
 61,-0.00000069,-0.00000325,-0.00000189,-0.00000082,-0.00000764,0.00000
 176,-0.00000395,0.00000201,0.00000297,-0.00000194,0.00004328,0.0000508
 5,-0.00006439,0.00000659,0.00005539,-0.00001813,0.00037653,0.00115906,
 -0.00031416,0.23453154,-0.00001117,0.00001199,0.00000716,0.00000917,-0
 .00003414,-0.00000884,-0.00003524,0.00003834,0.00000311,-0.00003408,-0
 .00001872,-0.00000172,-0.00000489,-0.00000433,0.00000167,-0.00000767,-
 0.00004504,-0.00001464,-0.00000942,0.00019484,-0.00005864,0.00002288,0
 .00003760,0.00000105,0.00011942,-0.00006251,0.00004358,0.00000848,-0.0
 0004002,-0.00000270,0.00010067,-0.00005440,0.00000479,-0.00003919,0.00
 002536,-0.00000371,0.00009827,-0.00060463,-0.00014210,-0.00008910,-0.0
 0008409,-0.00000889,-0.00012069,0.00011142,-0.00003715,0.00020953,-0.0
 0033480,0.00002440,0.00279812,-0.00388509,0.00209333,-0.00134291,-0.00
 013160,-0.00016335,0.00235803,-0.00015850,0.00124875,-0.02652177,-0.01
 551021,-0.00364370,0.00976396,0.00868837,0.00153860,-0.13260318,-0.161
 22975,-0.01552926,-0.00001639,0.00000400,-0.00001335,0.00001908,-0.000
 00987,-0.00000193,0.00000536,0.00001056,0.00000562,0.00000323,0.000016
 84,0.00000305,0.00047788,0.00032119,0.00005818,-0.00006568,0.00002106,
 0.00000337,0.00127161,0.00087115,-0.00012545,-0.00018400,0.00004806,-0
 .00012011,-0.00000221,-0.00000667,-0.00000002,-0.00001840,-0.00001705,
 0.00000198,0.00001368,-0.00000589,0.00000136,0.00005296,-0.00002148,0.
 00006044,-0.00000522,-0.00000089,-0.00000101,-0.00000405,-0.00000020,0
 .00000044,-0.00000342,-0.00000154,-0.00000115,-0.00000252,0.00000326,0
 .00000136,-0.00000004,0.00000376,-0.00000021,-0.00002972,0.00001352,0.
 00001163,-0.00005100,0.00000492,-0.00002555,-0.00027544,-0.00000234,-0
 .00004790,0.14373631,0.17102010,0.00001165,-0.00000061,-0.00000239,0.0
 0000004,0.00000032,-0.00000179,-0.00003186,-0.00001672,0.00001713,0.00
 003341,0.00005328,0.00002021,-0.00002552,0.00001604,0.00000656,-0.0000
 1828,0.00001574,0.00000696,0.00015932,0.00012060,-0.00047496,0.0000441
 7,0.00003756,-0.00004587,0.00003565,-0.00013140,0.00016419,0.00000476,
 0.00003121,-0.00000112,0.00001429,-0.00004445,-0.00000416,0.00002614,-
 0.00000824,0.00000057,0.00004856,0.00002690,-0.00081111,-0.00003158,-0
 .00000551,0.00005241,0.00004080,0.00003306,-0.00007994,-0.00012035,0.0
 0015505,-0.00066653,-0.00163439,0.00170924,0.00891830,0.00036589,0.000
 25301,0.00026829,-0.00198145,0.00189628,0.00260836,0.00373545,0.002585
 96,0.00486607,-0.00656328,-0.00571321,0.00195921,-0.02866793,-0.014949
 10,-0.04043741,0.00001427,0.00001425,0.00000649,-0.00000986,0.00000458
 ,-0.00000063,-0.00000072,-0.00001063,-0.00000657,0.00000494,-0.0000109
 1,-0.00000014,-0.00028356,-0.00048457,-0.00000971,0.00007308,0.0000922
 1,0.00008181,0.00037736,-0.00096335,-0.00150265,0.00023861,0.00004877,
 -0.00035937,0.00000138,0.00000064,0.00000307,-0.00000173,0.00000127,0.
 00001651,-0.00000028,0.00000006,-0.00000275,-0.00005149,-0.00000038,0.
 00026156,0.00000066,0.00000069,-0.00000478,0.00000076,-0.00000131,0.00
 000190,-0.00000023,-0.00000100,0.00000082,-0.00000102,-0.00000075,-0.0
 0000009,0.00000315,-0.00000414,0.00000090,-0.00004632,0.00006013,0.000
 16337,-0.00000502,0.00002835,0.00003007,0.00001419,0.00037031,0.000226
 96,0.03290208,0.01552589,0.03006149,-0.00000923,0.00001970,0.00000462,
 0.00001039,-0.00000528,-0.00000147,0.00000944,-0.00001378,-0.00001063,
 -0.00015595,0.00006656,0.00000003,-0.00002908,-0.00021080,0.00007230,-
 0.00002400,-0.00006981,-0.00001741,-0.00081180,0.00097782,-0.00011050,
 0.00018363,-0.00006270,-0.00000864,0.00021416,0.00001312,0.00003383,-0
 .00001202,-0.00004716,-0.00000557,0.00005245,-0.00007799,-0.00000280,-
 0.00003239,0.00001901,-0.00000017,0.00009596,-0.00060032,0.00009661,-0
 .00014168,-0.00001793,-0.00002232,-0.00001231,0.00015118,-0.00001895,-
 0.00084766,-0.00416863,-0.00083214,-0.01887547,0.00988248,-0.00559370,
 0.00061424,0.00249065,0.00066244,0.00024906,-0.00022935,0.00028030,-0.
 27769912,0.09206695,-0.06347234,0.00216249,-0.00005317,-0.00155451,0.0
 0027721,-0.00113291,-0.00090319,-0.00001277,0.00000878,0.00001210,-0.0
 0000100,-0.00000328,-0.00000306,-0.00000490,-0.00000044,-0.00000072,0.
 00001217,0.00000657,0.00000529,0.00003265,0.00001707,0.00016035,0.0000
 6234,0.00004092,-0.00003578,-0.00022957,-0.00012315,-0.00007618,-0.000
 03375,0.00020111,0.00009077,-0.00000487,-0.00000861,-0.00000205,-0.000
 00100,-0.00000988,0.00000373,0.00001079,-0.00002832,-0.00000397,0.0006
 8147,-0.00104248,-0.00003523,-0.00000435,-0.00000503,-0.00000058,-0.00
 000537,-0.00000160,0.00000007,-0.00000621,-0.00000007,-0.00000115,-0.0
 0000474,0.00000327,-0.00000019,-0.00000112,0.00000585,0.00000083,-0.00
 000671,0.00000834,-0.00001256,-0.00002680,0.00000769,-0.00000068,0.000
 01764,0.00000274,-0.00003367,0.00059802,0.00039764,0.00132849,0.293701
 82,-0.00001002,0.00000402,-0.00000262,-0.00000703,0.00001546,0.0000023
 4,0.00002408,-0.00003398,-0.00002485,-0.00011093,0.00001650,-0.0000002
 5,-0.00005416,-0.00018474,0.00009878,0.00000806,-0.00003209,-0.0000141
 3,-0.00086472,0.00045086,-0.00003935,0.00006470,-0.00003372,0.00002552
 ,-0.00018989,0.00010576,-0.00005225,-0.00001858,0.00001580,-0.00000057
 ,-0.00006622,0.00001234,-0.00000867,0.00002876,-0.00001271,0.00000224,
 0.00037058,0.00017762,0.00003774,0.00004498,0.00003053,0.00000889,-0.0
 0000612,-0.00007301,-0.00000268,-0.00235380,-0.00248368,-0.00005763,-0
 .01763466,0.00874118,-0.00454169,-0.00203722,0.00063731,-0.00060326,-0
 .00020662,-0.00047085,-0.00012950,0.09129758,-0.09507047,0.02541536,-0
 .00140277,-0.00536003,0.00129125,0.03009428,-0.00776252,0.00815199,-0.
 00000067,-0.00000393,-0.00001848,-0.00000141,-0.00000357,-0.00000120,-
 0.00000476,0.00000135,0.00000186,0.00000396,0.00001130,-0.00000583,0.0
 0002217,0.00020029,-0.00005599,-0.00013168,-0.00010896,-0.00001250,0.0
 0138343,0.00036543,0.00039954,0.00007476,-0.00051592,0.00013294,-0.000
 00097,0.00000160,0.00000038,0.00000853,0.00000606,0.00000082,-0.000009
 33,-0.00001571,-0.00000447,0.00014068,-0.00043981,0.00007395,0.0000022
 7,-0.00000249,0.00000067,0.00000019,0.00000029,0.00000318,-0.00000012,
 0.00000262,0.00000016,0.00000264,-0.00000131,0.00000147,-0.00000400,0.
 00000048,0.00000304,0.00001314,0.00000295,0.00000201,0.00013936,-0.000
 06580,0.00005753,-0.00005292,-0.00003595,-0.00000895,-0.00009035,0.000
 81392,-0.00073431,-0.09846872,0.10110122,-0.00000287,0.00000034,-0.000
 00070,-0.00000473,-0.00000480,-0.00000620,0.00000580,-0.00000145,-0.00
 000334,-0.00003543,-0.00001572,-0.00001491,0.00005980,-0.00005352,0.00
 007682,-0.00000802,-0.00001358,-0.00002028,-0.00024658,0.00007462,0.00
 009926,0.00000275,-0.00002403,0.00001172,-0.00005008,0.00014032,-0.000
 01270,-0.00001015,0.00000526,-0.00000664,-0.00002677,0.00000996,-0.000
 00799,0.00001169,-0.00000212,0.00000781,0.00029210,-0.00000811,-0.0000
 3934,0.00003359,-0.00000315,0.00000007,-0.00004061,-0.00004356,0.00004
 509,-0.00132592,0.00066341,0.00315926,-0.00085772,0.00309439,0.0022528
 9,0.00039191,-0.00000684,-0.00181468,0.00013896,-0.00105043,-0.0004408
 5,-0.06392694,0.02339380,-0.05331742,-0.00145419,0.00116330,0.00916909
 ,-0.00462353,0.00290438,0.00359308,0.00000511,0.00000537,0.00001307,-0
 .00000316,0.00000034,-0.00000110,0.00000236,-0.00000587,0.00000046,0.0
 0000661,0.00000219,-0.00000095,-0.00004734,0.00014960,-0.00073045,-0.0
 0020772,-0.00029812,0.00017700,-0.00013067,0.00042397,0.00001920,0.000
 58158,-0.00017086,-0.00051985,-0.00000124,-0.00000330,0.00000353,0.000
 00164,-0.00000205,-0.00000816,0.00000038,-0.00001126,0.00001976,0.0000
 1523,-0.00026000,0.00030905,-0.00000131,-0.00000142,-0.00000290,-0.000
 00226,-0.00000138,0.00000591,-0.00000193,-0.00000034,-0.00000185,-0.00
 000201,0.00000075,0.00000104,0.00000082,-0.00000046,-0.00000059,-0.000
 01498,0.00000673,0.00003358,0.00001784,-0.00000558,-0.00000982,-0.0000
 6058,0.00005664,0.00017357,0.00150477,-0.00069811,-0.00532441,0.070019
 71,-0.02941060,0.04311481,0.00140820,0.00026691,-0.00005967,-0.0000697
 9,0.00052451,0.00001891,0.00032555,-0.00014600,0.00003093,-0.00003231,
 -0.00050560,-0.00000246,0.00043898,0.00068543,0.00045741,0.00188990,0.
 00044731,0.00046280,0.00009750,-0.00025936,-0.00026010,-0.00011700,0.0
 0003474,-0.00000756,0.00006429,0.00007508,-0.00004973,-0.00002772,0.00
 011749,0.00000072,-0.00011433,-0.00008694,-0.00002354,0.00012972,-0.00
 002606,0.00002609,0.00005865,0.00003945,0.00002722,0.00005381,-0.00000
 205,0.00000857,-0.00002126,-0.00005097,-0.00000178,-0.00000146,-0.0001
 7681,0.00005393,-0.00009576,0.00006144,-0.00002890,-0.00001008,-0.0000
 9026,0.00000765,-0.00192296,-0.00052324,0.00073987,0.00001164,0.000011
 29,-0.00000029,-0.00021777,0.00022610,0.00020537,-0.00001877,-0.000096
 54,0.00005345,-0.28565777,-0.08749490,-0.07298168,0.00036637,0.0004768
 6,0.00036048,-0.00170705,0.00425500,0.00025171,-0.01933518,-0.01078377
 ,-0.00693756,-0.00136776,0.00006307,0.00227517,-0.00098146,-0.00080934
 ,0.00021251,-0.00028549,-0.00002953,-0.00020470,0.00044149,0.00027049,
 0.00047156,0.00000295,-0.00000428,-0.00000028,0.00000223,-0.00000381,-
 0.00000275,0.00000365,-0.00000570,-0.00000037,0.00000617,-0.00000566,0
 .00000159,-0.00000932,-0.00000217,-0.00000533,0.00002529,0.00003568,-0
 .00010711,-0.00004937,-0.00012076,0.00009362,-0.00092499,-0.00053889,-
 0.00031986,0.00092700,-0.00023804,0.00074359,0.00008624,-0.00000094,-0
 .00031732,-0.00006492,-0.00001139,0.00004820,0.00001991,-0.00000555,-0
 .00008762,-0.00001283,0.00001112,-0.00000424,0.00000793,0.00000351,-0.
 00000593,0.30667788,0.00144629,-0.00414273,-0.00320111,-0.00157092,0.0
 0014041,-0.00002419,0.00001343,-0.00004560,0.00004493,-0.00005185,0.00
 000603,0.00026270,-0.00061539,0.00105426,0.00109762,-0.02692845,-0.007
 75903,-0.00743163,0.00017621,-0.00001535,-0.00005498,0.00008070,0.0001
 9346,-0.00012000,-0.00006016,-0.00029989,0.00010971,0.00002518,0.00013
 477,-0.00000138,-0.00011085,-0.00010879,-0.00001823,0.00011608,-0.0000
 7914,0.00001254,0.00000439,0.00007154,-0.00002470,0.00002072,0.0000089
 9,0.00001151,-0.00002219,-0.00002727,-0.00000307,0.00050473,-0.0001605
 1,-0.00012028,0.00005189,0.00001121,0.00003274,-0.00002518,-0.00001831
 ,0.00000846,-0.00033145,0.00012184,-0.00007751,0.00003811,-0.00000017,
 0.00000757,0.00006196,0.00035740,0.00016089,-0.00006614,-0.00004442,-0
 .00003129,-0.08821501,-0.08929651,-0.03560001,0.00032592,-0.00071439,0
 .00015038,0.00325220,-0.00064273,-0.00330116,0.01857662,0.01030690,0.0
 0456823,-0.00089775,0.00048786,0.00074812,-0.00038562,-0.00042683,0.00
 026496,0.00002077,-0.00016184,-0.00000294,-0.00009421,-0.00014802,0.00
 008445,0.00001073,0.00000032,-0.00000088,0.00000014,0.00000186,-0.0000
 0164,0.00000143,0.00000557,-0.00000316,-0.00000209,0.00000566,-0.00000
 377,-0.00000119,0.00001023,-0.00000507,-0.00008719,-0.00041360,-0.0001
 5312,-0.00011813,-0.00002016,0.00042298,0.00093102,0.00031758,0.000133
 12,-0.00052036,0.00000708,0.00214070,0.00006342,-0.00005836,0.00003009
 ,-0.00003116,-0.00000635,0.00003664,0.00001646,-0.00001945,-0.00002758
 ,-0.00001010,0.00000350,-0.00000077,-0.00000608,-0.00000363,0.00000128
 ,0.09441307,0.09136662,-0.00005296,-0.00301532,0.00333453,-0.00072372,
 -0.00009305,0.00004939,-0.00020638,0.00001754,-0.00015333,0.00025408,0
 .00064112,-0.00005468,0.00060230,0.00033024,-0.00208730,-0.01095234,-0
 .00079096,0.00131402,0.00007468,-0.00014893,-0.00010487,0.00010720,-0.
 00001416,0.00012833,0.00006984,-0.00015544,-0.00004959,0.00004674,0.00
 015212,0.00003542,-0.00011095,0.00006015,-0.00000674,0.00008174,-0.000
 08320,-0.00001829,0.00004802,0.00014398,0.00004224,0.00011474,0.000104
 95,0.00002796,0.00004003,-0.00016245,-0.00001193,0.00012484,-0.0004114
 1,0.00010827,-0.00000365,0.00017239,-0.00004085,-0.00001459,-0.0001175
 7,-0.00001537,0.00044601,-0.00057801,0.00004699,-0.00016333,-0.0000659
 0,-0.00004393,0.00013456,0.00021335,0.00010909,0.00000693,0.00002615,0
 .00000708,-0.07432100,-0.03697798,-0.05834847,0.00067537,-0.00034355,-
 0.00098654,0.00042624,-0.00277907,0.00725449,0.00469973,0.00072349,0.0
 0534914,0.00353105,0.00087674,-0.00225599,-0.00023220,0.00022550,-0.00
 032411,-0.00025505,-0.00016585,-0.00014991,0.00015860,0.00014776,0.000
 15044,0.00001006,-0.00000157,0.00000162,0.00000858,-0.00000036,-0.0000
 0018,-0.00000255,0.00000739,-0.00000121,-0.00000865,0.00001238,0.00000
 766,-0.00000409,0.00000468,0.00001143,-0.00002834,-0.00027594,0.000228
 10,0.00002825,0.00029602,-0.00093641,0.00022510,0.00000827,0.00021152,
 0.00049153,0.00213052,-0.00431584,-0.00001774,0.00005662,-0.00010561,-
 0.00006407,-0.00006974,0.00000086,-0.00003731,-0.00000763,-0.00000690,
 -0.00005345,0.00000976,-0.00000682,-0.00001128,0.00001810,-0.00000098,
 0.07485741,0.03987887,0.05160727\\-0.00000982,0.00000378,-0.00000251,0
 .00000148,-0.00000428,-0.00000804,0.00000482,0.00001487,-0.00000103,-0
 .00001129,-0.00000291,0.00000642,0.00000326,0.00000095,0.00000474,0.00
 000469,0.00000739,-0.00000150,0.00000533,0.00000926,-0.00000753,0.0000
 0882,-0.00000007,-0.00000320,0.00000160,-0.00001894,-0.00000534,0.0000
 0613,-0.00001339,-0.00000465,0.00000300,0.00000478,0.00000105,-0.00000
 832,-0.00000033,-0.00000381,-0.00000386,0.00001190,0.00000685,0.000005
 34,-0.00000026,0.00000250,-0.00000075,-0.00000624,0.00000239,-0.000013
 70,-0.00000468,0.00000471,0.00001087,-0.00000305,0.00000551,0.00000047
 ,0.00000881,0.00000078,-0.00000256,0.00001171,-0.00000358,-0.00000249,
 -0.00000458,0.00000494,0.00000003,-0.00000350,0.00000540,-0.00000288,0
 .00000441,0.00000269,0.00000165,-0.00001043,-0.00000445,0.00000470,-0.
 00001189,-0.00000797,0.00000596,0.00000672,0.00000010,-0.00001279,-0.0
 0000025,-0.00000598,0.00000011,-0.00000709,0.00000169,0.00000329,0.000
 00551,0.00000333,0.00000434,-0.00000236,0.00000534,-0.00000528,0.00000
 076,-0.00000215,0.00000341,-0.00000021,-0.00000152,0.00000160,0.000000
 87,0.00000053,0.00000121,0.00000053,0.00000314,-0.00000099,-0.00000048
 ,0.00000626,0.00000109,-0.00000007,-0.00000295,0.00000095,-0.00000075,
 -0.00000376,-0.00000049,-0.00000097,-0.00000431,-0.00000136,-0.0000007
 8,-0.00000699,-0.00000213,-0.00000103,-0.00000267,0.00000147,0.0000006
 2,-0.00000147,-0.00000084,0.,0.00000141,-0.00000149,0.00000147,0.00000
 414,-0.00000156,0.00000186,0.00000389,-0.00000089,0.00000224,0.0000058
 4,-0.00000215,0.00000012,0.00000175\\\@


 I DO NOT DEFINE TIME, SPACE, PLACE, AND MOTION, AS BEING WELL KNOWN TO ALL.
                                            -- NEWTON (1642-1726), PRINCIPIA
 Job cpu time:       1 days 13 hours 17 minutes 45.0 seconds.
 Elapsed time:       0 days  1 hours 51 minutes 50.6 seconds.
 File lengths (MBytes):  RWF=   4319 Int=      0 D2E=      0 Chk=     63 Scr=      1
 Normal termination of Gaussian 16 at Tue Apr 30 05:27:18 2019.
