 Entering Gaussian System, Link 0=/share/apps/gaussian16/g16/g16
 Initial command:
 /share/apps/gaussian16/g16/l1.exe "/home/amen01//scratch/463/Gau-22273.inp" -scrdir="/home/amen01//scratch/463/"
 Entering Link 1 = /share/apps/gaussian16/g16/l1.exe PID=     22274.
  
 Copyright (c) 1988-2017, Gaussian, Inc.  All Rights Reserved.
  
 This is part of the Gaussian(R) 16 program.  It is based on
 the Gaussian(R) 09 system (copyright 2009, Gaussian, Inc.),
 the Gaussian(R) 03 system (copyright 2003, Gaussian, Inc.),
 the Gaussian(R) 98 system (copyright 1998, Gaussian, Inc.),
 the Gaussian(R) 94 system (copyright 1995, Gaussian, Inc.),
 the Gaussian 92(TM) system (copyright 1992, Gaussian, Inc.),
 the Gaussian 90(TM) system (copyright 1990, Gaussian, Inc.),
 the Gaussian 88(TM) system (copyright 1988, Gaussian, Inc.),
 the Gaussian 86(TM) system (copyright 1986, Carnegie Mellon
 University), and the Gaussian 82(TM) system (copyright 1983,
 Carnegie Mellon University). Gaussian is a federally registered
 trademark of Gaussian, Inc.
  
 This software contains proprietary and confidential information,
 including trade secrets, belonging to Gaussian, Inc.
  
 This software is provided under written license and may be
 used, copied, transmitted, or stored only in accord with that
 written license.
  
 The following legend is applicable only to US Government
 contracts under FAR:
  
                    RESTRICTED RIGHTS LEGEND
  
 Use, reproduction and disclosure by the US Government is
 subject to restrictions as set forth in subparagraphs (a)
 and (c) of the Commercial Computer Software - Restricted
 Rights clause in FAR 52.227-19.
  
 Gaussian, Inc.
 340 Quinnipiac St., Bldg. 40, Wallingford CT 06492
  
  
 ---------------------------------------------------------------
 Warning -- This program may not be used in any manner that
 competes with the business of Gaussian, Inc. or will provide
 assistance to any competitor of Gaussian, Inc.  The licensee
 of this program is prohibited from giving any competitor of
 Gaussian, Inc. access to this program.  By using this program,
 the user acknowledges that Gaussian, Inc. is engaged in the
 business of creating and licensing software in the field of
 computational chemistry and represents and warrants to the
 licensee that it is not a competitor of Gaussian, Inc. and that
 it will not use this program in any manner prohibited above.
 ---------------------------------------------------------------
  

 Cite this work as:
 Gaussian 16, Revision B.01,
 M. J. Frisch, G. W. Trucks, H. B. Schlegel, G. E. Scuseria, 
 M. A. Robb, J. R. Cheeseman, G. Scalmani, V. Barone, 
 G. A. Petersson, H. Nakatsuji, X. Li, M. Caricato, A. V. Marenich, 
 J. Bloino, B. G. Janesko, R. Gomperts, B. Mennucci, H. P. Hratchian, 
 J. V. Ortiz, A. F. Izmaylov, J. L. Sonnenberg, D. Williams-Young, 
 F. Ding, F. Lipparini, F. Egidi, J. Goings, B. Peng, A. Petrone, 
 T. Henderson, D. Ranasinghe, V. G. Zakrzewski, J. Gao, N. Rega, 
 G. Zheng, W. Liang, M. Hada, M. Ehara, K. Toyota, R. Fukuda, 
 J. Hasegawa, M. Ishida, T. Nakajima, Y. Honda, O. Kitao, H. Nakai, 
 T. Vreven, K. Throssell, J. A. Montgomery, Jr., J. E. Peralta, 
 F. Ogliaro, M. J. Bearpark, J. J. Heyd, E. N. Brothers, K. N. Kudin, 
 V. N. Staroverov, T. A. Keith, R. Kobayashi, J. Normand, 
 K. Raghavachari, A. P. Rendell, J. C. Burant, S. S. Iyengar, 
 J. Tomasi, M. Cossi, J. M. Millam, M. Klene, C. Adamo, R. Cammi, 
 J. W. Ochterski, R. L. Martin, K. Morokuma, O. Farkas, 
 J. B. Foresman, and D. J. Fox, Gaussian, Inc., Wallingford CT, 2016.
 
 ******************************************
 Gaussian 16:  ES64L-G16RevB.01 20-Dec-2017
                12-Jun-2019 
 ******************************************
 %nprocshared=20
 Will use up to   20 processors via shared memory.
 %mem=100GB
 %chk=7-memb-hadd-1a.chk
 -------------------------------------------
 # opt freq b3lyp/6-311+g(d,p) int=grid=fine
 -------------------------------------------
 1/18=20,19=15,26=3,38=1/1,3;
 2/9=110,12=2,17=6,18=5,40=1/2;
 3/5=4,6=6,7=111,11=2,25=1,30=1,71=1,74=-5,75=-4/1,2,3;
 4//1;
 5/5=2,38=5/2;
 6/7=2,8=2,9=2,10=2,28=1/1;
 7//1,2,3,16;
 1/18=20,19=15,26=3/3(2);
 2/9=110/2;
 99//99;
 2/9=110/2;
 3/5=4,6=6,7=111,11=2,25=1,30=1,71=1,74=-5,75=-4/1,2,3;
 4/5=5,16=3,69=1/1;
 5/5=2,38=5/2;
 7//1,2,3,16;
 1/18=20,19=15,26=3/3(-5);
 2/9=110/2;
 6/7=2,8=2,9=2,10=2,19=2,28=1/1;
 99/9=1/99;
 --------------
 7-memb-hadd-1a
 --------------
 Symbolic Z-matrix:
 Charge =  0 Multiplicity = 2
 C                    -6.93524   0.10238  -0.26367 
 C                    -5.71685   0.72619  -0.07283 
 C                    -4.58787   0.01654   0.1474 
 C                    -4.5121   -1.36873   0.22942 
 C                    -6.9391   -1.32042  -0.20687 
 C                    -5.7445   -2.04613   0.05044 
 C                    -3.53623   0.859     0.22825 
 C                    -2.24098   0.39127   0.38948 
 C                    -2.0903   -1.01519   0.54405 
 C                    -3.21168  -1.8849    0.46029 
 C                    -3.96154   2.16521   0.0147 
 C                    -2.95518   3.10656  -0.24645 
 C                    -1.59481   2.72307  -0.01812 
 C                    -1.2554    1.38847   0.33052 
 C                    -7.99082   0.98908  -0.50975 
 C                    -7.80803   2.39476  -0.403 
 C                    -6.54773   2.97816  -0.03169 
 C                    -5.44272   2.09322  -0.05127 
 C                    -0.57713   3.66829  -0.20544 
 C                    -3.18804   4.38459  -0.79885 
 C                    -2.16115   5.34248  -1.00685 
 C                    -0.85793   4.95677  -0.66929 
 C                    -8.9126    3.21648  -0.63538 
 C                    -8.84218   4.59098  -0.43602 
 C                    -7.69858   5.1691    0.11248 
 C                    -6.5604    4.3662    0.38002 
 C                    -5.53573   4.98351   1.13572 
 C                    -5.56146   6.33841   1.48078 
 C                    -7.71059   6.53606   0.44065 
 C                    -6.64015   7.12284   1.10828 
 H                    -6.669     8.17667   1.36998 
 H                    -4.73934   6.76715   2.04766 
 H                    -4.69707   4.39564   1.5006 
 H                    -8.57626   7.15179   0.20502 
 H                    -9.72576   5.19279  -0.63777 
 H                    -9.85764   2.79241  -0.96998 
 H                    -8.97426   0.58182  -0.7356 
 H                    -7.86974  -1.86342  -0.35409 
 H                    -5.77751  -3.13179   0.09297 
 H                    -3.06256  -2.95811   0.5477 
 H                    -1.09895  -1.43932   0.68516 
 H                    -0.2127    1.10902   0.46297 
 H                     0.46079   3.4032   -0.0138 
 H                    -0.03885   5.66117  -0.80731 
 H                    -4.19323   4.65378  -1.1219 
 H                    -2.2657    5.77632  -2.034 
 H                    -2.48188   6.32274  -0.57003 
 

 GradGradGradGradGradGradGradGradGradGradGradGradGradGradGradGradGradGrad
 Berny optimization.
 Initialization pass.
                           ----------------------------
                           !    Initial Parameters    !
                           ! (Angstroms and Degrees)  !
 --------------------------                            --------------------------
 ! Name  Definition              Value          Derivative Info.                !
 --------------------------------------------------------------------------------
 ! R1    R(1,2)                  1.382          estimate D2E/DX2                !
 ! R2    R(1,5)                  1.4239         estimate D2E/DX2                !
 ! R3    R(1,15)                 1.4004         estimate D2E/DX2                !
 ! R4    R(2,3)                  1.3516         estimate D2E/DX2                !
 ! R5    R(2,18)                 1.3944         estimate D2E/DX2                !
 ! R6    R(3,4)                  1.3898         estimate D2E/DX2                !
 ! R7    R(3,7)                  1.3499         estimate D2E/DX2                !
 ! R8    R(4,6)                  1.4176         estimate D2E/DX2                !
 ! R9    R(4,10)                 1.418          estimate D2E/DX2                !
 ! R10   R(5,6)                  1.4212         estimate D2E/DX2                !
 ! R11   R(5,38)                 1.0875         estimate D2E/DX2                !
 ! R12   R(6,39)                 1.087          estimate D2E/DX2                !
 ! R13   R(7,8)                  1.3865         estimate D2E/DX2                !
 ! R14   R(7,11)                 1.3902         estimate D2E/DX2                !
 ! R15   R(8,9)                  1.4229         estimate D2E/DX2                !
 ! R16   R(8,14)                 1.4033         estimate D2E/DX2                !
 ! R17   R(9,10)                 1.4216         estimate D2E/DX2                !
 ! R18   R(9,41)                 1.0875         estimate D2E/DX2                !
 ! R19   R(10,40)                1.087          estimate D2E/DX2                !
 ! R20   R(11,12)                1.4025         estimate D2E/DX2                !
 ! R21   R(11,18)                1.4844         estimate D2E/DX2                !
 ! R22   R(12,13)                1.4317         estimate D2E/DX2                !
 ! R23   R(12,20)                1.4116         estimate D2E/DX2                !
 ! R24   R(13,14)                1.4205         estimate D2E/DX2                !
 ! R25   R(13,19)                1.4015         estimate D2E/DX2                !
 ! R26   R(14,42)                1.0876         estimate D2E/DX2                !
 ! R27   R(15,16)                1.4215         estimate D2E/DX2                !
 ! R28   R(15,37)                1.0881         estimate D2E/DX2                !
 ! R29   R(16,17)                1.4376         estimate D2E/DX2                !
 ! R30   R(16,23)                1.3962         estimate D2E/DX2                !
 ! R31   R(17,18)                1.4158         estimate D2E/DX2                !
 ! R32   R(17,26)                1.4479         estimate D2E/DX2                !
 ! R33   R(19,22)                1.3979         estimate D2E/DX2                !
 ! R34   R(19,43)                1.0882         estimate D2E/DX2                !
 ! R35   R(20,21)                1.4196         estimate D2E/DX2                !
 ! R36   R(20,45)                1.0896         estimate D2E/DX2                !
 ! R37   R(21,22)                1.4004         estimate D2E/DX2                !
 ! R38   R(21,46)                1.1199         estimate D2E/DX2                !
 ! R39   R(21,47)                1.1201         estimate D2E/DX2                !
 ! R40   R(22,44)                1.0891         estimate D2E/DX2                !
 ! R41   R(23,24)                1.3907         estimate D2E/DX2                !
 ! R42   R(23,36)                1.0885         estimate D2E/DX2                !
 ! R43   R(24,25)                1.3939         estimate D2E/DX2                !
 ! R44   R(24,35)                1.0879         estimate D2E/DX2                !
 ! R45   R(25,26)                1.4183         estimate D2E/DX2                !
 ! R46   R(25,29)                1.4059         estimate D2E/DX2                !
 ! R47   R(26,27)                1.415          estimate D2E/DX2                !
 ! R48   R(27,28)                1.3984         estimate D2E/DX2                !
 ! R49   R(27,33)                1.0872         estimate D2E/DX2                !
 ! R50   R(28,30)                1.3848         estimate D2E/DX2                !
 ! R51   R(28,32)                1.0868         estimate D2E/DX2                !
 ! R52   R(29,30)                1.3914         estimate D2E/DX2                !
 ! R53   R(29,34)                1.0881         estimate D2E/DX2                !
 ! R54   R(30,31)                1.0862         estimate D2E/DX2                !
 ! A1    A(2,1,5)              116.6084         estimate D2E/DX2                !
 ! A2    A(2,1,15)             113.7653         estimate D2E/DX2                !
 ! A3    A(5,1,15)             129.6167         estimate D2E/DX2                !
 ! A4    A(1,2,3)              121.4606         estimate D2E/DX2                !
 ! A5    A(1,2,18)             128.1669         estimate D2E/DX2                !
 ! A6    A(3,2,18)             110.366          estimate D2E/DX2                !
 ! A7    A(2,3,4)              125.3467         estimate D2E/DX2                !
 ! A8    A(2,3,7)              109.4406         estimate D2E/DX2                !
 ! A9    A(4,3,7)              125.1743         estimate D2E/DX2                !
 ! A10   A(3,4,6)              114.9257         estimate D2E/DX2                !
 ! A11   A(3,4,10)             114.9883         estimate D2E/DX2                !
 ! A12   A(6,4,10)             130.0793         estimate D2E/DX2                !
 ! A13   A(1,5,6)              121.0076         estimate D2E/DX2                !
 ! A14   A(1,5,38)             119.7251         estimate D2E/DX2                !
 ! A15   A(6,5,38)             119.2654         estimate D2E/DX2                !
 ! A16   A(4,6,5)              120.6349         estimate D2E/DX2                !
 ! A17   A(4,6,39)             119.9146         estimate D2E/DX2                !
 ! A18   A(5,6,39)             119.4424         estimate D2E/DX2                !
 ! A19   A(3,7,8)              121.6146         estimate D2E/DX2                !
 ! A20   A(3,7,11)             109.8066         estimate D2E/DX2                !
 ! A21   A(8,7,11)             128.3611         estimate D2E/DX2                !
 ! A22   A(7,8,9)              116.4228         estimate D2E/DX2                !
 ! A23   A(7,8,14)             114.2987         estimate D2E/DX2                !
 ! A24   A(9,8,14)             129.2405         estimate D2E/DX2                !
 ! A25   A(8,9,10)             120.9825         estimate D2E/DX2                !
 ! A26   A(8,9,41)             119.7446         estimate D2E/DX2                !
 ! A27   A(10,9,41)            119.2186         estimate D2E/DX2                !
 ! A28   A(4,10,9)             120.6836         estimate D2E/DX2                !
 ! A29   A(4,10,40)            119.8853         estimate D2E/DX2                !
 ! A30   A(9,10,40)            119.4101         estimate D2E/DX2                !
 ! A31   A(7,11,12)            116.0855         estimate D2E/DX2                !
 ! A32   A(7,11,18)            105.4578         estimate D2E/DX2                !
 ! A33   A(12,11,18)           137.7529         estimate D2E/DX2                !
 ! A34   A(11,12,13)           118.1838         estimate D2E/DX2                !
 ! A35   A(11,12,20)           124.2048         estimate D2E/DX2                !
 ! A36   A(13,12,20)           117.4934         estimate D2E/DX2                !
 ! A37   A(12,13,14)           121.186          estimate D2E/DX2                !
 ! A38   A(12,13,19)           119.2083         estimate D2E/DX2                !
 ! A39   A(14,13,19)           119.5342         estimate D2E/DX2                !
 ! A40   A(8,14,13)            120.6723         estimate D2E/DX2                !
 ! A41   A(8,14,42)            119.0542         estimate D2E/DX2                !
 ! A42   A(13,14,42)           120.0238         estimate D2E/DX2                !
 ! A43   A(1,15,16)            121.0647         estimate D2E/DX2                !
 ! A44   A(1,15,37)            118.7344         estimate D2E/DX2                !
 ! A45   A(16,15,37)           120.1261         estimate D2E/DX2                !
 ! A46   A(15,16,17)           122.2375         estimate D2E/DX2                !
 ! A47   A(15,16,23)           117.889          estimate D2E/DX2                !
 ! A48   A(17,16,23)           119.8498         estimate D2E/DX2                !
 ! A49   A(16,17,18)           115.2778         estimate D2E/DX2                !
 ! A50   A(16,17,26)           117.0541         estimate D2E/DX2                !
 ! A51   A(18,17,26)           127.5874         estimate D2E/DX2                !
 ! A52   A(2,18,11)            104.1463         estimate D2E/DX2                !
 ! A53   A(2,18,17)            117.3576         estimate D2E/DX2                !
 ! A54   A(11,18,17)           138.4049         estimate D2E/DX2                !
 ! A55   A(13,19,22)           121.3406         estimate D2E/DX2                !
 ! A56   A(13,19,43)           120.3135         estimate D2E/DX2                !
 ! A57   A(22,19,43)           118.3292         estimate D2E/DX2                !
 ! A58   A(12,20,21)           123.2915         estimate D2E/DX2                !
 ! A59   A(12,20,45)           119.4634         estimate D2E/DX2                !
 ! A60   A(21,20,45)           117.2051         estimate D2E/DX2                !
 ! A61   A(20,21,22)           116.8719         estimate D2E/DX2                !
 ! A62   A(20,21,46)           109.1623         estimate D2E/DX2                !
 ! A63   A(20,21,47)           109.0413         estimate D2E/DX2                !
 ! A64   A(22,21,46)           114.4979         estimate D2E/DX2                !
 ! A65   A(22,21,47)           114.4259         estimate D2E/DX2                !
 ! A66   A(46,21,47)            89.5374         estimate D2E/DX2                !
 ! A67   A(19,22,21)           121.3846         estimate D2E/DX2                !
 ! A68   A(19,22,44)           119.1517         estimate D2E/DX2                !
 ! A69   A(21,22,44)           119.4195         estimate D2E/DX2                !
 ! A70   A(16,23,24)           121.184          estimate D2E/DX2                !
 ! A71   A(16,23,36)           120.5791         estimate D2E/DX2                !
 ! A72   A(24,23,36)           118.2345         estimate D2E/DX2                !
 ! A73   A(23,24,25)           120.5235         estimate D2E/DX2                !
 ! A74   A(23,24,35)           118.622          estimate D2E/DX2                !
 ! A75   A(25,24,35)           120.6558         estimate D2E/DX2                !
 ! A76   A(24,25,26)           119.8563         estimate D2E/DX2                !
 ! A77   A(24,25,29)           119.2178         estimate D2E/DX2                !
 ! A78   A(26,25,29)           120.8805         estimate D2E/DX2                !
 ! A79   A(17,26,25)           119.7409         estimate D2E/DX2                !
 ! A80   A(17,26,27)           124.3176         estimate D2E/DX2                !
 ! A81   A(25,26,27)           115.7791         estimate D2E/DX2                !
 ! A82   A(26,27,28)           122.7634         estimate D2E/DX2                !
 ! A83   A(26,27,33)           120.129          estimate D2E/DX2                !
 ! A84   A(28,27,33)           117.0822         estimate D2E/DX2                !
 ! A85   A(27,28,30)           119.7886         estimate D2E/DX2                !
 ! A86   A(27,28,32)           119.8042         estimate D2E/DX2                !
 ! A87   A(30,28,32)           120.4047         estimate D2E/DX2                !
 ! A88   A(25,29,30)           121.031          estimate D2E/DX2                !
 ! A89   A(25,29,34)           120.4279         estimate D2E/DX2                !
 ! A90   A(30,29,34)           118.5109         estimate D2E/DX2                !
 ! A91   A(28,30,29)           119.3055         estimate D2E/DX2                !
 ! A92   A(28,30,31)           120.3611         estimate D2E/DX2                !
 ! A93   A(29,30,31)           120.2867         estimate D2E/DX2                !
 ! D1    D(5,1,2,3)              0.422          estimate D2E/DX2                !
 ! D2    D(5,1,2,18)          -178.5507         estimate D2E/DX2                !
 ! D3    D(15,1,2,3)          -178.5627         estimate D2E/DX2                !
 ! D4    D(15,1,2,18)            2.4645         estimate D2E/DX2                !
 ! D5    D(2,1,5,6)              0.7481         estimate D2E/DX2                !
 ! D6    D(2,1,5,38)          -179.753          estimate D2E/DX2                !
 ! D7    D(15,1,5,6)           179.5418         estimate D2E/DX2                !
 ! D8    D(15,1,5,38)           -0.9592         estimate D2E/DX2                !
 ! D9    D(2,1,15,16)           -7.0553         estimate D2E/DX2                !
 ! D10   D(2,1,15,37)          176.0847         estimate D2E/DX2                !
 ! D11   D(5,1,15,16)          174.1231         estimate D2E/DX2                !
 ! D12   D(5,1,15,37)           -2.7369         estimate D2E/DX2                !
 ! D13   D(1,2,3,4)             -1.103          estimate D2E/DX2                !
 ! D14   D(1,2,3,7)            176.7351         estimate D2E/DX2                !
 ! D15   D(18,2,3,4)           178.0355         estimate D2E/DX2                !
 ! D16   D(18,2,3,7)            -4.1264         estimate D2E/DX2                !
 ! D17   D(1,2,18,11)         -172.9936         estimate D2E/DX2                !
 ! D18   D(1,2,18,17)            9.844          estimate D2E/DX2                !
 ! D19   D(3,2,18,11)            7.9411         estimate D2E/DX2                !
 ! D20   D(3,2,18,17)         -169.2213         estimate D2E/DX2                !
 ! D21   D(2,3,4,6)              0.5081         estimate D2E/DX2                !
 ! D22   D(2,3,4,10)           179.6634         estimate D2E/DX2                !
 ! D23   D(7,3,4,6)           -176.9976         estimate D2E/DX2                !
 ! D24   D(7,3,4,10)             2.1577         estimate D2E/DX2                !
 ! D25   D(2,3,7,8)           -176.9923         estimate D2E/DX2                !
 ! D26   D(2,3,7,11)            -1.9323         estimate D2E/DX2                !
 ! D27   D(4,3,7,8)              0.8504         estimate D2E/DX2                !
 ! D28   D(4,3,7,11)           175.9103         estimate D2E/DX2                !
 ! D29   D(3,4,6,5)              0.6928         estimate D2E/DX2                !
 ! D30   D(3,4,6,39)           179.6525         estimate D2E/DX2                !
 ! D31   D(10,4,6,5)          -178.3066         estimate D2E/DX2                !
 ! D32   D(10,4,6,39)            0.6532         estimate D2E/DX2                !
 ! D33   D(3,4,10,9)            -2.2569         estimate D2E/DX2                !
 ! D34   D(3,4,10,40)          179.4224         estimate D2E/DX2                !
 ! D35   D(6,4,10,9)           176.7419         estimate D2E/DX2                !
 ! D36   D(6,4,10,40)           -1.5788         estimate D2E/DX2                !
 ! D37   D(1,5,6,4)             -1.328          estimate D2E/DX2                !
 ! D38   D(1,5,6,39)           179.7073         estimate D2E/DX2                !
 ! D39   D(38,5,6,4)           179.1707         estimate D2E/DX2                !
 ! D40   D(38,5,6,39)            0.2061         estimate D2E/DX2                !
 ! D41   D(3,7,8,9)             -3.5947         estimate D2E/DX2                !
 ! D42   D(3,7,8,14)           174.3747         estimate D2E/DX2                !
 ! D43   D(11,7,8,9)          -177.664          estimate D2E/DX2                !
 ! D44   D(11,7,8,14)            0.3053         estimate D2E/DX2                !
 ! D45   D(3,7,11,12)         -165.4008         estimate D2E/DX2                !
 ! D46   D(3,7,11,18)            6.7052         estimate D2E/DX2                !
 ! D47   D(8,7,11,12)            9.2329         estimate D2E/DX2                !
 ! D48   D(8,7,11,18)         -178.6611         estimate D2E/DX2                !
 ! D49   D(7,8,9,10)             3.3668         estimate D2E/DX2                !
 ! D50   D(7,8,9,41)          -179.3345         estimate D2E/DX2                !
 ! D51   D(14,8,9,10)         -174.2433         estimate D2E/DX2                !
 ! D52   D(14,8,9,41)            3.0554         estimate D2E/DX2                !
 ! D53   D(7,8,14,13)           -6.6744         estimate D2E/DX2                !
 ! D54   D(7,8,14,42)          179.0655         estimate D2E/DX2                !
 ! D55   D(9,8,14,13)          170.9774         estimate D2E/DX2                !
 ! D56   D(9,8,14,42)           -3.2827         estimate D2E/DX2                !
 ! D57   D(8,9,10,4)            -0.4494         estimate D2E/DX2                !
 ! D58   D(8,9,10,40)          177.8791         estimate D2E/DX2                !
 ! D59   D(41,9,10,4)         -177.7622         estimate D2E/DX2                !
 ! D60   D(41,9,10,40)           0.5664         estimate D2E/DX2                !
 ! D61   D(7,11,12,13)         -11.9377         estimate D2E/DX2                !
 ! D62   D(7,11,12,20)         164.0065         estimate D2E/DX2                !
 ! D63   D(18,11,12,13)        179.4172         estimate D2E/DX2                !
 ! D64   D(18,11,12,20)         -4.6386         estimate D2E/DX2                !
 ! D65   D(7,11,18,2)           -8.7386         estimate D2E/DX2                !
 ! D66   D(7,11,18,17)         167.464          estimate D2E/DX2                !
 ! D67   D(12,11,18,2)         160.6896         estimate D2E/DX2                !
 ! D68   D(12,11,18,17)        -23.1078         estimate D2E/DX2                !
 ! D69   D(11,12,13,14)          6.3728         estimate D2E/DX2                !
 ! D70   D(11,12,13,19)       -176.7168         estimate D2E/DX2                !
 ! D71   D(20,12,13,14)       -169.8463         estimate D2E/DX2                !
 ! D72   D(20,12,13,19)          7.0641         estimate D2E/DX2                !
 ! D73   D(11,12,20,21)        177.4518         estimate D2E/DX2                !
 ! D74   D(11,12,20,45)         -4.9146         estimate D2E/DX2                !
 ! D75   D(13,12,20,21)         -6.5782         estimate D2E/DX2                !
 ! D76   D(13,12,20,45)        171.0554         estimate D2E/DX2                !
 ! D77   D(12,13,14,8)           3.4873         estimate D2E/DX2                !
 ! D78   D(12,13,14,42)        177.6919         estimate D2E/DX2                !
 ! D79   D(19,13,14,8)        -173.4133         estimate D2E/DX2                !
 ! D80   D(19,13,14,42)          0.7913         estimate D2E/DX2                !
 ! D81   D(12,13,19,22)         -2.9962         estimate D2E/DX2                !
 ! D82   D(12,13,19,43)        178.5159         estimate D2E/DX2                !
 ! D83   D(14,13,19,22)        173.9661         estimate D2E/DX2                !
 ! D84   D(14,13,19,43)         -4.5219         estimate D2E/DX2                !
 ! D85   D(1,15,16,17)          -0.453          estimate D2E/DX2                !
 ! D86   D(1,15,16,23)        -178.6784         estimate D2E/DX2                !
 ! D87   D(37,15,16,17)        176.3636         estimate D2E/DX2                !
 ! D88   D(37,15,16,23)         -1.8618         estimate D2E/DX2                !
 ! D89   D(15,16,17,18)         12.5682         estimate D2E/DX2                !
 ! D90   D(15,16,17,26)       -164.4163         estimate D2E/DX2                !
 ! D91   D(23,16,17,18)       -169.2402         estimate D2E/DX2                !
 ! D92   D(23,16,17,26)         13.7753         estimate D2E/DX2                !
 ! D93   D(15,16,23,24)        174.3183         estimate D2E/DX2                !
 ! D94   D(15,16,23,36)         -5.1021         estimate D2E/DX2                !
 ! D95   D(17,16,23,24)         -3.9511         estimate D2E/DX2                !
 ! D96   D(17,16,23,36)        176.6285         estimate D2E/DX2                !
 ! D97   D(16,17,18,2)         -16.4022         estimate D2E/DX2                !
 ! D98   D(16,17,18,11)        167.7444         estimate D2E/DX2                !
 ! D99   D(26,17,18,2)         160.2083         estimate D2E/DX2                !
 ! D100  D(26,17,18,11)        -15.6451         estimate D2E/DX2                !
 ! D101  D(16,17,26,25)        -14.645          estimate D2E/DX2                !
 ! D102  D(16,17,26,27)        160.521          estimate D2E/DX2                !
 ! D103  D(18,17,26,25)        168.7966         estimate D2E/DX2                !
 ! D104  D(18,17,26,27)        -16.0374         estimate D2E/DX2                !
 ! D105  D(13,19,22,21)         -2.0918         estimate D2E/DX2                !
 ! D106  D(13,19,22,44)       -179.6589         estimate D2E/DX2                !
 ! D107  D(43,19,22,21)        176.4253         estimate D2E/DX2                !
 ! D108  D(43,19,22,44)         -1.1418         estimate D2E/DX2                !
 ! D109  D(12,20,21,22)          1.7066         estimate D2E/DX2                !
 ! D110  D(12,20,21,46)        133.6353         estimate D2E/DX2                !
 ! D111  D(12,20,21,47)       -129.998          estimate D2E/DX2                !
 ! D112  D(45,20,21,22)       -175.9768         estimate D2E/DX2                !
 ! D113  D(45,20,21,46)        -44.0481         estimate D2E/DX2                !
 ! D114  D(45,20,21,47)         52.3185         estimate D2E/DX2                !
 ! D115  D(20,21,22,19)          2.7464         estimate D2E/DX2                !
 ! D116  D(20,21,22,44)       -179.6929         estimate D2E/DX2                !
 ! D117  D(46,21,22,19)       -126.6946         estimate D2E/DX2                !
 ! D118  D(46,21,22,44)         50.866          estimate D2E/DX2                !
 ! D119  D(47,21,22,19)        131.9316         estimate D2E/DX2                !
 ! D120  D(47,21,22,44)        -50.5078         estimate D2E/DX2                !
 ! D121  D(16,23,24,25)         -5.5827         estimate D2E/DX2                !
 ! D122  D(16,23,24,35)        179.5057         estimate D2E/DX2                !
 ! D123  D(36,23,24,25)        173.8508         estimate D2E/DX2                !
 ! D124  D(36,23,24,35)         -1.0607         estimate D2E/DX2                !
 ! D125  D(23,24,25,26)          4.6138         estimate D2E/DX2                !
 ! D126  D(23,24,25,29)       -172.9545         estimate D2E/DX2                !
 ! D127  D(35,24,25,26)        179.4212         estimate D2E/DX2                !
 ! D128  D(35,24,25,29)          1.8529         estimate D2E/DX2                !
 ! D129  D(24,25,26,17)          5.7143         estimate D2E/DX2                !
 ! D130  D(24,25,26,27)       -169.8528         estimate D2E/DX2                !
 ! D131  D(29,25,26,17)       -176.7586         estimate D2E/DX2                !
 ! D132  D(29,25,26,27)          7.6743         estimate D2E/DX2                !
 ! D133  D(24,25,29,30)        173.6726         estimate D2E/DX2                !
 ! D134  D(24,25,29,34)         -4.2994         estimate D2E/DX2                !
 ! D135  D(26,25,29,30)         -3.8701         estimate D2E/DX2                !
 ! D136  D(26,25,29,34)        178.1579         estimate D2E/DX2                !
 ! D137  D(17,26,27,28)        177.9655         estimate D2E/DX2                !
 ! D138  D(17,26,27,33)         -3.9242         estimate D2E/DX2                !
 ! D139  D(25,26,27,28)         -6.6953         estimate D2E/DX2                !
 ! D140  D(25,26,27,33)        171.415          estimate D2E/DX2                !
 ! D141  D(26,27,28,30)          1.6914         estimate D2E/DX2                !
 ! D142  D(26,27,28,32)       -178.8841         estimate D2E/DX2                !
 ! D143  D(33,27,28,30)       -176.4729         estimate D2E/DX2                !
 ! D144  D(33,27,28,32)          2.9515         estimate D2E/DX2                !
 ! D145  D(27,28,30,29)          2.5789         estimate D2E/DX2                !
 ! D146  D(27,28,30,31)       -179.8988         estimate D2E/DX2                !
 ! D147  D(32,28,30,29)       -176.8421         estimate D2E/DX2                !
 ! D148  D(32,28,30,31)          0.6803         estimate D2E/DX2                !
 ! D149  D(25,29,30,28)         -1.4952         estimate D2E/DX2                !
 ! D150  D(25,29,30,31)       -179.0194         estimate D2E/DX2                !
 ! D151  D(34,29,30,28)        176.5147         estimate D2E/DX2                !
 ! D152  D(34,29,30,31)         -1.0095         estimate D2E/DX2                !
 --------------------------------------------------------------------------------
 Trust Radius=3.00D-01 FncErr=1.00D-07 GrdErr=1.00D-06 EigMax=2.50D+02 EigMin=1.00D-04
 Number of steps in this run=    282 maximum allowed number of steps=    282.
 GradGradGradGradGradGradGradGradGradGradGradGradGradGradGradGradGradGrad

                          Input orientation:                          
 ---------------------------------------------------------------------
 Center     Atomic      Atomic             Coordinates (Angstroms)
 Number     Number       Type             X           Y           Z
 ---------------------------------------------------------------------
      1          6           0       -6.935240    0.102380   -0.263670
      2          6           0       -5.716850    0.726190   -0.072830
      3          6           0       -4.587870    0.016540    0.147400
      4          6           0       -4.512100   -1.368730    0.229420
      5          6           0       -6.939100   -1.320420   -0.206870
      6          6           0       -5.744500   -2.046130    0.050440
      7          6           0       -3.536230    0.859000    0.228250
      8          6           0       -2.240980    0.391270    0.389480
      9          6           0       -2.090300   -1.015190    0.544050
     10          6           0       -3.211680   -1.884900    0.460290
     11          6           0       -3.961540    2.165210    0.014700
     12          6           0       -2.955180    3.106560   -0.246450
     13          6           0       -1.594810    2.723070   -0.018120
     14          6           0       -1.255400    1.388470    0.330520
     15          6           0       -7.990820    0.989080   -0.509750
     16          6           0       -7.808030    2.394760   -0.403000
     17          6           0       -6.547730    2.978160   -0.031690
     18          6           0       -5.442720    2.093220   -0.051270
     19          6           0       -0.577130    3.668290   -0.205440
     20          6           0       -3.188040    4.384590   -0.798850
     21          6           0       -2.161150    5.342480   -1.006850
     22          6           0       -0.857930    4.956770   -0.669290
     23          6           0       -8.912600    3.216480   -0.635380
     24          6           0       -8.842180    4.590980   -0.436020
     25          6           0       -7.698580    5.169100    0.112480
     26          6           0       -6.560400    4.366200    0.380020
     27          6           0       -5.535730    4.983510    1.135720
     28          6           0       -5.561460    6.338410    1.480780
     29          6           0       -7.710590    6.536060    0.440650
     30          6           0       -6.640150    7.122840    1.108280
     31          1           0       -6.669000    8.176670    1.369980
     32          1           0       -4.739340    6.767150    2.047660
     33          1           0       -4.697070    4.395640    1.500600
     34          1           0       -8.576260    7.151790    0.205020
     35          1           0       -9.725760    5.192790   -0.637770
     36          1           0       -9.857640    2.792410   -0.969980
     37          1           0       -8.974260    0.581820   -0.735600
     38          1           0       -7.869740   -1.863420   -0.354090
     39          1           0       -5.777510   -3.131790    0.092970
     40          1           0       -3.062560   -2.958110    0.547700
     41          1           0       -1.098950   -1.439320    0.685160
     42          1           0       -0.212700    1.109020    0.462970
     43          1           0        0.460790    3.403200   -0.013800
     44          1           0       -0.038850    5.661170   -0.807310
     45          1           0       -4.193230    4.653780   -1.121900
     46          1           0       -2.265700    5.776320   -2.034000
     47          1           0       -2.481880    6.322740   -0.570030
 ---------------------------------------------------------------------
                    Distance matrix (angstroms):
                    1          2          3          4          5
     1  C    0.000000
     2  C    1.382039   0.000000
     3  C    2.384637   1.351555   0.000000
     4  C    2.877309   2.435460   1.389763   0.000000
     5  C    1.423939   2.387567   2.727866   2.466376   0.000000
     6  C    2.476413   2.775197   2.366813   1.417644   1.421243
     7  C    3.516778   2.205310   1.349897   2.432099   4.064323
     8  C    4.748278   3.522439   2.388916   2.877708   5.035658
     9  C    5.037342   4.069989   2.731237   2.467610   4.916087
    10  C    4.282324   3.657579   2.367968   1.418035   3.828498
    11  C    3.629828   2.271465   2.242026   3.583009   4.589616
    12  C    4.986609   3.650086   3.516961   4.762213   5.955782
    13  C    5.953865   4.580583   4.038701   5.031370   6.704243
    14  C    5.853860   4.528338   3.608474   4.268310   6.319123
    15  C    1.400372   2.330440   3.599687   4.266982   2.555708
    16  C    2.456864   2.695584   4.040829   5.042516   3.820480
    17  C    2.911029   2.400713   3.555885   4.807018   4.319913
    18  C    2.497233   1.394411   2.254515   3.595822   3.730456
    19  C    7.290039   5.923703   5.435606   6.406611   8.084670
    20  C    5.715352   4.506204   4.683457   5.992593   6.853323
    21  C    7.127615   5.901316   5.965476   7.217733   8.237901
    22  C    7.788667   6.470137   6.243822   7.360203   8.752004
    23  C    3.707525   4.090333   5.436511   6.413769   4.966063
    24  C    4.879924   4.983593   6.274156   7.396658   6.214409
    25  C    5.137687   4.868372   6.018855   7.273964   6.541610
    26  C    4.328395   3.763818   4.781687   6.091604   5.729354
    27  C    5.267101   4.429240   5.152282   6.497704   6.596327
    28  C    6.619550   5.825364   6.533898   7.878265   7.962646
    29  C    6.518395   6.163867   7.234744   8.529986   7.920780
    30  C    7.159342   6.569980   7.458863   8.798168   8.550300
    31  H    8.242200   7.648395   8.509614   9.852297   9.630894
    32  H    7.388057   6.476512   7.014604   8.339675   8.679322
    33  H    5.153070   4.120740   4.584713   5.905766   6.373029
    34  H    7.253054   7.038591   8.174495   9.440193   8.638767
    35  H    5.817149   6.028352   7.335392   8.425427   7.097398
    36  H    4.034298   4.713840   6.060072   6.879567   5.100547
    37  H    2.147134   3.327285   4.509950   4.964552   2.835480
    38  H    2.178494   3.379367   3.815287   3.443682   1.087480
    39  H    3.453605   3.862017   3.366034   2.174457   2.172615
    40  H    5.002257   4.583053   3.366802   2.174534   4.275391
    41  H    6.110597   5.156451   3.818544   3.444165   5.909078
    42  H    6.836218   5.543402   4.520532   4.967759   7.182988
    43  H    8.103031   6.732986   6.081482   6.896384   8.781129
    44  H    8.874451   7.558649   7.312107   8.396682   9.834459
    45  H    5.382418   4.341420   4.823988   6.180483   6.638384
    46  H    7.558589   6.423429   6.582252   7.824393   8.691536
    47  H    7.656314   6.483333   6.687156   7.994975   8.855314
                    6          7          8          9         10
     6  C    0.000000
     7  C    3.653471   0.000000
     8  C    4.281416   1.386520   0.000000
     9  C    3.828794   2.388102   1.422929   0.000000
    10  C    2.570827   2.772754   2.475525   1.421585   0.000000
    11  C    4.573359   1.390207   2.499530   3.727827   4.142974
    12  C    5.866742   2.369490   2.878765   4.285059   5.047766
    13  C    6.322175   2.702696   2.453765   3.812628   4.906784
    14  C    5.659235   2.343711   1.403300   2.553475   3.815603
    15  C    3.817364   4.517182   5.850355   6.320105   5.660470
    16  C    4.917852   4.583155   5.969426   6.724366   6.339337
    17  C    5.088754   3.691550   5.041575   6.012238   5.917823
    18  C    4.151582   2.288260   3.652675   4.610351   4.589627
    19  C    7.708553   4.103227   3.723061   4.978595   6.182392
    20  C    6.972155   3.688625   4.272664   5.671511   6.394724
    21  C    8.279482   4.849527   5.144958   6.544485   7.449237
    22  C    8.569550   4.977006   4.886472   6.217334   7.322878
    23  C    6.180799   5.933711   7.317285   8.114300   7.728199
    24  C    7.340538   6.520892   7.867328   8.830491   8.628031
    25  C    7.475414   5.992956   7.258773   8.359695   8.367327
    26  C    6.472425   4.633475   5.870055   6.997718   7.092011
    27  C    7.115986   4.672589   5.700958   6.943015   7.282340
    28  C    8.507637   5.974473   6.898188   8.185466   8.613112
    29  C    8.813158   7.049781   8.226645   9.413805   9.547416
    30  C    9.273145   7.045883   8.073624   9.340611   9.659900
    31  H   10.348987   8.041523   9.010061  10.302279  10.677818
    32  H    9.092477   6.297933   7.045794   8.357217   8.928127
    33  H    6.685542   3.933732   4.827209   6.081720   6.537110
    34  H    9.625201   8.062360   9.266846  10.434662  10.512167
    35  H    8.290116   7.605393   8.951635   9.911406   9.681563
    36  H    6.432002   6.718188   8.101056   8.781895   8.251769
    37  H    4.237373   5.529738   6.829288   7.181702   6.381394
    38  H    2.171099   5.150728   6.108966   5.909998   4.728763
    39  H    1.086994   4.579087   5.000691   4.275393   2.876307
    40  H    2.876070   3.859630   3.452300   2.172612   1.087040
    41  H    4.727814   3.381032   2.177778   1.087462   2.170884
    42  H    6.381690   3.341176   2.152786   2.836234   4.237623
    43  H    8.258629   4.744229   4.066192   5.132390   6.455680
    44  H    9.627702   6.030331   5.835540   7.113958   8.283528
    45  H    6.976361   4.081043   4.925905   6.271756   6.798610
    46  H    8.811224   5.559861   5.905305   7.266479   8.112377
    47  H    9.003758   5.621509   6.013404   7.432343   8.304187
                   11         12         13         14         15
    11  C    0.000000
    12  C    1.402533   0.000000
    13  C    2.431809   1.431714   0.000000
    14  C    2.833066   2.484749   1.420530   0.000000
    15  C    4.230062   5.469069   6.645101   6.799371   0.000000
    16  C    3.875907   4.907272   6.233781   6.669905   1.421529
    17  C    2.711350   3.601253   4.959503   5.537785   2.503495
    18  C    1.484395   2.693104   3.899259   4.263342   2.814630
    19  C    3.709709   2.443838   1.401500   2.438213   7.888826
    20  C    2.487130   1.411641   2.430755   3.739961   5.888953
    21  C    3.792099   2.491592   2.856508   4.271199   7.292753
    22  C    4.230017   2.828521   2.440580   3.726978   8.163709
    23  C    5.103016   5.971114   7.360334   7.931412   2.413871
    24  C    5.468835   6.074225   7.495872   8.270604   3.701882
    25  C    4.795663   5.184857   6.576939   7.473639   4.236171
    26  C    3.425185   3.869983   5.245520   6.083778   3.773954
    27  C    3.417247   3.477438   4.687407   5.647467   4.968955
    28  C    4.703694   4.496763   5.572405   6.660868   6.203171
    29  C    5.774179   5.903177   7.221643   8.257075   5.634783
    30  C    5.740119   5.616476   6.788388   7.904647   6.485780
    31  H    6.730882   6.489324   7.577333   8.744553   7.545995
    32  H    5.090752   4.673980   5.523595   6.634501   7.106234
    33  H    2.779158   2.783539   3.837710   4.717759   5.147324
    34  H    6.796899   6.940047   8.270671   9.318079   6.231583
    35  H    6.543561   7.095508   8.520319   9.335815   4.549460
    36  H    6.010571   6.947384   8.317764   8.812541   2.636063
    37  H    5.310126   6.545449   7.717254   7.833779   1.088128
    38  H    5.624935   6.990364   7.779686   7.402228   2.859309
    39  H    5.600186   6.855491   7.196298   6.398333   4.716310
    40  H    5.228830   6.117387   5.894934   4.712298   6.402051
    41  H    4.651513   4.997851   4.250408   2.854232   7.404243
    42  H    3.920495   3.466214   2.178723   1.087593   7.839625
    43  H    4.592432   3.436710   2.165199   2.668895   8.803616
    44  H    5.318358   3.917343   3.417055   4.585915   9.227719
    45  H    2.745637   2.166350   3.420199   4.626296   5.312856
    46  H    4.484770   3.286082   3.719704   5.085753   7.616955
    47  H    4.451557   3.266884   3.748216   5.163551   7.668115
                   16         17         18         19         20
    16  C    0.000000
    17  C    1.437561   0.000000
    18  C    2.410256   1.415821   0.000000
    19  C    7.344850   6.012864   5.116501   0.000000
    20  C    5.045833   3.722109   3.300429   2.771655   0.000000
    21  C    6.398511   5.077699   4.715880   2.440141   1.419620
    22  C    7.412064   6.057661   5.440787   1.397922   2.402829
    23  C    1.396173   2.452315   3.693638   8.358770   5.844809
    24  C    2.427744   2.833579   4.235937   8.319590   5.669527
    25  C    2.823944   2.479004   3.817952   7.284817   4.668078
    26  C    2.460950   1.447868   2.569369   6.052220   3.572518
    27  C    3.772616   2.531485   3.125919   5.302474   3.100470
    28  C    4.914070   3.814653   4.514744   5.900544   3.827172
    29  C    4.227482   3.772797   5.012389   7.715425   5.159326
    30  C    5.099280   4.299587   5.298629   7.100703   4.801273
    31  H    6.153969   5.385526   6.366481   7.740692   5.585766
    32  H    5.877107   4.685127   5.171641   5.657153   4.023151
    33  H    4.159962   2.789642   2.874966   4.518132   2.750412
    34  H    4.856871   4.646521   5.955996   8.734376   6.139875
    35  H    3.400261   3.920688   5.319375   9.284850   6.589455
    36  H    2.163445   3.445344   4.563377   9.353050   6.859146
    37  H    2.181162   3.482238   3.901847   8.962096   6.924262
    38  H    4.258908   5.029170   4.651572   9.154456   7.820087
    39  H    5.908617   6.159567   5.237711   8.565868   7.999792
    40  H    7.216407   6.908068   5.616036   7.117145   7.466203
    41  H    7.803590   7.051043   5.647079   5.210868   6.362744
    42  H    7.751907   6.623517   5.346607   2.670102   4.601543
    43  H    8.339173   7.021419   6.047221   1.088245   3.859196
    44  H    8.437598   7.082771   6.519484   2.150247   3.398106
    45  H    4.322819   3.088678   3.043672   3.858402   1.089602
    46  H    6.694216   5.493153   5.252609   3.261701   2.076829
    47  H    6.620030   5.292179   5.188885   3.287416   2.075439
                   21         22         23         24         25
    21  C    0.000000
    22  C    1.400393   0.000000
    23  C    7.088014   8.240599   0.000000
    24  C    6.747352   7.996028   1.390667   0.000000
    25  C    5.652087   6.888450   2.417822   1.393878   0.000000
    26  C    4.714863   5.828206   2.808156   2.433715   1.418337
    27  C    4.013385   5.014039   4.202671   3.681991   2.399872
    28  C    4.329236   5.353029   5.045267   4.182195   2.794067
    29  C    5.858001   7.119345   3.690837   2.415033   1.405852
    30  C    5.263544   6.425394   4.843968   3.693794   2.434952
    31  H    5.831180   6.949454   5.801611   4.565251   3.418599
    32  H    4.243440   5.071946   6.100988   5.266657   3.880179
    33  H    3.689811   4.445479   4.870680   4.579366   3.396201
    34  H    6.774649   8.071874   4.038076   2.653186   2.170241
    35  H    7.575088   8.871026   2.137062   1.087930   2.161688
    36  H    8.108031   9.261190   1.088528   2.133337   3.388497
    37  H    8.316004   9.220596   2.637286   4.022506   4.836294
    38  H    9.216241   9.786717   5.193464   6.527759   7.050058
    39  H    9.279058   9.497795   7.117571   8.325455   8.520309
    40  H    8.492877   8.305828   8.587678   9.558267   9.366624
    41  H    7.069935   6.542369   9.190943   9.878217   9.357045
    42  H    4.886616   4.062452   9.018648   9.348805   8.523232
    43  H    3.409036   2.140624   9.395832   9.387989   8.349232
    44  H    2.155351   1.089092   9.205950   8.875910   7.730434
    45  H    2.148696   3.379480   4.957316   4.699693   3.751896
    46  H    1.119904   2.125068   7.258801   6.870856   5.873013
    47  H    1.120084   2.124368   7.141938   6.593206   5.386155
                   26         27         28         29         30
    26  C    0.000000
    27  C    1.414957   0.000000
    28  C    2.469649   1.398386   0.000000
    29  C    2.456604   2.761078   2.395766   0.000000
    30  C    2.852330   2.407744   1.384796   1.391360   0.000000
    31  H    3.938464   3.396388   2.148981   2.154104   1.086221
    32  H    3.444103   2.155747   1.086762   3.385884   2.149890
    33  H    2.174526   1.087235   2.126480   3.845282   3.371512
    34  H    3.442939   3.848696   3.373154   1.088131   2.136642
    35  H    3.426172   4.554714   4.810623   2.651089   4.036678
    36  H    3.895010   5.283351   6.085844   4.540332   5.781352
    37  H    4.625242   5.890688   7.049672   6.199468   7.185604
    38  H    6.407921   7.385634   8.715786   8.438495   9.187126
    39  H    7.544214   8.185590   9.573786   9.865344  10.340814
    40  H    8.118406   8.338565   9.671630  10.571419  10.711627
    41  H    7.976504   7.819256   9.002227  10.362444  10.207571
    42  H    7.135082   6.618075   7.549284   9.255896   8.825790
    43  H    7.097857   6.306903   6.864162   8.763149   8.094327
    44  H    6.754059   5.869436   6.016081   7.821664   7.027313
    45  H    2.818148   2.647239   3.388801   4.284433   4.130058
    46  H    5.124488   4.622637   4.850944   6.028924   5.551833
    47  H    4.622226   3.745547   3.699984   5.329764   4.555008
                   31         32         33         34         35
    31  H    0.000000
    32  H    2.483865   0.000000
    33  H    4.266352   2.434157   0.000000
    34  H    2.458689   4.273783   4.931836   0.000000
    35  H    4.719998   5.878310   5.522300   2.422669   0.000000
    36  H    6.680800   7.148546   5.941851   4.693267   2.426846
    37  H    8.211543   7.996211   6.151436   6.648885   4.672833
    38  H   10.257563   9.489707   7.258205   9.060121   7.301738
    39  H   11.415199  10.143354   7.733756  10.658216   9.242364
    40  H   11.733110   9.982092   7.593239  11.520781  10.594373
    41  H   11.133809   9.080473   6.903490  11.399468  10.961609
    42  H    9.615516   7.417287   5.655804  10.321373  10.410913
    43  H    8.691074   6.527414   5.466431   9.786117  10.361360
    44  H    7.418034   5.609693   5.350423   8.725487   9.699709
    45  H    4.974903   3.848465   2.682908   5.216486   5.579767
    46  H    6.061172   4.874483   4.506799   6.835810   7.611995
    47  H    4.973195   3.485101   3.592811   6.199153   7.331792
                   36         37         38         39         40
    36  H    0.000000
    37  H    2.392071   0.000000
    38  H    5.099786   2.710113   0.000000
    39  H    7.271415   4.969571   2.487177   0.000000
    40  H    9.030224   7.009006   5.012041   2.758242   0.000000
    41  H    9.867202   8.253731   6.863199   5.010396   2.486239
    42  H    9.895050   8.858862   8.254287   7.006317   4.966933
    43  H   10.380623   9.874277   9.861583   9.035147   7.293527
    44  H   10.230586  10.278448  10.869577  10.538447   9.234222
    45  H    5.964337   6.291926   7.521978   8.037472   7.874443
    46  H    8.226385   8.583324   9.622525   9.808733   9.142780
    47  H    8.186881   8.668136   9.802494  10.034385   9.365932
                   41         42         43         44         45
    41  H    0.000000
    42  H    2.707184   0.000000
    43  H    5.135303   2.438065   0.000000
    44  H    7.332683   4.729260   2.444939   0.000000
    45  H    7.068656   5.560733   4.944870   4.286336   0.000000
    46  H    7.798756   5.677443   4.140852   2.544973   2.409854
    47  H    7.983581   5.779199   4.182393   2.542120   2.453305
                   46         47
    46  H    0.000000
    47  H    1.577503   0.000000
 Stoichiometry    C30H17(2)
 Framework group  C1[X(C30H17)]
 Deg. of freedom   135
 Full point group                 C1      NOp   1
 Largest Abelian subgroup         C1      NOp   1
 Largest concise Abelian subgroup C1      NOp   1
                         Standard orientation:                         
 ---------------------------------------------------------------------
 Center     Atomic      Atomic             Coordinates (Angstroms)
 Number     Number       Type             X           Y           Z
 ---------------------------------------------------------------------
      1          6           0        0.955387   -2.997825   -0.262821
      2          6           0        1.064875   -1.631780   -0.084025
      3          6           0        2.259651   -1.044339    0.148619
      4          6           0        3.475240   -1.709368    0.255958
      5          6           0        2.161262   -3.750554   -0.179972
      6          6           0        3.403713   -3.115447    0.090008
      7          6           0        2.097145    0.294168    0.213519
      8          6           0        3.174958    1.149824    0.382663
      9          6           0        4.446935    0.538008    0.562891
     10          6           0        4.595867   -0.874153    0.495614
     11          6           0        0.766445    0.619187   -0.023711
     12          6           0        0.501286    1.967906   -0.302543
     13          6           0        1.540837    2.923978   -0.067884
     14          6           0        2.848299    2.512363    0.304975
     15          6           0       -0.350712   -3.429826   -0.524589
     16          6           0       -1.450207   -2.532435   -0.443688
     17          6           0       -1.287053   -1.150265   -0.083733
     18          6           0        0.047678   -0.678008   -0.087637
     19          6           0        1.277228    4.285099   -0.272975
     20          6           0       -0.698818    2.438188   -0.878143
     21          6           0       -0.968019    3.813605   -1.104146
     22          6           0        0.041615    4.721045   -0.760208
     23          6           0       -2.727139   -3.040180   -0.690545
     24          6           0       -3.860808   -2.253776   -0.516424
     25          6           0       -3.757410   -0.971767    0.020844
     26          6           0       -2.479284   -0.425189    0.302494
     27          6           0       -2.475057    0.778508    1.046267
     28          6           0       -3.644999    1.474346    1.366469
     29          6           0       -4.930105   -0.258083    0.323931
     30          6           0       -4.874460    0.967525    0.980186
     31          1           0       -5.788988    1.501165    1.222557
     32          1           0       -3.584469    2.404629    1.925005
     33          1           0       -1.539025    1.184911    1.421447
     34          1           0       -5.906025   -0.671450    0.077482
     35          1           0       -4.834863   -2.689358   -0.728735
     36          1           0       -2.860000   -4.070110   -1.016866
     37          1           0       -0.519765   -4.482429   -0.742468
     38          1           0        2.134166   -4.829055   -0.316774
     39          1           0        4.308011   -3.715368    0.152430
     40          1           0        5.584927   -1.312300    0.602592
     41          1           0        5.327786    1.158216    0.711267
     42          1           0        3.633439    3.252384    0.442017
     43          1           0        2.046743    5.029225   -0.077013
     44          1           0       -0.122863    5.786962   -0.911500
     45          1           0       -1.452548    1.722712   -1.205583
     46          1           0       -1.376001    3.943125   -2.139018
     47          1           0       -1.976615    4.062212   -0.685197
 ---------------------------------------------------------------------
 Rotational constants (GHZ):           0.2232857           0.1693905           0.1012475
 Standard basis: 6-311+G(d,p) (5D, 7F)
 There are   792 symmetry adapted cartesian basis functions of A   symmetry.
 There are   762 symmetry adapted basis functions of A   symmetry.
   762 basis functions,  1216 primitive gaussians,   792 cartesian basis functions
    99 alpha electrons       98 beta electrons
       nuclear repulsion energy      2623.6319267934 Hartrees.
 NAtoms=   47 NActive=   47 NUniq=   47 SFac= 1.00D+00 NAtFMM=   60 NAOKFM=F Big=F
 Integral buffers will be    131072 words long.
 Raffenetti 2 integral format.
 Two-electron integral symmetry is turned on.
 One-electron integrals computed using PRISM.
 NBasis=   762 RedAO= T EigKep=  1.07D-06  NBF=   762
 NBsUse=   741 1.00D-06 EigRej=  9.35D-07 NBFU=   741
 ExpMin= 4.38D-02 ExpMax= 4.56D+03 ExpMxC= 6.82D+02 IAcc=2 IRadAn=         4 AccDes= 0.00D+00
 Harris functional with IExCor=  402 and IRadAn=       4 diagonalized for initial guess.
 HarFok:  IExCor=  402 AccDes= 0.00D+00 IRadAn=         4 IDoV= 1 UseB2=F ITyADJ=14
 ICtDFT=  3500011 ScaDFX=  1.000000  1.000000  1.000000  1.000000
 FoFCou: FMM=F IPFlag=           0 FMFlag=      100000 FMFlg1=           0
         NFxFlg=           0 DoJE=T BraDBF=F KetDBF=T FulRan=T
         wScrn=  0.000000 ICntrl=       500 IOpCl=  0 I1Cent=   200000004 NGrid=           0
         NMat0=    1 NMatS0=      1 NMatT0=    0 NMatD0=    1 NMtDS0=    0 NMtDT0=    0
 Petite list used in FoFCou.
 Initial guess <Sx>= 0.0000 <Sy>= 0.0000 <Sz>= 0.5000 <S**2>= 0.7500 S= 0.5000
 Requested convergence on RMS density matrix=1.00D-08 within 128 cycles.
 Requested convergence on MAX density matrix=1.00D-06.
 Requested convergence on             energy=1.00D-06.
 No special actions if energy rises.
 Restarting incremental Fock formation.
 SCF Done:  E(UB3LYP) =  -1153.65583169     A.U. after   25 cycles
            NFock= 25  Conv=0.88D-08     -V/T= 2.0037
 <Sx>= 0.0000 <Sy>= 0.0000 <Sz>= 0.5000 <S**2>= 0.7809 S= 0.5153
 <L.S>=  0.00000000000    
 Annihilation of the first spin contaminant:
 S**2 before annihilation     0.7809,   after     0.7507

 **********************************************************************

            Population analysis using the SCF Density.

 **********************************************************************

 Orbital symmetries:
 Alpha Orbitals:
       Occupied  (A) (A) (A) (A) (A) (A) (A) (A) (A) (A) (A) (A)
                 (A) (A) (A) (A) (A) (A) (A) (A) (A) (A) (A) (A)
                 (A) (A) (A) (A) (A) (A) (A) (A) (A) (A) (A) (A)
                 (A) (A) (A) (A) (A) (A) (A) (A) (A) (A) (A) (A)
                 (A) (A) (A) (A) (A) (A) (A) (A) (A) (A) (A) (A)
                 (A) (A) (A) (A) (A) (A) (A) (A) (A) (A) (A) (A)
                 (A) (A) (A) (A) (A) (A) (A) (A) (A) (A) (A) (A)
                 (A) (A) (A) (A) (A) (A) (A) (A) (A) (A) (A) (A)
                 (A) (A) (A)
       Virtual   (A) (A) (A) (A) (A) (A) (A) (A) (A) (A) (A) (A)
                 (A) (A) (A) (A) (A) (A) (A) (A) (A) (A) (A) (A)
                 (A) (A) (A) (A) (A) (A) (A) (A) (A) (A) (A) (A)
                 (A) (A) (A) (A) (A) (A) (A) (A) (A) (A) (A) (A)
                 (A) (A) (A) (A) (A) (A) (A) (A) (A) (A) (A) (A)
                 (A) (A) (A) (A) (A) (A) (A) (A) (A) (A) (A) (A)
                 (A) (A) (A) (A) (A) (A) (A) (A) (A) (A) (A) (A)
                 (A) (A) (A) (A) (A) (A) (A) (A) (A) (A) (A) (A)
                 (A) (A) (A) (A) (A) (A) (A) (A) (A) (A) (A) (A)
                 (A) (A) (A) (A) (A) (A) (A) (A) (A) (A) (A) (A)
                 (A) (A) (A) (A) (A) (A) (A) (A) (A) (A) (A) (A)
                 (A) (A) (A) (A) (A) (A) (A) (A) (A) (A) (A) (A)
                 (A) (A) (A) (A) (A) (A) (A) (A) (A) (A) (A) (A)
                 (A) (A) (A) (A) (A) (A) (A) (A) (A) (A) (A) (A)
                 (A) (A) (A) (A) (A) (A) (A) (A) (A) (A) (A) (A)
                 (A) (A) (A) (A) (A) (A) (A) (A) (A) (A) (A) (A)
                 (A) (A) (A) (A) (A) (A) (A) (A) (A) (A) (A) (A)
                 (A) (A) (A) (A) (A) (A) (A) (A) (A) (A) (A) (A)
                 (A) (A) (A) (A) (A) (A) (A) (A) (A) (A) (A) (A)
                 (A) (A) (A) (A) (A) (A) (A) (A) (A) (A) (A) (A)
                 (A) (A) (A) (A) (A) (A) (A) (A) (A) (A) (A) (A)
                 (A) (A) (A) (A) (A) (A) (A) (A) (A) (A) (A) (A)
                 (A) (A) (A) (A) (A) (A) (A) (A) (A) (A) (A) (A)
                 (A) (A) (A) (A) (A) (A) (A) (A) (A) (A) (A) (A)
                 (A) (A) (A) (A) (A) (A) (A) (A) (A) (A) (A) (A)
                 (A) (A) (A) (A) (A) (A) (A) (A) (A) (A) (A) (A)
                 (A) (A) (A) (A) (A) (A) (A) (A) (A) (A) (A) (A)
                 (A) (A) (A) (A) (A) (A) (A) (A) (A) (A) (A) (A)
                 (A) (A) (A) (A) (A) (A) (A) (A) (A) (A) (A) (A)
                 (A) (A) (A) (A) (A) (A) (A) (A) (A) (A) (A) (A)
                 (A) (A) (A) (A) (A) (A) (A) (A) (A) (A) (A) (A)
                 (A) (A) (A) (A) (A) (A) (A) (A) (A) (A) (A) (A)
                 (A) (A) (A) (A) (A) (A) (A) (A) (A) (A) (A) (A)
                 (A) (A) (A) (A) (A) (A) (A) (A) (A) (A) (A) (A)
                 (A) (A) (A) (A) (A) (A) (A) (A) (A) (A) (A) (A)
                 (A) (A) (A) (A) (A) (A) (A) (A) (A) (A) (A) (A)
                 (A) (A) (A) (A) (A) (A) (A) (A) (A) (A) (A) (A)
                 (A) (A) (A) (A) (A) (A) (A) (A) (A) (A) (A) (A)
                 (A) (A) (A) (A) (A) (A) (A) (A) (A) (A) (A) (A)
                 (A) (A) (A) (A) (A) (A) (A) (A) (A) (A) (A) (A)
                 (A) (A) (A) (A) (A) (A) (A) (A) (A) (A) (A) (A)
                 (A) (A) (A) (A) (A) (A) (A) (A) (A) (A) (A) (A)
                 (A) (A) (A) (A) (A) (A) (A) (A) (A) (A) (A) (A)
                 (A) (A) (A) (A) (A) (A) (A) (A) (A) (A) (A) (A)
                 (A) (A) (A) (A) (A) (A) (A) (A) (A) (A) (A) (A)
                 (A) (A) (A) (A) (A) (A) (A) (A) (A) (A) (A) (A)
                 (A) (A) (A) (A) (A) (A) (A) (A) (A) (A) (A) (A)
                 (A) (A) (A) (A) (A) (A) (A) (A) (A) (A) (A) (A)
                 (A) (A) (A) (A) (A) (A) (A) (A) (A) (A) (A) (A)
                 (A) (A) (A) (A) (A) (A) (A) (A) (A) (A) (A) (A)
                 (A) (A) (A) (A) (A) (A) (A) (A) (A) (A) (A) (A)
                 (A) (A) (A) (A) (A) (A) (A) (A) (A) (A) (A) (A)
                 (A) (A) (A) (A) (A) (A) (A) (A) (A) (A) (A) (A)
                 (A) (A) (A) (A) (A) (A)
 Beta  Orbitals:
       Occupied  (A) (A) (A) (A) (A) (A) (A) (A) (A) (A) (A) (A)
                 (A) (A) (A) (A) (A) (A) (A) (A) (A) (A) (A) (A)
                 (A) (A) (A) (A) (A) (A) (A) (A) (A) (A) (A) (A)
                 (A) (A) (A) (A) (A) (A) (A) (A) (A) (A) (A) (A)
                 (A) (A) (A) (A) (A) (A) (A) (A) (A) (A) (A) (A)
                 (A) (A) (A) (A) (A) (A) (A) (A) (A) (A) (A) (A)
                 (A) (A) (A) (A) (A) (A) (A) (A) (A) (A) (A) (A)
                 (A) (A) (A) (A) (A) (A) (A) (A) (A) (A) (A) (A)
                 (A) (A)
       Virtual   (A) (A) (A) (A) (A) (A) (A) (A) (A) (A) (A) (A)
                 (A) (A) (A) (A) (A) (A) (A) (A) (A) (A) (A) (A)
                 (A) (A) (A) (A) (A) (A) (A) (A) (A) (A) (A) (A)
                 (A) (A) (A) (A) (A) (A) (A) (A) (A) (A) (A) (A)
                 (A) (A) (A) (A) (A) (A) (A) (A) (A) (A) (A) (A)
                 (A) (A) (A) (A) (A) (A) (A) (A) (A) (A) (A) (A)
                 (A) (A) (A) (A) (A) (A) (A) (A) (A) (A) (A) (A)
                 (A) (A) (A) (A) (A) (A) (A) (A) (A) (A) (A) (A)
                 (A) (A) (A) (A) (A) (A) (A) (A) (A) (A) (A) (A)
                 (A) (A) (A) (A) (A) (A) (A) (A) (A) (A) (A) (A)
                 (A) (A) (A) (A) (A) (A) (A) (A) (A) (A) (A) (A)
                 (A) (A) (A) (A) (A) (A) (A) (A) (A) (A) (A) (A)
                 (A) (A) (A) (A) (A) (A) (A) (A) (A) (A) (A) (A)
                 (A) (A) (A) (A) (A) (A) (A) (A) (A) (A) (A) (A)
                 (A) (A) (A) (A) (A) (A) (A) (A) (A) (A) (A) (A)
                 (A) (A) (A) (A) (A) (A) (A) (A) (A) (A) (A) (A)
                 (A) (A) (A) (A) (A) (A) (A) (A) (A) (A) (A) (A)
                 (A) (A) (A) (A) (A) (A) (A) (A) (A) (A) (A) (A)
                 (A) (A) (A) (A) (A) (A) (A) (A) (A) (A) (A) (A)
                 (A) (A) (A) (A) (A) (A) (A) (A) (A) (A) (A) (A)
                 (A) (A) (A) (A) (A) (A) (A) (A) (A) (A) (A) (A)
                 (A) (A) (A) (A) (A) (A) (A) (A) (A) (A) (A) (A)
                 (A) (A) (A) (A) (A) (A) (A) (A) (A) (A) (A) (A)
                 (A) (A) (A) (A) (A) (A) (A) (A) (A) (A) (A) (A)
                 (A) (A) (A) (A) (A) (A) (A) (A) (A) (A) (A) (A)
                 (A) (A) (A) (A) (A) (A) (A) (A) (A) (A) (A) (A)
                 (A) (A) (A) (A) (A) (A) (A) (A) (A) (A) (A) (A)
                 (A) (A) (A) (A) (A) (A) (A) (A) (A) (A) (A) (A)
                 (A) (A) (A) (A) (A) (A) (A) (A) (A) (A) (A) (A)
                 (A) (A) (A) (A) (A) (A) (A) (A) (A) (A) (A) (A)
                 (A) (A) (A) (A) (A) (A) (A) (A) (A) (A) (A) (A)
                 (A) (A) (A) (A) (A) (A) (A) (A) (A) (A) (A) (A)
                 (A) (A) (A) (A) (A) (A) (A) (A) (A) (A) (A) (A)
                 (A) (A) (A) (A) (A) (A) (A) (A) (A) (A) (A) (A)
                 (A) (A) (A) (A) (A) (A) (A) (A) (A) (A) (A) (A)
                 (A) (A) (A) (A) (A) (A) (A) (A) (A) (A) (A) (A)
                 (A) (A) (A) (A) (A) (A) (A) (A) (A) (A) (A) (A)
                 (A) (A) (A) (A) (A) (A) (A) (A) (A) (A) (A) (A)
                 (A) (A) (A) (A) (A) (A) (A) (A) (A) (A) (A) (A)
                 (A) (A) (A) (A) (A) (A) (A) (A) (A) (A) (A) (A)
                 (A) (A) (A) (A) (A) (A) (A) (A) (A) (A) (A) (A)
                 (A) (A) (A) (A) (A) (A) (A) (A) (A) (A) (A) (A)
                 (A) (A) (A) (A) (A) (A) (A) (A) (A) (A) (A) (A)
                 (A) (A) (A) (A) (A) (A) (A) (A) (A) (A) (A) (A)
                 (A) (A) (A) (A) (A) (A) (A) (A) (A) (A) (A) (A)
                 (A) (A) (A) (A) (A) (A) (A) (A) (A) (A) (A) (A)
                 (A) (A) (A) (A) (A) (A) (A) (A) (A) (A) (A) (A)
                 (A) (A) (A) (A) (A) (A) (A) (A) (A) (A) (A) (A)
                 (A) (A) (A) (A) (A) (A) (A) (A) (A) (A) (A) (A)
                 (A) (A) (A) (A) (A) (A) (A) (A) (A) (A) (A) (A)
                 (A) (A) (A) (A) (A) (A) (A) (A) (A) (A) (A) (A)
                 (A) (A) (A) (A) (A) (A) (A) (A) (A) (A) (A) (A)
                 (A) (A) (A) (A) (A) (A) (A) (A) (A) (A) (A) (A)
                 (A) (A) (A) (A) (A) (A) (A)
 The electronic state is 2-A.
 Alpha  occ. eigenvalues --  -10.19931 -10.19413 -10.19353 -10.19073 -10.19047
 Alpha  occ. eigenvalues --  -10.18940 -10.18869 -10.18813 -10.18762 -10.18716
 Alpha  occ. eigenvalues --  -10.18703 -10.18630 -10.18560 -10.18546 -10.18508
 Alpha  occ. eigenvalues --  -10.18434 -10.18415 -10.18358 -10.18338 -10.18226
 Alpha  occ. eigenvalues --  -10.18152 -10.18014 -10.17908 -10.17874 -10.17854
 Alpha  occ. eigenvalues --  -10.17772 -10.17535 -10.15643 -10.15497 -10.15134
 Alpha  occ. eigenvalues --   -0.92821  -0.89092  -0.88376  -0.85798  -0.84200
 Alpha  occ. eigenvalues --   -0.83208  -0.80991  -0.79254  -0.78071  -0.77413
 Alpha  occ. eigenvalues --   -0.75897  -0.74442  -0.72560  -0.71224  -0.70806
 Alpha  occ. eigenvalues --   -0.67564  -0.64839  -0.64412  -0.63568  -0.61796
 Alpha  occ. eigenvalues --   -0.60944  -0.59268  -0.58836  -0.57369  -0.56213
 Alpha  occ. eigenvalues --   -0.53343  -0.51972  -0.51499  -0.51093  -0.49738
 Alpha  occ. eigenvalues --   -0.49069  -0.47867  -0.47235  -0.46390  -0.45605
 Alpha  occ. eigenvalues --   -0.45049  -0.44449  -0.44043  -0.43793  -0.43598
 Alpha  occ. eigenvalues --   -0.42830  -0.42482  -0.42250  -0.41083  -0.40453
 Alpha  occ. eigenvalues --   -0.40356  -0.40019  -0.39799  -0.39206  -0.38060
 Alpha  occ. eigenvalues --   -0.37336  -0.36533  -0.36119  -0.35307  -0.34659
 Alpha  occ. eigenvalues --   -0.34368  -0.33639  -0.33103  -0.32964  -0.32673
 Alpha  occ. eigenvalues --   -0.30415  -0.29243  -0.28097  -0.26454  -0.24713
 Alpha  occ. eigenvalues --   -0.22452  -0.21570  -0.20212  -0.17274
 Alpha virt. eigenvalues --   -0.08631  -0.05549  -0.04493  -0.02720  -0.01007
 Alpha virt. eigenvalues --   -0.00642  -0.00044   0.00591   0.00782   0.01459
 Alpha virt. eigenvalues --    0.01655   0.01898   0.02132   0.02424   0.02828
 Alpha virt. eigenvalues --    0.03128   0.03270   0.03976   0.04211   0.04455
 Alpha virt. eigenvalues --    0.04831   0.05316   0.05530   0.05607   0.06467
 Alpha virt. eigenvalues --    0.06558   0.06829   0.07262   0.07389   0.08019
 Alpha virt. eigenvalues --    0.08253   0.08518   0.08733   0.09398   0.09450
 Alpha virt. eigenvalues --    0.09961   0.10173   0.10384   0.10535   0.11291
 Alpha virt. eigenvalues --    0.11461   0.11660   0.11962   0.12364   0.12764
 Alpha virt. eigenvalues --    0.13112   0.13225   0.13631   0.13885   0.14452
 Alpha virt. eigenvalues --    0.14790   0.15062   0.15209   0.15472   0.15731
 Alpha virt. eigenvalues --    0.15907   0.16246   0.16515   0.16659   0.16910
 Alpha virt. eigenvalues --    0.17176   0.17368   0.17501   0.17619   0.18057
 Alpha virt. eigenvalues --    0.18239   0.18460   0.18655   0.18858   0.19236
 Alpha virt. eigenvalues --    0.19324   0.19697   0.19863   0.19934   0.20115
 Alpha virt. eigenvalues --    0.20147   0.20392   0.20512   0.20674   0.21063
 Alpha virt. eigenvalues --    0.21262   0.21482   0.21707   0.21792   0.22258
 Alpha virt. eigenvalues --    0.22644   0.22718   0.22890   0.22992   0.23213
 Alpha virt. eigenvalues --    0.23603   0.23771   0.24367   0.24378   0.24519
 Alpha virt. eigenvalues --    0.24779   0.24814   0.25084   0.25254   0.25483
 Alpha virt. eigenvalues --    0.25880   0.26017   0.26241   0.26532   0.26891
 Alpha virt. eigenvalues --    0.27144   0.27195   0.27668   0.27940   0.28193
 Alpha virt. eigenvalues --    0.28551   0.28613   0.28715   0.29158   0.29376
 Alpha virt. eigenvalues --    0.29685   0.29880   0.30199   0.30498   0.30538
 Alpha virt. eigenvalues --    0.30845   0.31111   0.31426   0.31851   0.32323
 Alpha virt. eigenvalues --    0.32429   0.32978   0.33202   0.33528   0.33891
 Alpha virt. eigenvalues --    0.34218   0.34474   0.34892   0.35379   0.35768
 Alpha virt. eigenvalues --    0.36240   0.36536   0.37066   0.37327   0.38596
 Alpha virt. eigenvalues --    0.39061   0.39461   0.39719   0.40237   0.41250
 Alpha virt. eigenvalues --    0.41554   0.41794   0.42637   0.42916   0.43359
 Alpha virt. eigenvalues --    0.44475   0.44962   0.45363   0.45842   0.46124
 Alpha virt. eigenvalues --    0.47182   0.47801   0.48555   0.49011   0.49236
 Alpha virt. eigenvalues --    0.50197   0.50580   0.51570   0.51805   0.52282
 Alpha virt. eigenvalues --    0.52478   0.53393   0.53789   0.54164   0.54351
 Alpha virt. eigenvalues --    0.54535   0.55191   0.55286   0.55653   0.56120
 Alpha virt. eigenvalues --    0.56421   0.57097   0.57459   0.57833   0.57870
 Alpha virt. eigenvalues --    0.58386   0.58862   0.59101   0.59423   0.59701
 Alpha virt. eigenvalues --    0.60165   0.60372   0.60680   0.60832   0.61426
 Alpha virt. eigenvalues --    0.61849   0.62544   0.62985   0.63349   0.63648
 Alpha virt. eigenvalues --    0.63917   0.64296   0.65038   0.65342   0.65449
 Alpha virt. eigenvalues --    0.65900   0.66461   0.66746   0.67350   0.67583
 Alpha virt. eigenvalues --    0.68428   0.68589   0.68860   0.69693   0.69821
 Alpha virt. eigenvalues --    0.69859   0.70475   0.70655   0.71096   0.71779
 Alpha virt. eigenvalues --    0.71913   0.72479   0.72548   0.72659   0.72995
 Alpha virt. eigenvalues --    0.73368   0.73552   0.73750   0.74416   0.74850
 Alpha virt. eigenvalues --    0.75352   0.75417   0.76191   0.76468   0.76671
 Alpha virt. eigenvalues --    0.77072   0.77866   0.78166   0.78345   0.78830
 Alpha virt. eigenvalues --    0.79325   0.80017   0.80373   0.81309   0.81803
 Alpha virt. eigenvalues --    0.82915   0.83410   0.83774   0.84685   0.84872
 Alpha virt. eigenvalues --    0.85435   0.86438   0.87344   0.87459   0.87519
 Alpha virt. eigenvalues --    0.88393   0.89551   0.89818   0.90173   0.91036
 Alpha virt. eigenvalues --    0.91457   0.91606   0.91982   0.92431   0.92930
 Alpha virt. eigenvalues --    0.93200   0.93721   0.94101   0.94547   0.94673
 Alpha virt. eigenvalues --    0.95678   0.96212   0.96674   0.96858   0.97234
 Alpha virt. eigenvalues --    0.97626   0.98092   0.98379   0.98565   0.99078
 Alpha virt. eigenvalues --    0.99574   1.00281   1.00942   1.01436   1.01520
 Alpha virt. eigenvalues --    1.01916   1.02206   1.03222   1.03782   1.04614
 Alpha virt. eigenvalues --    1.04985   1.05735   1.06256   1.06339   1.06892
 Alpha virt. eigenvalues --    1.07286   1.07953   1.08484   1.09375   1.09794
 Alpha virt. eigenvalues --    1.10188   1.10739   1.12040   1.13076   1.13381
 Alpha virt. eigenvalues --    1.13970   1.15247   1.15397   1.16403   1.17645
 Alpha virt. eigenvalues --    1.18819   1.19146   1.19454   1.20371   1.21507
 Alpha virt. eigenvalues --    1.23023   1.23543   1.24762   1.25554   1.27486
 Alpha virt. eigenvalues --    1.29263   1.31179   1.31374   1.31858   1.33198
 Alpha virt. eigenvalues --    1.34420   1.36004   1.36791   1.36968   1.38615
 Alpha virt. eigenvalues --    1.39129   1.41558   1.42371   1.42833   1.44133
 Alpha virt. eigenvalues --    1.45683   1.46915   1.47681   1.48072   1.48345
 Alpha virt. eigenvalues --    1.48722   1.49437   1.49922   1.50268   1.50772
 Alpha virt. eigenvalues --    1.51134   1.51419   1.52280   1.53081   1.53679
 Alpha virt. eigenvalues --    1.54530   1.55311   1.56031   1.57168   1.57408
 Alpha virt. eigenvalues --    1.57800   1.58857   1.59308   1.60041   1.60670
 Alpha virt. eigenvalues --    1.60896   1.61923   1.63164   1.63464   1.63828
 Alpha virt. eigenvalues --    1.64478   1.64776   1.65780   1.66697   1.67116
 Alpha virt. eigenvalues --    1.68154   1.68599   1.69804   1.70504   1.70760
 Alpha virt. eigenvalues --    1.72195   1.72291   1.72851   1.73542   1.74285
 Alpha virt. eigenvalues --    1.75163   1.75610   1.75982   1.76224   1.77208
 Alpha virt. eigenvalues --    1.77310   1.78080   1.78599   1.79159   1.80526
 Alpha virt. eigenvalues --    1.81355   1.82686   1.83524   1.83746   1.84818
 Alpha virt. eigenvalues --    1.85077   1.85612   1.86541   1.87059   1.88035
 Alpha virt. eigenvalues --    1.88407   1.88886   1.89034   1.89881   1.90531
 Alpha virt. eigenvalues --    1.91016   1.92272   1.92316   1.92616   1.92946
 Alpha virt. eigenvalues --    1.93020   1.93768   1.94951   1.95327   1.95863
 Alpha virt. eigenvalues --    1.96431   1.97352   1.97824   1.98413   1.98917
 Alpha virt. eigenvalues --    1.99391   1.99861   2.00339   2.01540   2.01755
 Alpha virt. eigenvalues --    2.02393   2.03263   2.04340   2.05543   2.05675
 Alpha virt. eigenvalues --    2.06461   2.07334   2.07695   2.08485   2.09435
 Alpha virt. eigenvalues --    2.10329   2.11629   2.12643   2.13062   2.13607
 Alpha virt. eigenvalues --    2.14594   2.15034   2.16783   2.17401   2.18821
 Alpha virt. eigenvalues --    2.19604   2.20368   2.21316   2.21642   2.21957
 Alpha virt. eigenvalues --    2.23523   2.23913   2.25024   2.26656   2.27173
 Alpha virt. eigenvalues --    2.27735   2.29227   2.30411   2.32015   2.33910
 Alpha virt. eigenvalues --    2.34543   2.35566   2.38692   2.39813   2.39969
 Alpha virt. eigenvalues --    2.42093   2.42362   2.43239   2.43576   2.44470
 Alpha virt. eigenvalues --    2.45356   2.45913   2.46533   2.48650   2.49238
 Alpha virt. eigenvalues --    2.49539   2.51163   2.53409   2.57028   2.57846
 Alpha virt. eigenvalues --    2.58270   2.59275   2.60408   2.61081   2.62676
 Alpha virt. eigenvalues --    2.64001   2.64718   2.65839   2.67732   2.68218
 Alpha virt. eigenvalues --    2.68452   2.69279   2.69508   2.70207   2.70576
 Alpha virt. eigenvalues --    2.71492   2.72417   2.72981   2.73430   2.73642
 Alpha virt. eigenvalues --    2.74182   2.74403   2.75282   2.75606   2.76147
 Alpha virt. eigenvalues --    2.76359   2.76491   2.77109   2.77478   2.77750
 Alpha virt. eigenvalues --    2.78324   2.78962   2.79473   2.79941   2.80327
 Alpha virt. eigenvalues --    2.80459   2.82177   2.82333   2.83989   2.84935
 Alpha virt. eigenvalues --    2.85039   2.86071   2.87193   2.87885   2.88512
 Alpha virt. eigenvalues --    2.89563   2.90463   2.91718   2.92460   2.92651
 Alpha virt. eigenvalues --    2.92882   2.93743   2.94323   2.95435   2.96868
 Alpha virt. eigenvalues --    2.98630   2.99253   3.00840   3.01917   3.04044
 Alpha virt. eigenvalues --    3.04714   3.06128   3.07149   3.08653   3.10647
 Alpha virt. eigenvalues --    3.12905   3.14237   3.16742   3.17473   3.18161
 Alpha virt. eigenvalues --    3.20594   3.22115   3.22849   3.23420   3.24406
 Alpha virt. eigenvalues --    3.24634   3.26606   3.28974   3.33897   3.35097
 Alpha virt. eigenvalues --    3.36438   3.36593   3.37665   3.40240   3.41440
 Alpha virt. eigenvalues --    3.41755   3.42055   3.43304   3.44281   3.45902
 Alpha virt. eigenvalues --    3.46962   3.48428   3.49472   3.50793   3.52125
 Alpha virt. eigenvalues --    3.52923   3.54041   3.55255   3.56856   3.57694
 Alpha virt. eigenvalues --    3.59468   3.61807   3.64109   3.64773   3.65673
 Alpha virt. eigenvalues --    3.67699   3.71122   3.72843   3.79136   3.83864
 Alpha virt. eigenvalues --    3.87257   3.89921   3.94195   4.04028   4.04578
 Alpha virt. eigenvalues --    4.06356   4.08146   4.08596   4.10510   4.13145
 Alpha virt. eigenvalues --    4.14998   4.18459   4.22644   4.24048   4.26308
 Alpha virt. eigenvalues --    4.30976   4.35860   4.50765   4.65106   4.77094
 Alpha virt. eigenvalues --    4.77433   4.78530   4.80826   4.83120   4.84203
 Alpha virt. eigenvalues --    4.85247   4.90625  23.43064  23.62310  23.71057
 Alpha virt. eigenvalues --   23.80647  23.86545  23.89855  23.91506  23.94182
 Alpha virt. eigenvalues --   23.95399  23.97938  23.98842  24.00172  24.00757
 Alpha virt. eigenvalues --   24.01678  24.03447  24.04071  24.05436  24.06132
 Alpha virt. eigenvalues --   24.06664  24.07121  24.08192  24.09779  24.10263
 Alpha virt. eigenvalues --   24.10341  24.13825  24.14011  24.16777  24.18970
 Alpha virt. eigenvalues --   24.23058  24.35323
  Beta  occ. eigenvalues --  -10.19841 -10.19564 -10.19263 -10.19089 -10.19010
  Beta  occ. eigenvalues --  -10.18908 -10.18810 -10.18728 -10.18691 -10.18686
  Beta  occ. eigenvalues --  -10.18608 -10.18561 -10.18523 -10.18511 -10.18478
  Beta  occ. eigenvalues --  -10.18340 -10.18281 -10.18264 -10.18224 -10.18168
  Beta  occ. eigenvalues --  -10.17994 -10.17963 -10.17907 -10.17849 -10.17848
  Beta  occ. eigenvalues --  -10.17779 -10.17561 -10.15598 -10.15587 -10.15060
  Beta  occ. eigenvalues --   -0.92640  -0.88981  -0.88127  -0.85651  -0.84030
  Beta  occ. eigenvalues --   -0.83075  -0.80828  -0.79170  -0.77975  -0.76982
  Beta  occ. eigenvalues --   -0.75805  -0.74385  -0.72497  -0.70836  -0.70767
  Beta  occ. eigenvalues --   -0.67271  -0.64743  -0.64145  -0.63445  -0.61736
  Beta  occ. eigenvalues --   -0.60738  -0.59205  -0.58617  -0.57152  -0.56109
  Beta  occ. eigenvalues --   -0.53240  -0.51908  -0.51417  -0.51029  -0.49645
  Beta  occ. eigenvalues --   -0.48888  -0.47760  -0.47137  -0.46270  -0.45531
  Beta  occ. eigenvalues --   -0.44403  -0.44099  -0.43912  -0.43686  -0.43043
  Beta  occ. eigenvalues --   -0.42764  -0.42383  -0.42141  -0.40977  -0.40356
  Beta  occ. eigenvalues --   -0.40224  -0.39953  -0.39763  -0.39100  -0.37846
  Beta  occ. eigenvalues --   -0.37199  -0.36419  -0.35818  -0.35205  -0.34472
  Beta  occ. eigenvalues --   -0.34295  -0.33501  -0.32967  -0.32730  -0.32476
  Beta  occ. eigenvalues --   -0.29938  -0.28891  -0.27154  -0.26293  -0.24535
  Beta  occ. eigenvalues --   -0.22029  -0.20676  -0.20095
  Beta virt. eigenvalues --   -0.11161  -0.07621  -0.05386  -0.04214  -0.01535
  Beta virt. eigenvalues --   -0.00838  -0.00572   0.00201   0.00596   0.00786
  Beta virt. eigenvalues --    0.01476   0.01665   0.02117   0.02214   0.02471
  Beta virt. eigenvalues --    0.02941   0.03237   0.03390   0.04053   0.04235
[...]
 -0.00000610,-0.00000008,0.00000028,-0.00000247,0.00000081,0.00000770,-
 0.00000622,0.00000028,0.00000456,-0.00002186,-0.00004553,0.00105206,0.
 00011051,0.00091086,0.22770829,-0.00000592,0.00000902,0.00000584,-0.00
 003836,-0.00002340,-0.00000185,0.00000633,0.00002537,0.00001719,0.0000
 1467,-0.00001882,0.00000094,-0.00001454,-0.00001957,-0.00000264,-0.000
 00424,0.00002098,-0.00000489,0.00004414,0.00002288,0.00004460,0.000260
 96,-0.00045747,-0.00035248,-0.00016599,0.00000002,-0.00002966,-0.00000
 214,-0.00005161,0.00003058,-0.00005618,0.00006831,-0.00020863,0.000288
 25,-0.00016899,-0.00009469,0.00297513,-0.00197969,0.00454908,-0.001286
 14,-0.00033850,0.00006169,0.00000007,-0.00000860,-0.00000037,-0.000013
 85,0.00000213,0.00000149,0.00000301,-0.00004540,-0.00000843,-0.0000242
 1,-0.00001288,-0.00001240,-0.02500034,-0.01593521,0.00435359,0.0022515
 1,-0.00050657,0.00116467,0.00934182,0.00903165,-0.00179194,-0.13274448
 ,-0.16528742,0.02792202,0.00001523,-0.00000965,0.00000460,-0.00000104,
 0.00001088,-0.00000088,-0.00000950,0.00000836,-0.00000540,0.00000803,0
 .00001247,-0.00000826,-0.00001054,0.00000637,0.00002481,-0.00000350,-0
 .00000061,0.00000131,0.00000647,0.00000089,0.00000384,-0.00000324,0.00
 000641,0.00000102,0.00000148,0.00000201,-0.00000091,0.00000158,0.00000
 074,-0.00000226,-0.00000146,-0.00000089,-0.00000527,-0.00000256,0.0000
 0125,-0.00000045,-0.00000194,0.00000305,0.00000079,-0.00000282,-0.0000
 0138,-0.00000133,-0.00000425,-0.00000006,-0.00000172,-0.00000431,-0.00
 000098,-0.00000186,-0.00000208,-0.00000629,0.00000039,-0.00001549,-0.0
 0001773,0.00000298,0.00001166,-0.00000134,-0.00000116,0.00005433,0.000
 01618,0.00016739,0.00042749,0.00012488,-0.00224674,0.14452924,0.174179
 83,-0.00001988,0.00000222,0.00001387,0.00003144,0.00000956,0.00000916,
 0.00001385,0.00003807,0.00003939,0.00005824,-0.00006977,-0.00000403,0.
 00001908,0.00001501,0.00000458,0.00000786,-0.00001203,-0.00000841,0.00
 009720,-0.00016802,0.00010387,-0.00023974,-0.00015878,-0.00101160,0.00
 008230,0.00010776,-0.00005444,-0.00010626,-0.00001110,0.00007470,0.000
 00033,0.00001147,-0.00051032,-0.00024175,-0.00009640,-0.00043501,-0.00
 206689,0.00407837,0.00922816,0.00084125,0.00068950,-0.00012406,0.00000
 010,-0.00001081,-0.00000310,0.00000650,0.00000910,-0.00000714,-0.00002
 025,0.00004325,-0.00000406,0.00006316,0.00000275,-0.00002286,0.0088653
 6,0.00758028,0.00417506,-0.00129417,0.00178094,0.00081466,-0.00579874,
 -0.00569595,0.00227775,0.02244288,0.02746247,-0.04178661,-0.00000641,-
 0.00000713,-0.00000579,0.00001659,0.00000021,0.00000832,0.00000569,-0.
 00001072,-0.00000358,-0.00000430,0.00001235,0.00001460,-0.00002125,0.0
 0002190,0.00004310,0.00001278,-0.00003009,0.00002334,0.00000177,0.0000
 1932,0.00000064,-0.00001926,-0.00000800,-0.00001957,0.00000201,-0.0000
 0007,0.00000106,0.00000239,-0.00000713,-0.00000965,-0.00000773,0.00001
 946,-0.00000538,-0.00000387,0.00000009,0.00000058,-0.00000278,0.000000
 25,0.00000076,-0.00000072,-0.00000190,0.00000040,-0.00000014,-0.000000
 99,0.00000297,0.00000055,-0.00000065,-0.00000439,0.00000135,0.00000092
 ,0.00000208,0.00000293,0.00000423,0.00000824,-0.00000009,-0.00000087,-
 0.00000502,-0.00002128,0.00006936,0.00038742,0.00068112,-0.00226705,-0
 .00602092,-0.02372502,-0.03340787,0.03150411,-0.00001235,0.00005357,-0
 .00000076,0.00010806,-0.00013165,0.00000017,-0.00009968,0.00005238,-0.
 00000642,0.00013772,-0.00010399,0.00000719,0.00002722,-0.00000004,0.00
 001511,-0.00000251,0.00001380,0.00000343,0.00008608,0.00023313,0.00001
 324,-0.00008589,-0.00036457,0.00004093,0.00009146,0.00021813,-0.000021
 84,-0.00018428,-0.00007922,-0.00000158,0.00017068,-0.00074181,0.000522
 81,-0.00082760,0.00058766,-0.00037883,0.00147113,-0.00039438,0.0000032
 3,-0.00004297,0.00017852,-0.00011406,-0.00003136,-0.00000971,-0.000005
 68,-0.00007752,0.00000089,-0.00000010,-0.00023595,0.00005959,0.0001238
 5,0.00038967,0.00028135,-0.00015523,0.00033956,-0.00000971,0.00008087,
 -0.30710219,0.07622466,-0.06048692,-0.01593274,0.00724376,-0.00467263,
 -0.00054528,-0.00406028,0.00148510,0.00007386,-0.00006746,0.00003044,0
 .00002805,0.00007504,0.00005044,0.00000501,-0.00005623,-0.00005093,-0.
 00159515,-0.00047716,0.00084266,-0.00118936,0.00046119,0.00256207,-0.0
 0043076,-0.00014882,0.00056933,-0.00009703,0.00019391,-0.00012086,0.00
 012305,-0.00013637,-0.00006731,0.00000101,0.00000440,-0.00001202,-0.00
 001205,-0.00002522,-0.00004982,-0.00045110,0.00021096,0.00010487,0.000
 00790,-0.00001412,-0.00000699,0.00001354,0.00000502,0.00000355,0.00000
 727,0.00000077,-0.00001022,0.00000607,0.00000531,-0.00000043,0.0000000
 5,0.00000429,-0.00000105,0.00000213,0.00000131,-0.00000203,-0.00000257
 ,0.00000389,0.00000116,-0.00000015,-0.00000507,-0.00000444,0.00003504,
 0.00003036,-0.00000782,-0.00002015,0.00007072,-0.00002477,-0.00088508,
 0.00051919,-0.00033230,0.32621158,-0.00002423,0.00002731,0.00002666,0.
 00009406,-0.00023160,-0.00011325,-0.00002318,0.00018214,0.00008478,0.0
 0004334,-0.00010718,0.00000858,-0.00000755,-0.00000201,-0.00000140,0.0
 0002251,0.00002338,0.00000128,-0.00000985,-0.00004822,-0.00021028,0.00
 008698,0.00023771,0.00008116,-0.00009086,-0.00002095,0.00000390,-0.000
 02520,-0.00001404,0.00000328,0.00114941,0.00079881,-0.00139910,0.02829
 911,-0.00626177,0.00671761,-0.00142948,-0.00360984,0.00420768,0.001596
 10,0.00002956,-0.00004325,0.00002781,-0.00001098,-0.00000133,-0.000073
 14,0.00001242,-0.00007690,-0.00048361,-0.00012292,0.00007466,-0.000283
 22,-0.00017763,0.00004759,-0.00024702,-0.00018301,-0.00018492,0.073418
 08,-0.07582797,0.02696948,-0.02086904,0.00863587,-0.00477985,-0.002256
 59,-0.00359839,0.00195838,-0.00002506,-0.00001795,-0.00000508,0.000056
 27,0.00001818,0.00005362,-0.00004281,0.00017421,-0.00010774,0.00006329
 ,0.00037766,0.00006931,0.00055905,0.00022019,-0.00040590,0.00009758,-0
 .00002273,-0.00038914,-0.00001803,-0.00011534,0.00002578,0.00010496,-0
 .00017406,0.00012393,0.00000895,-0.00000370,-0.00001190,-0.00001162,-0
 .00000392,-0.00003821,-0.00002360,-0.00004146,0.00004535,-0.00000603,-
 0.00001143,0.00000106,0.00000185,-0.00000158,-0.00000046,0.00000715,-0
 .00000639,0.00000084,0.00000126,0.00000659,0.00000442,-0.00000269,0.00
 000790,0.00000385,-0.00000066,0.00000003,-0.00000173,-0.00000840,-0.00
 000314,0.00000218,-0.00000003,0.00001011,-0.00000822,0.00013757,-0.000
 47054,-0.00021181,0.00011743,0.00008917,-0.00019368,-0.00128096,0.0005
 1319,-0.00018662,-0.07970100,0.07839788,-0.00007215,-0.00012510,0.0000
 2616,0.00009436,0.00020623,-0.00002621,0.00011881,-0.00000935,0.000041
 44,-0.00013402,0.00001289,0.00000139,-0.00000882,0.00013050,-0.0000047
 1,0.00009549,-0.00005015,0.00001611,0.00019430,-0.00047257,0.00000114,
 0.00011064,0.00042825,0.00018921,-0.00008810,-0.00039831,-0.00000630,0
 .00026577,0.00013157,0.00001857,0.00137965,-0.00047363,-0.00321666,-0.
 01255979,-0.00024831,0.00415659,-0.00006109,0.00470449,0.00497026,-0.0
 0108108,-0.00075877,0.00004108,0.00002524,0.00000270,-0.00001911,0.000
 05526,-0.00006808,-0.00002338,-0.00000619,0.00028848,0.00014584,-0.000
 03396,0.00020747,-0.00028822,0.00022315,0.00015872,-0.00056377,-0.0576
 7422,0.02891477,-0.04686551,0.00671628,-0.00212594,0.00312529,0.000743
 94,0.00180001,0.00125358,-0.00013897,0.00004296,-0.00005756,-0.0000103
 0,-0.00007604,-0.00002582,0.00031733,-0.00027218,0.00004633,0.00036699
 ,0.00058324,0.00022612,0.00132930,-0.00019999,-0.00144970,0.00005545,-
 0.00036049,-0.00018248,-0.00005048,0.00025190,-0.00004312,-0.00005915,
 -0.00006089,-0.00001256,-0.00002596,0.00003923,-0.00000464,0.00002153,
 0.00000604,-0.00004353,0.00029329,0.00012469,-0.00080419,-0.00003717,0
 .00000999,0.00001735,-0.00004050,-0.00000498,-0.00000049,-0.00000937,-
 0.00001446,0.00000023,-0.00000909,-0.00001283,0.00000715,-0.00000326,-
 0.00000419,0.00000122,0.00000561,-0.00000112,-0.00000257,0.00000838,0.
 00000205,0.00000699,-0.00000146,-0.00001253,-0.00001081,-0.00004011,0.
 00018895,-0.00050645,-0.00000366,-0.00015020,-0.00035056,0.00034050,0.
 00001314,0.00059814,0.05993885,-0.03222678,0.03846012,-0.00016445,0.00
 012589,-0.00007001,0.00012886,-0.00015938,0.00006890,-0.00010971,0.000
 05230,0.00001122,0.00034465,-0.00023296,0.00003961,0.00010368,-0.00001
 213,0.00002204,-0.00005835,-0.00002383,0.00000137,0.00005128,-0.000151
 76,-0.00003336,-0.00026821,-0.00047750,0.00004412,0.00013672,0.0002914
 8,-0.00005336,-0.00032110,-0.00013134,-0.00002139,0.00003777,-0.000664
 12,-0.00061677,-0.00235145,-0.00001434,0.00022372,-0.00027820,-0.00030
 728,-0.00042964,0.00031647,0.00038504,0.00002545,-0.00002194,-0.000175
 97,-0.00000754,0.00008021,0.00009221,0.00003746,-0.00021106,0.00003148
 ,-0.00008422,0.00048284,0.00009770,0.00012549,-0.00422371,-0.00097668,
 -0.00035509,0.00171965,-0.00768756,0.02181019,-0.04510893,0.00018639,-
 0.00709874,-0.00163979,0.01042731,-0.03027662,0.00005091,-0.00002648,0
 .00001111,-0.00000608,0.00003945,-0.00000677,-0.00005345,0.00004430,-0
 .00001099,-0.00003103,-0.00012435,-0.00005552,0.00012655,-0.00002315,-
 0.00005903,-0.00001466,0.00009871,-0.00000600,-0.00001261,-0.00003955,
 -0.00002567,0.00005434,0.00004976,0.00003303,-0.00000446,0.00000598,0.
 00001064,0.00000668,-0.00000446,0.00000005,0.00003783,-0.00003488,-0.0
 0000459,-0.00001022,0.00000265,0.00000497,-0.00000645,0.00000668,0.000
 00368,-0.00000627,-0.00000046,-0.00000104,0.00000044,-0.00000262,0.000
 00093,-0.00000617,-0.00000435,0.00000407,0.00000295,-0.00000319,-0.000
 00396,-0.00000319,0.00000535,0.00000968,0.00001343,-0.00001807,-0.0000
 0924,0.00006495,-0.00006041,0.00008889,-0.00025725,0.00130813,0.001704
 32,0.00030252,-0.00044482,0.00106030,0.00023152,0.00027583,-0.00089962
 ,0.05010573,-0.00006046,0.00001358,-0.00002920,0.00003040,-0.00002735,
 0.00003719,0.00013258,0.00004766,-0.00008154,0.00014269,-0.00022108,0.
 00004498,0.00001756,-0.00000723,0.00000277,0.00000804,0.00000500,0.000
 01851,-0.00012622,-0.00052598,0.00002351,-0.00044590,-0.00043096,0.000
 14760,0.00008213,0.00028866,-0.00004369,-0.00027566,-0.00007616,-0.000
 03131,0.00010106,-0.00073628,-0.00022445,-0.00318507,0.00016463,-0.000
 24405,-0.00013089,-0.00078506,0.00085260,0.00021554,0.00085858,-0.0001
 5975,-0.00000590,-0.00006691,-0.00000416,0.00002636,0.00007423,0.00001
 289,-0.00011863,0.00004767,-0.00005016,0.00023170,0.00007638,0.0000593
 1,0.00175458,0.00156026,-0.00034654,-0.00234548,-0.01191354,0.02241362
 ,0.00063262,-0.04806331,0.05808732,0.00415223,-0.00589987,0.01184395,0
 .00003064,-0.00003018,0.00000328,0.00000984,0.00004328,0.00000822,-0.0
 0002867,-0.00000189,0.00000196,-0.00002251,-0.00007975,-0.00004820,0.0
 0011640,-0.00003720,-0.00003367,-0.00001541,0.00004198,-0.00005563,0.0
 0002060,-0.00000204,0.00001379,-0.00000035,0.00004222,0.00001962,0.000
 00314,-0.00000305,-0.00000701,-0.00001174,0.00002129,0.00004536,-0.000
 00081,-0.00003868,-0.00000541,0.00000334,0.00000311,0.00000120,-0.0000
 0124,0.00000400,0.00000166,-0.00000514,-0.00000062,0.,-0.00000279,-0.0
 0000178,0.00000166,-0.00000493,-0.00000078,0.00000249,-0.00000221,-0.0
 0000630,-0.00000343,-0.00000543,-0.00000548,0.00000911,0.00000984,-0.0
 0000246,-0.00000486,0.00000737,-0.00000977,-0.00009602,0.00018339,-0.0
 0057160,-0.00046706,-0.00009187,0.00031196,-0.00029885,0.00008034,0.00
 051061,-0.00093687,-0.00113911,0.06136758,0.00003802,-0.00003792,0.000
 01337,0.00000534,0.00003063,-0.00000088,-0.00012599,-0.00008990,0.0000
 3520,-0.00015973,0.00020545,-0.00004195,-0.00000790,0.00004862,-0.0000
 0148,0.00002076,-0.00003071,-0.00000715,0.00004167,0.00036557,0.000140
 66,0.00042234,0.00044149,-0.00007173,-0.00006904,-0.00034650,0.0000115
 6,0.00031420,0.00008129,0.00002712,0.00016483,0.00022000,-0.00019327,0
 .00143584,-0.00199684,-0.00057379,0.00004263,0.00115849,-0.00060014,-0
 .00011929,-0.00102082,0.00017122,0.00000306,0.00005372,0.00000506,-0.0
 0002596,-0.00004806,-0.00002086,0.00007693,-0.00000260,0.00008493,-0.0
 0019680,-0.00002920,-0.00008131,-0.00135921,-0.00253624,0.00025168,0.0
 0322233,0.00567078,-0.00365806,-0.00828694,0.05508528,-0.26118569,-0.0
 0387219,0.00391443,-0.00529018,-0.00003399,0.00001661,-0.00000909,0.00
 001133,-0.00002327,0.00000969,0.00002752,-0.00000494,-0.00000929,0.000
 01864,0.00002985,0.00003255,-0.00007008,0.00001633,0.00000077,-0.00002
 514,-0.00003254,-0.00001944,0.00001330,0.00000259,0.00002639,-0.000027
 51,-0.00002235,0.00001217,0.00000771,-0.00001129,-0.00001583,-0.000012
 54,0.00001465,0.00002042,-0.00000899,-0.00000048,0.00001036,0.00001531
 ,-0.00000228,-0.00000381,0.00000877,-0.00000590,-0.00000242,0.00000706
 ,0.00000209,0.00000132,0.00000589,0.00000261,0.00000169,0.00000754,0.0
 0000113,-0.00000116,0.00000327,0.00000994,0.00000025,0.00000667,0.0000
 1146,-0.00000130,-0.00001139,-0.00000235,0.00000475,-0.00000070,-0.000
 00765,0.00005162,0.00000969,0.00023907,0.00019259,-0.00063800,0.000211
 42,0.00038758,0.00044820,0.00054139,0.00074350,0.00852345,-0.06317298,
 0.29064046,-0.00013022,0.00015431,-0.00005045,0.00011557,-0.00021342,0
 .00004697,-0.00019098,0.00008028,0.00001526,0.00039853,-0.00024326,0.0
 0001445,0.00011665,-0.00003253,0.00002260,-0.00007947,-0.00002769,-0.0
 0001015,0.00013803,-0.00000233,-0.00016111,-0.00037351,-0.00070819,0.0
 0011606,0.00020104,0.00045308,0.00000399,-0.00042980,-0.00018125,-0.00
 002689,-0.00051764,-0.00000650,0.00105407,-0.00201009,-0.00014455,0.00
 017444,-0.00071972,-0.00033398,0.00063724,0.00042039,0.00066606,-0.000
 21735,-0.00004272,-0.00017734,-0.00001266,0.00008495,0.00010359,0.0000
 3825,-0.00020910,0.00007166,-0.00007345,0.00063267,-0.00000838,0.00006
 048,-0.00439208,-0.00050203,-0.00046756,0.00563618,-0.02097335,-0.0098
 3349,-0.05532249,0.03742424,0.02158391,-0.00587258,0.02790157,0.013637
 51,0.00008591,-0.00002720,0.00003057,-0.00002153,0.00005440,-0.0000096
 7,-0.00004298,0.00000665,0.00002663,-0.00005441,-0.00019537,-0.0001447
 9,0.00012043,-0.00002827,0.00003064,0.00011315,0.00006451,-0.00007912,
 0.00001614,-0.00001187,0.00002409,-0.00003426,0.00015351,-0.00005424,-
 0.00000153,-0.00000016,0.00001092,0.00001862,0.00001806,0.00010456,-0.
 00000333,-0.00006543,0.00004743,0.00000402,0.00000375,0.00000677,0.000
 00234,0.00000524,0.00000311,-0.00000368,0.00000356,-0.00000108,0.00000
 321,-0.00000121,0.00000006,-0.00000362,-0.00000460,0.00000170,0.000002
 66,-0.00000010,0.00000554,-0.00000384,0.00000703,-0.00000439,0.0000112
 3,-0.00001337,0.00000496,0.00005915,-0.00005773,-0.00000143,0.00004061
 ,0.00020785,-0.00203265,0.00056125,-0.00089669,-0.00038418,0.00029606,
 0.00077528,0.00034841,0.00076878,0.00003403,0.00014907,0.06061205,-0.0
 0005375,0.00006947,-0.00003978,0.00004518,-0.00019961,0.00004405,0.000
 04340,0.00017738,0.00006597,0.00031716,-0.00038146,0.00002329,0.000032
 70,-0.00004996,0.00001519,-0.00000212,0.00003512,-0.00001386,-0.000039
 26,-0.00043954,0.00002305,-0.00064468,-0.00087223,0.00002557,0.0001713
 2,0.00059240,0.00001089,-0.00054814,-0.00016490,-0.00004515,-0.0006926
 2,-0.00037606,0.00082946,-0.00319722,0.00137627,-0.00164128,0.00004542
 ,-0.00170766,-0.00042475,0.00028708,0.00146543,-0.00028057,-0.00003841
 ,-0.00015528,-0.00001678,0.00003367,0.00018360,0.00002582,-0.00017372,
 0.00008739,-0.00003298,0.00063333,0.00008967,0.00006355,0.00228277,0.0
 0243577,-0.00105642,-0.00064372,-0.02403998,-0.00526230,0.04002854,-0.
 21216680,-0.10157752,0.00598025,-0.01067108,-0.00164855,0.00014214,-0.
 00010984,0.00003971,0.00002941,0.00016160,0.00003068,-0.00013507,0.000
 00186,-0.00003199,0.00000726,-0.00027827,-0.00006932,0.00006066,-0.000
 02769,0.00000220,-0.00000804,0.00002952,-0.00011090,0.00005843,0.00002
 334,0.00003132,-0.00004976,0.00017816,-0.00001689,-0.00001176,0.000002
 93,0.00001044,-0.00002026,0.00006590,0.00017674,-0.00004947,-0.0000889
 3,0.00001732,0.00000913,0.00000703,0.00000691,0.00000297,0.00000903,0.
 00000388,-0.00000554,0.00000255,-0.00000390,-0.00000225,-0.00000169,0.
 00000014,-0.00000750,-0.00000067,0.00000013,-0.00000272,-0.00000905,0.
 00000241,-0.00000972,-0.00000887,-0.00000383,0.00001392,0.00000399,-0.
 00000093,0.00001155,0.00002360,0.00008867,0.00004758,-0.00020870,0.000
 66029,0.00025703,0.00051424,0.00047197,-0.00028737,0.00081581,0.000815
 50,-0.00058587,0.00406262,0.00104990,-0.04333191,0.23954361,-0.0000060
 7,0.00000654,-0.00000376,0.00000740,-0.00008298,0.00002308,-0.00003718
 ,0.00003889,-0.00002639,0.00003339,-0.00003816,0.00000958,-0.00000405,
 -0.00000549,-0.00000152,0.00000568,0.00001958,0.00000592,0.00004503,0.
 00005972,0.00008424,0.00004848,0.00006256,0.00005400,-0.00002432,-0.00
 001532,-0.00002163,-0.00001504,0.00000336,-0.00000371,-0.00015982,0.00
 003133,-0.00030323,0.00094587,0.00059407,-0.00128123,0.00000353,0.0003
 5433,0.00028605,-0.00003509,-0.00010602,0.00000334,-0.00001001,-0.0000
 3394,-0.00000425,-0.00000257,0.00002889,0.00001112,-0.00002342,0.00000
 411,-0.00000698,0.00011269,0.00007591,-0.00002012,-0.00111961,0.000102
 32,-0.00041679,-0.00176098,0.00858018,0.00396904,0.02261933,-0.0992941
 7,-0.09091675,-0.00241418,0.00987830,0.00442379,0.00003419,-0.00003610
 ,0.00000408,0.00001834,0.00005272,0.00000874,-0.00009179,0.00004019,-0
 .00003910,0.00003532,-0.00002448,0.00002199,0.00001176,-0.00011804,0.0
 0000598,0.00003296,0.00011737,0.00005301,-0.00004714,-0.00001121,-0.00
 007066,0.00002310,-0.00001172,0.00000491,-0.00001782,0.00001547,0.0000
 3029,0.00002612,-0.00004441,-0.00003357,0.00002945,0.00006728,-0.00003
 744,-0.00001720,-0.00000195,0.00000063,-0.00000814,0.00000299,0.000003
 17,-0.00000286,-0.00000204,-0.00000152,-0.00000278,-0.00000163,0.00000
 002,-0.00000376,-0.00000016,-0.00000010,0.00000037,-0.00000431,-0.0000
 0220,-0.00000110,-0.00000408,0.00000337,0.00000333,-0.00000075,-0.0000
 0083,0.00000304,-0.00000943,-0.00005283,-0.00012059,0.00012589,-0.0006
 3495,0.00056917,-0.00039131,0.00032141,-0.00031248,-0.00045923,0.00041
 454,0.00626450,-0.02730770,-0.02108806,-0.02463504,0.10774262,0.105225
 33\\-0.00000759,0.00000099,0.00000011,0.00000282,0.00005033,0.00000193
 ,0.00000394,-0.00005113,0.00000787,-0.00001215,0.00003308,0.00000031,0
 .00000436,-0.00000804,-0.00000558,-0.00000243,-0.00000939,-0.00000523,
 -0.00000319,0.00002457,0.00000901,0.00001124,0.00004412,-0.00000737,-0
 .00001063,-0.00003079,0.00000301,0.00002496,-0.00000200,0.00000007,0.0
 0005343,0.00000252,-0.00001333,-0.00003074,-0.00001744,0.00001554,0.,0
 .00001114,0.00000040,-0.00000508,-0.00004455,0.00000299,0.00000734,-0.
 00002435,-0.00000250,-0.00001289,-0.00000227,-0.00000415,0.00002494,0.
 00000894,0.00001246,-0.00005304,-0.00001718,0.00000685,0.00001060,0.00
 002447,-0.00000570,0.00002738,0.00002720,-0.00000888,0.00001201,-0.000
 05521,0.00002478,-0.00001873,0.00001559,-0.00001585,-0.00000133,0.0000
 1052,0.00000211,-0.00000443,-0.00000049,-0.00000073,-0.00001681,0.0000
 0825,-0.00000576,0.00000682,-0.00002263,-0.00000551,-0.00000843,0.0000
 0896,-0.00000503,0.00000767,-0.00000583,0.00000061,0.00001240,-0.00000
 041,0.00000838,-0.00000859,0.00000517,-0.00000185,-0.00000047,-0.00000
 102,-0.00000159,-0.00000089,-0.00000191,0.00000014,0.00000389,-0.00000
 386,-0.00000014,-0.00000451,-0.00000485,-0.00000319,0.00000147,0.00000
 025,-0.00000219,0.00000197,-0.00000636,0.00000090,-0.00000122,0.000002
 66,0.00000069,-0.00000316,0.00000543,0.00000143,0.00000356,0.00000073,
 0.00000281,-0.00000444,0.00000015,-0.00000023,0.00000448,0.00000868,-0
 .00000128,0.00000025,0.00000495,-0.00000138,-0.00000373,-0.00000530,0.
 00000446,0.00000096,-0.00000321,0.00000398,-0.00000397,-0.00000244,-0.
 00000747,-0.00000740,0.00001240,-0.00000555,-0.00000063,0.00000955,-0.
 00000037\\\@


 ... FOR AFTERWARDS A MAN FINDS PLEASURE IN HIS PAINS,
 WHEN HE HAS SUFFERED LONG AND WANDERED FAR.

                                    -- HOMER
 Job cpu time:       2 days  5 hours 26 minutes  7.6 seconds.
 Elapsed time:       0 days  2 hours 40 minutes 45.9 seconds.
 File lengths (MBytes):  RWF=   4615 Int=      0 D2E=      0 Chk=     69 Scr=      1
 Normal termination of Gaussian 16 at Wed Jun 12 19:48:06 2019.
