 Entering Gaussian System, Link 0=/share/apps/gaussian16/g16/g16
 Initial command:
 /share/apps/gaussian16/g16/l1.exe "/home/amen01//scratch/464/Gau-20019.inp" -scrdir="/home/amen01//scratch/464/"
 Entering Link 1 = /share/apps/gaussian16/g16/l1.exe PID=     20020.
  
 Copyright (c) 1988-2017, Gaussian, Inc.  All Rights Reserved.
  
 This is part of the Gaussian(R) 16 program.  It is based on
 the Gaussian(R) 09 system (copyright 2009, Gaussian, Inc.),
 the Gaussian(R) 03 system (copyright 2003, Gaussian, Inc.),
 the Gaussian(R) 98 system (copyright 1998, Gaussian, Inc.),
 the Gaussian(R) 94 system (copyright 1995, Gaussian, Inc.),
 the Gaussian 92(TM) system (copyright 1992, Gaussian, Inc.),
 the Gaussian 90(TM) system (copyright 1990, Gaussian, Inc.),
 the Gaussian 88(TM) system (copyright 1988, Gaussian, Inc.),
 the Gaussian 86(TM) system (copyright 1986, Carnegie Mellon
 University), and the Gaussian 82(TM) system (copyright 1983,
 Carnegie Mellon University). Gaussian is a federally registered
 trademark of Gaussian, Inc.
  
 This software contains proprietary and confidential information,
 including trade secrets, belonging to Gaussian, Inc.
  
 This software is provided under written license and may be
 used, copied, transmitted, or stored only in accord with that
 written license.
  
 The following legend is applicable only to US Government
 contracts under FAR:
  
                    RESTRICTED RIGHTS LEGEND
  
 Use, reproduction and disclosure by the US Government is
 subject to restrictions as set forth in subparagraphs (a)
 and (c) of the Commercial Computer Software - Restricted
 Rights clause in FAR 52.227-19.
  
 Gaussian, Inc.
 340 Quinnipiac St., Bldg. 40, Wallingford CT 06492
  
  
 ---------------------------------------------------------------
 Warning -- This program may not be used in any manner that
 competes with the business of Gaussian, Inc. or will provide
 assistance to any competitor of Gaussian, Inc.  The licensee
 of this program is prohibited from giving any competitor of
 Gaussian, Inc. access to this program.  By using this program,
 the user acknowledges that Gaussian, Inc. is engaged in the
 business of creating and licensing software in the field of
 computational chemistry and represents and warrants to the
 licensee that it is not a competitor of Gaussian, Inc. and that
 it will not use this program in any manner prohibited above.
 ---------------------------------------------------------------
  

 Cite this work as:
 Gaussian 16, Revision B.01,
 M. J. Frisch, G. W. Trucks, H. B. Schlegel, G. E. Scuseria, 
 M. A. Robb, J. R. Cheeseman, G. Scalmani, V. Barone, 
 G. A. Petersson, H. Nakatsuji, X. Li, M. Caricato, A. V. Marenich, 
 J. Bloino, B. G. Janesko, R. Gomperts, B. Mennucci, H. P. Hratchian, 
 J. V. Ortiz, A. F. Izmaylov, J. L. Sonnenberg, D. Williams-Young, 
 F. Ding, F. Lipparini, F. Egidi, J. Goings, B. Peng, A. Petrone, 
 T. Henderson, D. Ranasinghe, V. G. Zakrzewski, J. Gao, N. Rega, 
 G. Zheng, W. Liang, M. Hada, M. Ehara, K. Toyota, R. Fukuda, 
 J. Hasegawa, M. Ishida, T. Nakajima, Y. Honda, O. Kitao, H. Nakai, 
 T. Vreven, K. Throssell, J. A. Montgomery, Jr., J. E. Peralta, 
 F. Ogliaro, M. J. Bearpark, J. J. Heyd, E. N. Brothers, K. N. Kudin, 
 V. N. Staroverov, T. A. Keith, R. Kobayashi, J. Normand, 
 K. Raghavachari, A. P. Rendell, J. C. Burant, S. S. Iyengar, 
 J. Tomasi, M. Cossi, J. M. Millam, M. Klene, C. Adamo, R. Cammi, 
 J. W. Ochterski, R. L. Martin, K. Morokuma, O. Farkas, 
 J. B. Foresman, and D. J. Fox, Gaussian, Inc., Wallingford CT, 2016.
 
 ******************************************
 Gaussian 16:  ES64L-G16RevB.01 20-Dec-2017
                12-Jun-2019 
 ******************************************
 %nprocshared=20
 Will use up to   20 processors via shared memory.
 %mem=100GB
 %chk=7-memb-hadd-1b.chk
 -------------------------------------------
 # opt freq b3lyp/6-311+g(d,p) int=grid=fine
 -------------------------------------------
 1/18=20,19=15,26=3,38=1/1,3;
 2/9=110,12=2,17=6,18=5,40=1/2;
 3/5=4,6=6,7=111,11=2,25=1,30=1,71=1,74=-5,75=-4/1,2,3;
 4//1;
 5/5=2,38=5/2;
 6/7=2,8=2,9=2,10=2,28=1/1;
 7//1,2,3,16;
 1/18=20,19=15,26=3/3(2);
 2/9=110/2;
 99//99;
 2/9=110/2;
 3/5=4,6=6,7=111,11=2,25=1,30=1,71=1,74=-5,75=-4/1,2,3;
 4/5=5,16=3,69=1/1;
 5/5=2,38=5/2;
 7//1,2,3,16;
 1/18=20,19=15,26=3/3(-5);
 2/9=110/2;
 6/7=2,8=2,9=2,10=2,19=2,28=1/1;
 99/9=1/99;
 --------------
 7-memb-hadd-1b
 --------------
 Symbolic Z-matrix:
 Charge =  0 Multiplicity = 2
 C                    -6.94966   0.09468  -0.23058 
 C                    -5.72705   0.71994  -0.07425 
 C                    -4.5975    0.01341   0.15303 
 C                    -4.52502  -1.36915   0.27559 
 C                    -6.95683  -1.32586  -0.13262 
 C                    -5.76129  -2.04747   0.13126 
 C                    -3.5425    0.85455   0.19629 
 C                    -2.24702   0.38655   0.35657 
 C                    -2.09897  -1.01497   0.55206 
 C                    -3.22387  -1.88269   0.50719 
 C                    -3.96659   2.15546  -0.05114 
 C                    -2.96067   3.08445  -0.35471 
 C                    -1.59566   2.70042  -0.13062 
 C                    -1.25806   1.37644   0.25575 
 C                    -8.00614   0.97723  -0.48666 
 C                    -7.81823   2.38469  -0.42009 
 C                    -6.55095   2.97405  -0.08376 
 C                    -5.44862   2.08601  -0.09556 
 C                    -0.5721    3.63226  -0.36066 
 C                    -3.19788   4.34504  -0.93953 
 C                    -2.16032   5.24825  -1.17824 
 C                    -0.85229   4.90101  -0.86734 
 C                    -8.92438   3.20311  -0.65554 
 C                    -8.8473    4.58195  -0.4914 
 C                    -7.6936    5.17114   0.02354 
 C                    -6.55342   4.37214   0.29185 
 C                    -5.51523   5.00457   1.01784 
 C                    -5.52064   6.38157   1.34599 
 C                    -7.69908   6.54636   0.31481 
 C                    -6.61675   7.15406   0.94536 
 H                    -6.64415   8.21952   1.16283 
 H                    -5.33687   6.50977   2.44985 
 H                    -4.6816    4.41263   1.39275 
 H                    -8.56663   7.15682   0.07183 
 H                    -9.73273   5.18097  -0.69363 
 H                    -9.8758    2.77357  -0.96384 
 H                    -8.99392   0.56703  -0.6868 
 H                    -7.89087  -1.86984  -0.25209 
 H                    -5.79692  -3.13137   0.20626 
 H                    -3.07719  -2.95337   0.62541 
 H                    -1.10742  -1.43819   0.69485 
 H                    -0.21513   1.09576   0.38466 
 H                     0.46658   3.3657   -0.17547 
 H                    -0.04374   5.60322  -1.05241 
 H                    -4.20154   4.63176  -1.24225 
 H                    -2.37977   6.21871  -1.61583 
 H                    -4.5329    6.87844   1.182 
 

 GradGradGradGradGradGradGradGradGradGradGradGradGradGradGradGradGradGrad
 Berny optimization.
 Initialization pass.
                           ----------------------------
                           !    Initial Parameters    !
                           ! (Angstroms and Degrees)  !
 --------------------------                            --------------------------
 ! Name  Definition              Value          Derivative Info.                !
 --------------------------------------------------------------------------------
 ! R1    R(1,2)                  1.3821         estimate D2E/DX2                !
 ! R2    R(1,5)                  1.4239         estimate D2E/DX2                !
 ! R3    R(1,15)                 1.4002         estimate D2E/DX2                !
 ! R4    R(2,3)                  1.3516         estimate D2E/DX2                !
 ! R5    R(2,18)                 1.3943         estimate D2E/DX2                !
 ! R6    R(3,4)                  1.3899         estimate D2E/DX2                !
 ! R7    R(3,7)                  1.35           estimate D2E/DX2                !
 ! R8    R(4,6)                  1.4175         estimate D2E/DX2                !
 ! R9    R(4,10)                 1.4179         estimate D2E/DX2                !
 ! R10   R(5,6)                  1.4212         estimate D2E/DX2                !
 ! R11   R(5,38)                 1.0875         estimate D2E/DX2                !
 ! R12   R(6,39)                 1.0871         estimate D2E/DX2                !
 ! R13   R(7,8)                  1.3867         estimate D2E/DX2                !
 ! R14   R(7,11)                 1.3905         estimate D2E/DX2                !
 ! R15   R(8,9)                  1.4228         estimate D2E/DX2                !
 ! R16   R(8,14)                 1.4029         estimate D2E/DX2                !
 ! R17   R(9,10)                 1.4214         estimate D2E/DX2                !
 ! R18   R(9,41)                 1.0875         estimate D2E/DX2                !
 ! R19   R(10,40)                1.0871         estimate D2E/DX2                !
 ! R20   R(11,12)                1.4025         estimate D2E/DX2                !
 ! R21   R(11,18)                1.4843         estimate D2E/DX2                !
 ! R22   R(12,13)                1.4356         estimate D2E/DX2                !
 ! R23   R(12,20)                1.4097         estimate D2E/DX2                !
 ! R24   R(13,14)                1.4199         estimate D2E/DX2                !
 ! R25   R(13,19)                1.4032         estimate D2E/DX2                !
 ! R26   R(14,42)                1.0877         estimate D2E/DX2                !
 ! R27   R(15,16)                1.4215         estimate D2E/DX2                !
 ! R28   R(15,37)                1.0881         estimate D2E/DX2                !
 ! R29   R(16,17)                1.4375         estimate D2E/DX2                !
 ! R30   R(16,23)                1.396          estimate D2E/DX2                !
 ! R31   R(17,18)                1.4156         estimate D2E/DX2                !
 ! R32   R(17,26)                1.4477         estimate D2E/DX2                !
 ! R33   R(19,22)                1.3946         estimate D2E/DX2                !
 ! R34   R(19,43)                1.0882         estimate D2E/DX2                !
 ! R35   R(20,21)                1.3962         estimate D2E/DX2                !
 ! R36   R(20,45)                1.0868         estimate D2E/DX2                !
 ! R37   R(21,22)                1.3886         estimate D2E/DX2                !
 ! R38   R(21,46)                1.0869         estimate D2E/DX2                !
 ! R39   R(22,44)                1.0868         estimate D2E/DX2                !
 ! R40   R(23,24)                1.3907         estimate D2E/DX2                !
 ! R41   R(23,36)                1.0885         estimate D2E/DX2                !
 ! R42   R(24,25)                1.394          estimate D2E/DX2                !
 ! R43   R(24,35)                1.088          estimate D2E/DX2                !
 ! R44   R(25,26)                1.4179         estimate D2E/DX2                !
 ! R45   R(25,29)                1.4057         estimate D2E/DX2                !
 ! R46   R(26,27)                1.4159         estimate D2E/DX2                !
 ! R47   R(27,28)                1.4156         estimate D2E/DX2                !
 ! R48   R(27,33)                1.089          estimate D2E/DX2                !
 ! R49   R(28,30)                1.3995         estimate D2E/DX2                !
 ! R50   R(28,32)                1.1264         estimate D2E/DX2                !
 ! R51   R(28,47)                1.1178         estimate D2E/DX2                !
 ! R52   R(29,30)                1.3922         estimate D2E/DX2                !
 ! R53   R(29,34)                1.0883         estimate D2E/DX2                !
 ! R54   R(30,31)                1.0878         estimate D2E/DX2                !
 ! A1    A(2,1,5)              116.6153         estimate D2E/DX2                !
 ! A2    A(2,1,15)             113.7651         estimate D2E/DX2                !
 ! A3    A(5,1,15)             129.6112         estimate D2E/DX2                !
 ! A4    A(1,2,3)              121.455          estimate D2E/DX2                !
 ! A5    A(1,2,18)             128.1816         estimate D2E/DX2                !
 ! A6    A(3,2,18)             110.3554         estimate D2E/DX2                !
 ! A7    A(2,3,4)              125.3388         estimate D2E/DX2                !
 ! A8    A(2,3,7)              109.4388         estimate D2E/DX2                !
 ! A9    A(4,3,7)              125.1853         estimate D2E/DX2                !
 ! A10   A(3,4,6)              114.9328         estimate D2E/DX2                !
 ! A11   A(3,4,10)             114.9954         estimate D2E/DX2                !
 ! A12   A(6,4,10)             130.0655         estimate D2E/DX2                !
 ! A13   A(1,5,6)              121.0037         estimate D2E/DX2                !
 ! A14   A(1,5,38)             119.7222         estimate D2E/DX2                !
 ! A15   A(6,5,38)             119.2718         estimate D2E/DX2                !
 ! A16   A(4,6,5)              120.6383         estimate D2E/DX2                !
 ! A17   A(4,6,39)             119.9137         estimate D2E/DX2                !
 ! A18   A(5,6,39)             119.4405         estimate D2E/DX2                !
 ! A19   A(3,7,8)              121.5676         estimate D2E/DX2                !
 ! A20   A(3,7,11)             109.8091         estimate D2E/DX2                !
 ! A21   A(8,7,11)             128.407          estimate D2E/DX2                !
 ! A22   A(7,8,9)              116.457          estimate D2E/DX2                !
 ! A23   A(7,8,14)             114.3384         estimate D2E/DX2                !
 ! A24   A(9,8,14)             129.1662         estimate D2E/DX2                !
 ! A25   A(8,9,10)             120.9741         estimate D2E/DX2                !
 ! A26   A(8,9,41)             119.7525         estimate D2E/DX2                !
 ! A27   A(10,9,41)            119.2189         estimate D2E/DX2                !
 ! A28   A(4,10,9)             120.6843         estimate D2E/DX2                !
 ! A29   A(4,10,40)            119.8871         estimate D2E/DX2                !
 ! A30   A(9,10,40)            119.4079         estimate D2E/DX2                !
 ! A31   A(7,11,12)            116.0701         estimate D2E/DX2                !
 ! A32   A(7,11,18)            105.4308         estimate D2E/DX2                !
 ! A33   A(12,11,18)           137.7853         estimate D2E/DX2                !
 ! A34   A(11,12,13)           118.0982         estimate D2E/DX2                !
 ! A35   A(11,12,20)           124.1528         estimate D2E/DX2                !
 ! A36   A(13,12,20)           117.6422         estimate D2E/DX2                !
 ! A37   A(12,13,14)           121.1964         estimate D2E/DX2                !
 ! A38   A(12,13,19)           119.3636         estimate D2E/DX2                !
 ! A39   A(14,13,19)           119.3664         estimate D2E/DX2                !
 ! A40   A(8,14,13)            120.6558         estimate D2E/DX2                !
 ! A41   A(8,14,42)            119.0341         estimate D2E/DX2                !
 ! A42   A(13,14,42)           120.0551         estimate D2E/DX2                !
 ! A43   A(1,15,16)            121.0483         estimate D2E/DX2                !
 ! A44   A(1,15,37)            118.748          estimate D2E/DX2                !
 ! A45   A(16,15,37)           120.1234         estimate D2E/DX2                !
 ! A46   A(15,16,17)           122.2372         estimate D2E/DX2                !
 ! A47   A(15,16,23)           117.8932         estimate D2E/DX2                !
 ! A48   A(17,16,23)           119.8438         estimate D2E/DX2                !
 ! A49   A(16,17,18)           115.2991         estimate D2E/DX2                !
 ! A50   A(16,17,26)           117.0742         estimate D2E/DX2                !
 ! A51   A(18,17,26)           127.5416         estimate D2E/DX2                !
 ! A52   A(2,18,11)            104.1679         estimate D2E/DX2                !
 ! A53   A(2,18,17)            117.3222         estimate D2E/DX2                !
 ! A54   A(11,18,17)           138.4093         estimate D2E/DX2                !
 ! A55   A(13,19,22)           121.1421         estimate D2E/DX2                !
 ! A56   A(13,19,43)           120.3768         estimate D2E/DX2                !
 ! A57   A(22,19,43)           118.4529         estimate D2E/DX2                !
 ! A58   A(12,20,21)           121.6249         estimate D2E/DX2                !
 ! A59   A(12,20,45)           120.4537         estimate D2E/DX2                !
 ! A60   A(21,20,45)           117.904          estimate D2E/DX2                !
 ! A61   A(20,21,22)           119.9986         estimate D2E/DX2                !
 ! A62   A(20,21,46)           119.7612         estimate D2E/DX2                !
 ! A63   A(22,21,46)           120.2379         estimate D2E/DX2                !
 ! A64   A(19,22,21)           119.874          estimate D2E/DX2                !
 ! A65   A(19,22,44)           120.0143         estimate D2E/DX2                !
 ! A66   A(21,22,44)           120.0739         estimate D2E/DX2                !
 ! A67   A(16,23,24)           121.1602         estimate D2E/DX2                !
 ! A68   A(16,23,36)           120.5988         estimate D2E/DX2                !
 ! A69   A(24,23,36)           118.2381         estimate D2E/DX2                !
 ! A70   A(23,24,25)           120.5646         estimate D2E/DX2                !
 ! A71   A(23,24,35)           118.6092         estimate D2E/DX2                !
 ! A72   A(25,24,35)           120.6292         estimate D2E/DX2                !
 ! A73   A(24,25,26)           119.8173         estimate D2E/DX2                !
 ! A74   A(24,25,29)           119.1296         estimate D2E/DX2                !
 ! A75   A(26,25,29)           121.0113         estimate D2E/DX2                !
 ! A76   A(17,26,25)           119.7681         estimate D2E/DX2                !
 ! A77   A(17,26,27)           124.273          estimate D2E/DX2                !
 ! A78   A(25,26,27)           115.7816         estimate D2E/DX2                !
 ! A79   A(26,27,28)           123.4039         estimate D2E/DX2                !
 ! A80   A(26,27,33)           119.6711         estimate D2E/DX2                !
 ! A81   A(28,27,33)           116.8642         estimate D2E/DX2                !
 ! A82   A(27,28,30)           118.2654         estimate D2E/DX2                !
 ! A83   A(27,28,32)           109.7109         estimate D2E/DX2                !
 ! A84   A(27,28,47)           113.2673         estimate D2E/DX2                !
 ! A85   A(30,28,32)           110.212          estimate D2E/DX2                !
 ! A86   A(30,28,47)           113.8744         estimate D2E/DX2                !
 ! A87   A(32,28,47)            87.0774         estimate D2E/DX2                !
 ! A88   A(25,29,30)           121.1866         estimate D2E/DX2                !
 ! A89   A(25,29,34)           120.3719         estimate D2E/DX2                !
 ! A90   A(30,29,34)           118.4246         estimate D2E/DX2                !
 ! A91   A(28,30,29)           119.84           estimate D2E/DX2                !
 ! A92   A(28,30,31)           120.2078         estimate D2E/DX2                !
 ! A93   A(29,30,31)           119.9009         estimate D2E/DX2                !
 ! D1    D(5,1,2,3)              0.3312         estimate D2E/DX2                !
 ! D2    D(5,1,2,18)          -178.5338         estimate D2E/DX2                !
 ! D3    D(15,1,2,3)          -178.7136         estimate D2E/DX2                !
 ! D4    D(15,1,2,18)            2.4214         estimate D2E/DX2                !
 ! D5    D(2,1,5,6)              0.833          estimate D2E/DX2                !
 ! D6    D(2,1,5,38)          -179.7214         estimate D2E/DX2                !
 ! D7    D(15,1,5,6)           179.6982         estimate D2E/DX2                !
 ! D8    D(15,1,5,38)           -0.8561         estimate D2E/DX2                !
 ! D9    D(2,1,15,16)           -7.1371         estimate D2E/DX2                !
 ! D10   D(2,1,15,37)          176.1179         estimate D2E/DX2                !
 ! D11   D(5,1,15,16)          173.9714         estimate D2E/DX2                !
 ! D12   D(5,1,15,37)           -2.7736         estimate D2E/DX2                !
 ! D13   D(1,2,3,4)             -1.0809         estimate D2E/DX2                !
 ! D14   D(1,2,3,7)            176.7973         estimate D2E/DX2                !
 ! D15   D(18,2,3,4)           177.9676         estimate D2E/DX2                !
 ! D16   D(18,2,3,7)            -4.1542         estimate D2E/DX2                !
 ! D17   D(1,2,18,11)         -173.0191         estimate D2E/DX2                !
 ! D18   D(1,2,18,17)            9.9612         estimate D2E/DX2                !
 ! D19   D(3,2,18,11)            8.0135         estimate D2E/DX2                !
 ! D20   D(3,2,18,17)         -169.0062         estimate D2E/DX2                !
 ! D21   D(2,3,4,6)              0.5619         estimate D2E/DX2                !
 ! D22   D(2,3,4,10)           179.7382         estimate D2E/DX2                !
 ! D23   D(7,3,4,6)           -176.9898         estimate D2E/DX2                !
 ! D24   D(7,3,4,10)             2.1865         estimate D2E/DX2                !
 ! D25   D(2,3,7,8)           -177.0435         estimate D2E/DX2                !
 ! D26   D(2,3,7,11)            -1.9634         estimate D2E/DX2                !
 ! D27   D(4,3,7,8)              0.8388         estimate D2E/DX2                !
 ! D28   D(4,3,7,11)           175.9188         estimate D2E/DX2                !
 ! D29   D(3,4,6,5)              0.6363         estimate D2E/DX2                !
 ! D30   D(3,4,6,39)           179.6276         estimate D2E/DX2                !
 ! D31   D(10,4,6,5)          -178.3882         estimate D2E/DX2                !
 ! D32   D(10,4,6,39)            0.6032         estimate D2E/DX2                !
 ! D33   D(3,4,10,9)            -2.2716         estimate D2E/DX2                !
 ! D34   D(3,4,10,40)          179.3954         estimate D2E/DX2                !
 ! D35   D(6,4,10,9)           176.7524         estimate D2E/DX2                !
 ! D36   D(6,4,10,40)           -1.5807         estimate D2E/DX2                !
 ! D37   D(1,5,6,4)             -1.3391         estimate D2E/DX2                !
 ! D38   D(1,5,6,39)           179.6648         estimate D2E/DX2                !
 ! D39   D(38,5,6,4)           179.2127         estimate D2E/DX2                !
 ! D40   D(38,5,6,39)            0.2166         estimate D2E/DX2                !
 ! D41   D(3,7,8,9)             -3.616          estimate D2E/DX2                !
 ! D42   D(3,7,8,14)           174.3397         estimate D2E/DX2                !
 ! D43   D(11,7,8,9)          -177.7059         estimate D2E/DX2                !
 ! D44   D(11,7,8,14)            0.2499         estimate D2E/DX2                !
 ! D45   D(3,7,11,12)         -165.2773         estimate D2E/DX2                !
 ! D46   D(3,7,11,18)            6.777          estimate D2E/DX2                !
 ! D47   D(8,7,11,12)            9.3721         estimate D2E/DX2                !
 ! D48   D(8,7,11,18)         -178.5736         estimate D2E/DX2                !
 ! D49   D(7,8,9,10)             3.402          estimate D2E/DX2                !
 ! D50   D(7,8,9,41)          -179.306          estimate D2E/DX2                !
 ! D51   D(14,8,9,10)         -174.1954         estimate D2E/DX2                !
 ! D52   D(14,8,9,41)            3.0966         estimate D2E/DX2                !
 ! D53   D(7,8,14,13)           -6.7339         estimate D2E/DX2                !
 ! D54   D(7,8,14,42)          179.0631         estimate D2E/DX2                !
 ! D55   D(9,8,14,13)          170.9054         estimate D2E/DX2                !
 ! D56   D(9,8,14,42)           -3.2976         estimate D2E/DX2                !
 ! D57   D(8,9,10,4)            -0.4654         estimate D2E/DX2                !
 ! D58   D(8,9,10,40)          177.8756         estimate D2E/DX2                !
 ! D59   D(41,9,10,4)         -177.7716         estimate D2E/DX2                !
 ! D60   D(41,9,10,40)           0.5694         estimate D2E/DX2                !
 ! D61   D(7,11,12,13)         -12.0152         estimate D2E/DX2                !
 ! D62   D(7,11,12,20)         164.1308         estimate D2E/DX2                !
 ! D63   D(18,11,12,13)        179.4233         estimate D2E/DX2                !
 ! D64   D(18,11,12,20)         -4.4306         estimate D2E/DX2                !
 ! D65   D(7,11,18,2)           -8.8245         estimate D2E/DX2                !
 ! D66   D(7,11,18,17)         167.1853         estimate D2E/DX2                !
 ! D67   D(12,11,18,2)         160.526          estimate D2E/DX2                !
 ! D68   D(12,11,18,17)        -23.4643         estimate D2E/DX2                !
 ! D69   D(11,12,13,14)          6.3551         estimate D2E/DX2                !
 ! D70   D(11,12,13,19)       -176.784          estimate D2E/DX2                !
 ! D71   D(20,12,13,14)       -170.045          estimate D2E/DX2                !
 ! D72   D(20,12,13,19)          6.8159         estimate D2E/DX2                !
 ! D73   D(11,12,20,21)        177.807          estimate D2E/DX2                !
 ! D74   D(11,12,20,45)         -3.7423         estimate D2E/DX2                !
 ! D75   D(13,12,20,21)         -6.0308         estimate D2E/DX2                !
 ! D76   D(13,12,20,45)        172.42           estimate D2E/DX2                !
 ! D77   D(12,13,14,8)           3.5792         estimate D2E/DX2                !
 ! D78   D(12,13,14,42)        177.7232         estimate D2E/DX2                !
 ! D79   D(19,13,14,8)        -173.2817         estimate D2E/DX2                !
 ! D80   D(19,13,14,42)          0.8623         estimate D2E/DX2                !
 ! D81   D(12,13,19,22)         -3.296          estimate D2E/DX2                !
 ! D82   D(12,13,19,43)        178.6659         estimate D2E/DX2                !
 ! D83   D(14,13,19,22)        173.623          estimate D2E/DX2                !
 ! D84   D(14,13,19,43)         -4.4151         estimate D2E/DX2                !
 ! D85   D(1,15,16,17)          -0.3201         estimate D2E/DX2                !
 ! D86   D(1,15,16,23)        -178.4655         estimate D2E/DX2                !
 ! D87   D(37,15,16,17)        176.3805         estimate D2E/DX2                !
 ! D88   D(37,15,16,23)         -1.765          estimate D2E/DX2                !
 ! D89   D(15,16,17,18)         12.5192         estimate D2E/DX2                !
 ! D90   D(15,16,17,26)       -164.3817         estimate D2E/DX2                !
 ! D91   D(23,16,17,18)       -169.3705         estimate D2E/DX2                !
 ! D92   D(23,16,17,26)         13.7285         estimate D2E/DX2                !
 ! D93   D(15,16,23,24)        174.2114         estimate D2E/DX2                !
 ! D94   D(15,16,23,36)         -5.1551         estimate D2E/DX2                !
 ! D95   D(17,16,23,24)         -3.9801         estimate D2E/DX2                !
 ! D96   D(17,16,23,36)        176.6534         estimate D2E/DX2                !
 ! D97   D(16,17,18,2)         -16.4649         estimate D2E/DX2                !
 ! D98   D(16,17,18,11)        167.8904         estimate D2E/DX2                !
 ! D99   D(26,17,18,2)         160.0545         estimate D2E/DX2                !
 ! D100  D(26,17,18,11)        -15.5902         estimate D2E/DX2                !
 ! D101  D(16,17,26,25)        -14.5519         estimate D2E/DX2                !
 ! D102  D(16,17,26,27)        160.3968         estimate D2E/DX2                !
 ! D103  D(18,17,26,25)        168.9822         estimate D2E/DX2                !
 ! D104  D(18,17,26,27)        -16.0692         estimate D2E/DX2                !
 ! D105  D(13,19,22,21)         -1.3252         estimate D2E/DX2                !
 ! D106  D(13,19,22,44)       -179.0916         estimate D2E/DX2                !
 ! D107  D(43,19,22,21)        176.7497         estimate D2E/DX2                !
 ! D108  D(43,19,22,44)         -1.0167         estimate D2E/DX2                !
 ! D109  D(12,20,21,22)          1.5475         estimate D2E/DX2                !
 ! D110  D(12,20,21,46)       -179.0            estimate D2E/DX2                !
 ! D111  D(45,20,21,22)       -176.9413         estimate D2E/DX2                !
 ! D112  D(45,20,21,46)          2.5113         estimate D2E/DX2                !
 ! D113  D(20,21,22,19)          2.2504         estimate D2E/DX2                !
 ! D114  D(20,21,22,44)       -179.9846         estimate D2E/DX2                !
 ! D115  D(46,21,22,19)       -177.1995         estimate D2E/DX2                !
 ! D116  D(46,21,22,44)          0.5655         estimate D2E/DX2                !
 ! D117  D(16,23,24,25)         -5.5268         estimate D2E/DX2                !
 ! D118  D(16,23,24,35)        179.5418         estimate D2E/DX2                !
 ! D119  D(36,23,24,25)        173.8542         estimate D2E/DX2                !
 ! D120  D(36,23,24,35)         -1.0772         estimate D2E/DX2                !
 ! D121  D(23,24,25,26)          4.6102         estimate D2E/DX2                !
 ! D122  D(23,24,25,29)       -173.0613         estimate D2E/DX2                !
 ! D123  D(35,24,25,26)        179.4387         estimate D2E/DX2                !
 ! D124  D(35,24,25,29)          1.7673         estimate D2E/DX2                !
 ! D125  D(24,25,26,17)          5.6429         estimate D2E/DX2                !
 ! D126  D(24,25,26,27)       -169.7224         estimate D2E/DX2                !
 ! D127  D(29,25,26,17)       -176.7304         estimate D2E/DX2                !
 ! D128  D(29,25,26,27)          7.9043         estimate D2E/DX2                !
 ! D129  D(24,25,29,30)        173.9235         estimate D2E/DX2                !
 ! D130  D(24,25,29,34)         -4.5563         estimate D2E/DX2                !
 ! D131  D(26,25,29,30)         -3.7192         estimate D2E/DX2                !
 ! D132  D(26,25,29,34)        177.8009         estimate D2E/DX2                !
 ! D133  D(17,26,27,28)        178.3278         estimate D2E/DX2                !
 ! D134  D(17,26,27,33)         -4.6002         estimate D2E/DX2                !
 ! D135  D(25,26,27,28)         -6.5413         estimate D2E/DX2                !
 ! D136  D(25,26,27,33)        170.5308         estimate D2E/DX2                !
 ! D137  D(26,27,28,30)          0.7772         estimate D2E/DX2                !
 ! D138  D(26,27,28,32)        128.3168         estimate D2E/DX2                !
 ! D139  D(26,27,28,47)       -136.2264         estimate D2E/DX2                !
 ! D140  D(33,27,28,30)       -176.371          estimate D2E/DX2                !
 ! D141  D(33,27,28,32)        -48.8315         estimate D2E/DX2                !
 ! D142  D(33,27,28,47)         46.6254         estimate D2E/DX2                !
 ! D143  D(27,28,30,29)          3.8712         estimate D2E/DX2                !
 ! D144  D(27,28,30,31)       -178.7371         estimate D2E/DX2                !
 ! D145  D(32,28,30,29)       -123.4305         estimate D2E/DX2                !
 ! D146  D(32,28,30,31)         53.9612         estimate D2E/DX2                !
 ! D147  D(47,28,30,29)        140.6267         estimate D2E/DX2                !
 ! D148  D(47,28,30,31)        -41.9815         estimate D2E/DX2                !
 ! D149  D(25,29,30,28)         -2.4638         estimate D2E/DX2                !
 ! D150  D(25,29,30,31)       -179.8636         estimate D2E/DX2                !
 ! D151  D(34,29,30,28)        176.0449         estimate D2E/DX2                !
 ! D152  D(34,29,30,31)         -1.3549         estimate D2E/DX2                !
 --------------------------------------------------------------------------------
 Trust Radius=3.00D-01 FncErr=1.00D-07 GrdErr=1.00D-06 EigMax=2.50D+02 EigMin=1.00D-04
 Number of steps in this run=    282 maximum allowed number of steps=    282.
 GradGradGradGradGradGradGradGradGradGradGradGradGradGradGradGradGradGrad

                          Input orientation:                          
 ---------------------------------------------------------------------
 Center     Atomic      Atomic             Coordinates (Angstroms)
 Number     Number       Type             X           Y           Z
 ---------------------------------------------------------------------
      1          6           0       -6.949660    0.094680   -0.230580
      2          6           0       -5.727050    0.719940   -0.074250
      3          6           0       -4.597500    0.013410    0.153030
      4          6           0       -4.525020   -1.369150    0.275590
      5          6           0       -6.956830   -1.325860   -0.132620
      6          6           0       -5.761290   -2.047470    0.131260
      7          6           0       -3.542500    0.854550    0.196290
      8          6           0       -2.247020    0.386550    0.356570
      9          6           0       -2.098970   -1.014970    0.552060
     10          6           0       -3.223870   -1.882690    0.507190
     11          6           0       -3.966590    2.155460   -0.051140
     12          6           0       -2.960670    3.084450   -0.354710
     13          6           0       -1.595660    2.700420   -0.130620
     14          6           0       -1.258060    1.376440    0.255750
     15          6           0       -8.006140    0.977230   -0.486660
     16          6           0       -7.818230    2.384690   -0.420090
     17          6           0       -6.550950    2.974050   -0.083760
     18          6           0       -5.448620    2.086010   -0.095560
     19          6           0       -0.572100    3.632260   -0.360660
     20          6           0       -3.197880    4.345040   -0.939530
     21          6           0       -2.160320    5.248250   -1.178240
     22          6           0       -0.852290    4.901010   -0.867340
     23          6           0       -8.924380    3.203110   -0.655540
     24          6           0       -8.847300    4.581950   -0.491400
     25          6           0       -7.693600    5.171140    0.023540
     26          6           0       -6.553420    4.372140    0.291850
     27          6           0       -5.515230    5.004570    1.017840
     28          6           0       -5.520640    6.381570    1.345990
     29          6           0       -7.699080    6.546360    0.314810
     30          6           0       -6.616750    7.154060    0.945360
     31          1           0       -6.644150    8.219520    1.162830
     32          1           0       -5.336870    6.509770    2.449850
     33          1           0       -4.681600    4.412630    1.392750
     34          1           0       -8.566630    7.156820    0.071830
     35          1           0       -9.732730    5.180970   -0.693630
     36          1           0       -9.875800    2.773570   -0.963840
     37          1           0       -8.993920    0.567030   -0.686800
     38          1           0       -7.890870   -1.869840   -0.252090
     39          1           0       -5.796920   -3.131370    0.206260
     40          1           0       -3.077190   -2.953370    0.625410
     41          1           0       -1.107420   -1.438190    0.694850
     42          1           0       -0.215130    1.095760    0.384660
     43          1           0        0.466580    3.365700   -0.175470
     44          1           0       -0.043740    5.603220   -1.052410
     45          1           0       -4.201540    4.631760   -1.242250
     46          1           0       -2.379770    6.218710   -1.615830
     47          1           0       -4.532900    6.878440    1.182000
 ---------------------------------------------------------------------
                    Distance matrix (angstroms):
                    1          2          3          4          5
     1  C    0.000000
     2  C    1.382087   0.000000
     3  C    2.384621   1.351564   0.000000
     4  C    2.877131   2.435480   1.389873   0.000000
     5  C    1.423932   2.387690   2.727944   2.466214   0.000000
     6  C    2.476279   2.775241   2.366877   1.417502   1.421151
     7  C    3.516868   2.205350   1.349968   2.432381   4.064483
     8  C    4.748132   3.522409   2.388602   2.877208   5.035272
     9  C    5.037166   4.070030   2.731198   2.467306   4.915714
    10  C    4.282033   3.657549   2.368013   1.417869   3.828107
    11  C    3.630113   2.271667   2.242345   3.583500   4.589963
    12  C    4.986599   3.649990   3.516859   4.762250   5.955624
    13  C    5.955266   4.581906   4.038753   5.030662   6.704706
    14  C    5.854378   4.528991   3.608360   4.267515   6.318958
    15  C    1.400222   2.330350   3.599580   4.266699   2.555508
    16  C    2.456517   2.695187   4.040363   5.041876   3.820056
    17  C    2.910549   2.399982   3.554916   4.805925   4.319300
    18  C    2.497348   1.394319   2.254301   3.595681   3.730540
    19  C    7.294153   5.927660   5.437260   6.406598   8.087010
    20  C    5.713495   4.504083   4.681415   5.990808   6.851271
    21  C    7.098952   5.869067   5.925848   7.176030   8.204801
    22  C    7.790006   6.470983   6.241505   7.355960   8.750950
    23  C    3.707081   4.089859   5.435978   6.413028   4.965508
    24  C    4.879002   4.982479   6.272770   7.394996   6.213278
    25  C    5.136971   4.867244   6.017041   7.271783   6.540506
    26  C    4.327425   3.762377   4.779479   6.089095   5.728012
    27  C    5.265279   4.426690   5.147990   6.492747   6.593642
    28  C    6.637218   5.840697   6.544372   7.887374   7.978308
    29  C    6.517918   6.163395   7.233630   8.528276   7.919784
    30  C    7.164392   6.574882   7.462844   8.801650   8.554925
    31  H    8.249118   7.656052   8.517553   9.860046   9.637958
    32  H    7.137169   6.328148   6.929989   8.213640   8.407765
    33  H    5.140427   4.108651   4.571336   5.890802   6.358749
    34  H    7.251197   7.036901   8.172447   9.437600   8.636499
    35  H    5.816377   6.027428   7.334241   8.423996   7.096421
    36  H    4.034404   4.713904   6.060225   6.879619   5.100651
    37  H    2.147149   3.327317   4.510024   4.964479   2.835469
    38  H    2.178458   3.379453   3.815369   3.443557   1.087482
    39  H    3.453554   3.862144   3.366167   2.174386   2.172578
    40  H    5.001935   4.583065   3.366938   2.174474   4.274927
    41  H    6.110473   5.156551   3.818556   3.443913   5.908716
    42  H    6.836269   5.543744   4.519989   4.966168   7.182085
    43  H    8.105753   6.735825   6.081995   6.894805   8.781776
    44  H    8.871930   7.556668   7.309979   8.394010   9.831021
    45  H    5.400068   4.358181   4.840738   6.198338   6.657037
    46  H    7.765730   6.619458   6.822972   8.108957   8.948180
    47  H    7.338631   6.397756   6.942016   8.297251   8.655299
                    6          7          8          9         10
     6  C    0.000000
     7  C    3.653625   0.000000
     8  C    4.280807   1.386716   0.000000
     9  C    3.828279   2.388610   1.422812   0.000000
    10  C    2.570404   2.773205   2.475151   1.421391   0.000000
    11  C    4.573712   1.390482   2.500438   3.728737   4.143672
    12  C    5.866536   2.369511   2.879910   4.286024   5.048230
    13  C    6.321670   2.702645   2.452676   3.810970   4.905381
    14  C    5.658422   2.344050   1.402886   2.552209   3.814388
    15  C    3.817065   4.517251   5.850419   6.320005   5.660122
    16  C    4.917218   4.582916   5.969434   6.724039   6.338653
    17  C    5.087776   3.690729   5.041117   6.011379   5.916638
    18  C    4.151490   2.288004   3.652784   4.610384   4.589488
    19  C    7.709021   4.104771   3.722151   4.976056   6.180592
    20  C    6.970068   3.686783   4.272429   5.671168   6.393614
    21  C    8.240710   4.806699   5.098949   6.498125   7.404196
    22  C    8.566029   4.974171   4.880940   6.210292   7.316578
    23  C    6.180031   5.933463   7.317412   8.113983   7.727426
    24  C    7.338963   6.519765   7.866647   8.829172   8.626223
    25  C    7.473537   5.991195   7.257303   8.357462   8.364743
    26  C    6.470290   4.631221   5.868066   6.995055   7.089088
    27  C    7.111810   4.667898   5.696015   6.937049   7.276362
    28  C    8.519519   5.981872   6.901870   8.188220   8.618395
    29  C    8.811506   7.048965   8.226175   9.412291   9.545334
    30  C    9.277000   7.049535   8.077153   9.343344   9.662633
    31  H   10.356383   8.049672   9.018882  10.310553  10.685636
    32  H    8.875942   6.346638   7.170970   8.408764   8.869728
    33  H    6.670081   3.922881   4.817693   6.069232   6.522288
    34  H    9.622495   8.060768   9.265803  10.432612  10.509394
    35  H    8.288735   7.604526   8.951270   9.910384   9.680006
    36  H    6.432019   6.718573   8.101829   8.782373   8.251840
    37  H    4.237302   5.529963   6.829484   7.181771   6.381239
    38  H    2.171087   5.150890   6.108585   5.909616   4.728378
    39  H    1.087076   4.579309   5.000014   4.274759   2.875821
    40  H    2.875627   3.860170   3.452032   2.172485   1.087128
    41  H    4.727300   3.381543   2.177796   1.087509   2.170750
    42  H    6.379968   3.341415   2.152288   2.834088   4.235410
    43  H    8.257291   4.745187   4.064730   5.128510   6.452212
    44  H    9.624163   6.029133   5.835522   7.113279   8.281572
    45  H    6.995103   4.095247   4.939452   6.286963   6.815749
    46  H    9.100370   5.780133   6.158090   7.556767   8.417387
    47  H    9.071101   6.183831   6.931899   8.284127   8.884049
                   11         12         13         14         15
    11  C    0.000000
    12  C    1.402516   0.000000
    13  C    2.434052   1.435600   0.000000
    14  C    2.834994   2.487738   1.419922   0.000000
    15  C    4.230351   5.469420   6.647586   6.800524   0.000000
    16  C    3.876055   4.908139   6.237296   6.671518   1.421508
    17  C    2.711101   3.602182   4.963060   5.539161   2.503437
    18  C    1.484321   2.693313   3.901798   4.264704   2.814829
    19  C    3.714741   2.450591   1.403182   2.437053   7.894936
    20  C    2.484837   1.409741   2.434383   3.742216   5.887835
    21  C    3.754772   2.449651   2.812079   4.226265   7.272792
    22  C    4.231205   2.829831   2.436791   3.721367   8.168142
    23  C    5.103190   5.972472   7.364671   7.933450   2.413758
    24  C    5.468365   6.075657   7.500440   8.272248   3.701564
    25  C    4.794842   5.186326   6.581268   7.474613   4.236374
    26  C    3.423887   3.870922   5.249049   6.084107   3.773842
    27  C    3.414445   3.478007   4.689467   5.645140   4.968664
    28  C    4.714557   4.507419   5.580028   6.664048   6.224404
    29  C    5.774548   5.906404   7.227821   8.259437   5.634878
    30  C    5.744768   5.623062   6.797351   7.910247   6.491095
    31  H    6.739130   6.499223   7.590832   8.755598   7.551596
    32  H    5.205058   5.024410   5.930145   6.913888   6.808604
    33  H    2.773243   2.789136   3.843871   4.715066   5.136801
    34  H    6.796256   6.942112   8.276165   9.319969   6.230040
    35  H    6.543308   7.097257   8.525375   9.337869   4.549217
    36  H    6.011143   6.948864   8.322279   8.815033   2.636317
    37  H    5.310482   6.545823   7.719776   7.834990   1.088131
    38  H    5.625246   6.990164   7.780212   7.402054   2.859041
    39  H    5.600619   6.855321   7.195405   6.397191   4.716077
    40  H    5.229617   6.117964   5.893374   4.710959   6.401630
    41  H    4.652491   4.999038   4.248279   2.852655   7.404226
    42  H    3.922542   3.469805   2.178603   1.087705   7.840477
    43  H    4.597079   3.443439   2.167358   2.667862   8.808440
    44  H    5.317738   3.916563   3.418245   4.588194   9.226032
    45  H    2.757899   2.172937   3.428762   4.637369   5.329305
    46  H    4.634248   3.428039   3.898595   5.311179   7.772012
    47  H    4.914049   4.384945   5.273159   6.469507   7.047844
                   16         17         18         19         20
    16  C    0.000000
    17  C    1.437519   0.000000
    18  C    2.410307   1.415587   0.000000
    19  C    7.352983   6.021342   5.122657   0.000000
    20  C    5.045832   3.722235   3.298686   2.781702   0.000000
    21  C    6.386448   5.064336   4.688803   2.408797   1.396174
    22  C    7.419988   6.066457   5.444825   1.394617   2.411661
    23  C    1.396000   2.452054   3.693562   8.368495   5.846149
    24  C    2.427349   2.832797   4.235261   8.330543   5.672115
    25  C    2.824295   2.478783   3.817348   7.295994   4.671343
    26  C    2.461008   1.447669   2.568474   6.062127   3.574448
    27  C    3.772959   2.531650   3.124434   5.312065   3.104253
    28  C    4.936903   3.836263   4.531566   5.912648   3.842690
    29  C    4.227738   3.773388   5.012753   7.729300   5.165267
    30  C    5.104400   4.305334   5.304071   7.116639   4.809582
    31  H    6.158680   5.392368   6.374385   7.761042   5.595381
    32  H    5.604461   4.516025   5.105022   6.235548   4.555132
    33  H    4.151792   2.782816   2.866452   4.535572   2.765054
    34  H    4.855442   4.645723   5.955092   8.747690   6.144301
    35  H    3.399899   3.919970   5.318840   9.296586   6.592686
    36  H    2.163443   3.445194   4.563614   9.362692   6.860373
    37  H    2.181116   3.482170   3.902053   8.968225   6.923244
    38  H    4.258465   5.028617   4.651649   9.156926   7.818022
    39  H    5.908039   6.158638   5.237696   8.565444   7.997784
    40  H    7.215637   6.906825   5.615944   7.114656   7.465279
    41  H    7.803363   7.050256   5.647190   5.206739   6.362937
    42  H    7.753457   6.624953   5.347955   2.667726   4.605225
    43  H    8.346274   7.029049   6.052568   1.088212   3.869259
    44  H    8.438096   7.084815   6.519130   2.154615   3.397699
    45  H    4.336556   3.099972   3.057932   3.866398   1.086822
    46  H    6.760647   5.502163   5.367334   3.396004   2.153445
    47  H    5.792571   4.573722   5.043619   5.348404   3.563886
                   21         22         23         24         25
    21  C    0.000000
    22  C    1.388588   0.000000
    23  C    7.085783   8.251446   0.000000
    24  C    6.755102   8.010201   1.390713   0.000000
    25  C    5.662809   6.904358   2.418494   1.394034   0.000000
    26  C    4.714664   5.841773   2.808136   2.432979   1.417886
    27  C    4.017159   5.030670   4.203304   3.682269   2.400349
    28  C    4.352919   5.374419   5.068942   4.204914   2.817050
    29  C    5.881509   7.140251   3.690564   2.413978   1.405738
    30  C    5.291650   6.449117   4.847478   3.695319   2.437484
    31  H    5.866326   6.977087   5.802610   4.563142   3.419349
    32  H    4.984470   5.805456   5.783397   4.968960   3.637731
    33  H    3.696634   4.473269   4.864115   4.575123   3.394439
    34  H    6.800450   8.092080   4.035948   2.650653   2.169663
    35  H    7.588199   8.886550   2.137010   1.087984   2.161592
    36  H    8.105470   9.271410   1.088464   2.133366   3.388991
    37  H    8.297796   9.225081   2.637182   4.022345   4.836656
    38  H    9.184997   9.785936   5.192854   6.526685   7.049134
    39  H    9.239033   9.493214   7.116835   8.323872   8.518360
    40  H    8.447507   8.298781   8.586775   9.556280   9.363821
    41  H    7.023215   6.533834   9.190761   9.876994   9.354767
    42  H    4.844543   4.056280   9.020752   9.350688   8.524473
    43  H    3.383806   2.138990   9.404628   9.398268   8.359890
    44  H    2.149825   1.086786   9.207812   8.880337   7.737229
    45  H    2.133245   3.380906   4.968952   4.706309   3.753350
    46  H    1.086939   2.151689   7.269658   6.765521   5.658774
    47  H    3.722551   4.653699   6.014125   5.166061   3.774510
                   26         27         28         29         30
    26  C    0.000000
    27  C    1.415933   0.000000
    28  C    2.493121   1.415571   0.000000
    29  C    2.457701   2.764158   2.415800   0.000000
    30  C    2.858350   2.416383   1.399536   1.392239   0.000000
    31  H    3.945779   3.410482   2.161916   2.152087   1.087772
    32  H    3.272067   2.085208   1.126372   3.184301   2.077665
    33  H    2.171942   1.088986   2.140771   3.849668   3.385322
    34  H    3.443235   3.852033   3.391541   1.088276   2.136608
    35  H    3.425403   4.554948   4.831479   2.648957   4.035927
    36  H    3.894919   5.283842   6.109042   4.539493   5.784042
    37  H    4.625220   5.890572   7.071406   6.199373   7.190539
    38  H    6.406790   7.383353   8.732561   8.437451   9.191738
    39  H    7.542034   8.181169   9.584954   9.863491  10.344489
    40  H    8.115327   8.332278   9.676300  10.568974  10.714056
    41  H    7.973786   7.812955   9.002730  10.360861  10.209909
    42  H    7.135629   6.615948   7.550654   9.258695   8.831655
    43  H    7.107159   6.316006   6.874381   8.776957   8.110579
    44  H    6.760069   5.880605   6.029476   7.833456   7.042773
    45  H    2.819965   2.640601   3.391290   4.280527   4.120786
    46  H    4.946556   4.271003   4.320181   5.668314   5.038509
    47  H    3.340121   2.122100   1.117767   3.299544   2.115277
                   31         32         33         34         35
    31  H    0.000000
    32  H    2.507717   0.000000
    33  H    4.289158   2.438203   0.000000
    34  H    2.452660   4.062635   4.936483   0.000000
    35  H    4.713656   5.565138   5.518808   2.418616   0.000000
    36  H    6.680169   6.798114   5.934623   4.690354   2.426738
    37  H    8.216030   7.650408   6.140788   6.647062   4.672722
    38  H   10.264088   9.167402   7.243918   9.057713   7.300776
    39  H   11.422589   9.909436   7.717748  10.655338   9.240963
    40  H   11.740762   9.898775   7.577658  11.517654  10.592618
    41  H   11.142071   9.172695   6.891583  11.397463  10.960708
    42  H    9.627347   7.733611   5.653957  10.323849  10.413278
    43  H    8.712812   7.103345   5.482621   9.799624  10.372542
    44  H    7.437589   6.411309   5.376435   8.735974   9.704821
    45  H    4.962134   4.295055   2.687322   5.211213   5.585399
    46  H    5.468924   5.035763   4.196653   6.481164   7.482872
    47  H    2.501248   1.545875   2.479263   4.192964   5.782528
                   36         37         38         39         40
    36  H    0.000000
    37  H    2.392338   0.000000
    38  H    5.099783   2.709987   0.000000
    39  H    7.271500   4.969560   2.487201   0.000000
    40  H    9.030208   7.008766   5.011543   2.757590   0.000000
    41  H    9.867860   8.253893   6.862814   5.009690   2.486078
    42  H    9.897578   8.859725   8.253316   7.004058   4.964353
    43  H   10.389272   9.879022   9.862237   9.032667   7.289058
    44  H   10.231528  10.276313  10.865753  10.534533   9.232125
    45  H    5.977258   6.308523   7.540715   8.056650   7.892181
    46  H    8.275539   8.749375   9.882138  10.120322   9.467661
    47  H    7.071150   7.951541   9.479714  10.136376   9.954565
                   41         42         43         44         45
    41  H    0.000000
    42  H    2.704312   0.000000
    43  H    5.129551   2.435385   0.000000
    44  H    7.332516   4.734104   2.456816   0.000000
    45  H    7.083095   5.571499   4.953006   4.274000   0.000000
    46  H    8.098533   5.910351   4.279721   2.480586   2.444753
    47  H    9.007639   7.260735   6.259143   5.174102   3.321800
                   46         47
    46  H    0.000000
    47  H    3.591527   0.000000
 Stoichiometry    C30H17(2)
 Framework group  C1[X(C30H17)]
 Deg. of freedom   135
 Full point group                 C1      NOp   1
 Largest Abelian subgroup         C1      NOp   1
 Largest concise Abelian subgroup C1      NOp   1
                         Standard orientation:                         
 ---------------------------------------------------------------------
 Center     Atomic      Atomic             Coordinates (Angstroms)
 Number     Number       Type             X           Y           Z
 ---------------------------------------------------------------------
      1          6           0        0.958010   -2.991609   -0.256177
      2          6           0        1.069469   -1.624544   -0.086257
      3          6           0        2.263747   -1.038572    0.152617
      4          6           0        3.476635   -1.706172    0.274918
      5          6           0        2.161368   -3.746683   -0.159358
      6          6           0        3.403030   -3.112905    0.116811
      7          6           0        2.103993    0.300772    0.207834
      8          6           0        3.183202    1.154042    0.381672
      9          6           0        4.451635    0.540002    0.577697
     10          6           0        4.597187   -0.872743    0.520099
     11          6           0        0.775997    0.627675   -0.043168
     12          6           0        0.517458    1.974862   -0.335223
     13          6           0        1.561575    2.930847   -0.096769
     14          6           0        2.862942    2.516950    0.292218
     15          6           0       -0.347285   -3.422502   -0.522933
     16          6           0       -1.445178   -2.522242   -0.453300
     17          6           0       -1.280582   -1.137823   -0.102938
     18          6           0        0.054869   -0.668295   -0.103557
     19          6           0        1.309532    4.293830   -0.315107
     20          6           0       -0.676162    2.442606   -0.921618
     21          6           0       -0.896450    3.802496   -1.148496
     22          6           0        0.085952    4.728590   -0.823822
     23          6           0       -2.722213   -3.029325   -0.700009
     24          6           0       -3.854625   -2.239278   -0.534023
     25          6           0       -3.750589   -0.953200   -0.006281
     26          6           0       -2.472310   -0.407276    0.273666
     27          6           0       -2.466917    0.801370    1.011237
     28          6           0       -3.642026    1.518764    1.340336
     29          6           0       -4.924037   -0.236451    0.285937
     30          6           0       -4.873899    0.997604    0.928530
     31          1           0       -5.795185    1.533304    1.146487
     32          1           0       -3.659789    1.731977    2.446201
     33          1           0       -1.526618    1.194728    1.394639
     34          1           0       -5.898604   -0.650147    0.034107
     35          1           0       -4.829087   -2.674585   -0.745307
     36          1           0       -2.856493   -4.061349   -1.018831
     37          1           0       -0.517696   -4.476281   -0.733978
     38          1           0        2.132578   -4.825996   -0.289260
     39          1           0        4.305334   -3.714681    0.190617
     40          1           0        5.584034   -1.312994    0.639090
     41          1           0        5.332825    1.158658    0.730814
     42          1           0        3.650080    3.254476    0.432115
     43          1           0        2.082146    5.034642   -0.118969
     44          1           0       -0.084322    5.787451   -0.999673
     45          1           0       -1.446883    1.743298   -1.234888
     46          1           0       -1.834812    4.131154   -1.587695
     47          1           0       -3.543487    2.621617    1.187335
 ---------------------------------------------------------------------
 Rotational constants (GHZ):           0.2241341           0.1686495           0.1012691
 Standard basis: 6-311+G(d,p) (5D, 7F)
 There are   792 symmetry adapted cartesian basis functions of A   symmetry.
 There are   762 symmetry adapted basis functions of A   symmetry.
   762 basis functions,  1216 primitive gaussians,   792 cartesian basis functions
    99 alpha electrons       98 beta electrons
       nuclear repulsion energy      2623.4572465661 Hartrees.
 NAtoms=   47 NActive=   47 NUniq=   47 SFac= 1.00D+00 NAtFMM=   60 NAOKFM=F Big=F
 Integral buffers will be    131072 words long.
 Raffenetti 2 integral format.
 Two-electron integral symmetry is turned on.
 One-electron integrals computed using PRISM.
 NBasis=   762 RedAO= T EigKep=  1.05D-06  NBF=   762
 NBsUse=   741 1.00D-06 EigRej=  8.86D-07 NBFU=   741
 ExpMin= 4.38D-02 ExpMax= 4.56D+03 ExpMxC= 6.82D+02 IAcc=2 IRadAn=         4 AccDes= 0.00D+00
 Harris functional with IExCor=  402 and IRadAn=       4 diagonalized for initial guess.
 HarFok:  IExCor=  402 AccDes= 0.00D+00 IRadAn=         4 IDoV= 1 UseB2=F ITyADJ=14
 ICtDFT=  3500011 ScaDFX=  1.000000  1.000000  1.000000  1.000000
 FoFCou: FMM=F IPFlag=           0 FMFlag=      100000 FMFlg1=           0
         NFxFlg=           0 DoJE=T BraDBF=F KetDBF=T FulRan=T
         wScrn=  0.000000 ICntrl=       500 IOpCl=  0 I1Cent=   200000004 NGrid=           0
         NMat0=    1 NMatS0=      1 NMatT0=    0 NMatD0=    1 NMtDS0=    0 NMtDT0=    0
 Petite list used in FoFCou.
 Initial guess <Sx>= 0.0000 <Sy>= 0.0000 <Sz>= 0.5000 <S**2>= 0.7500 S= 0.5000
 Requested convergence on RMS density matrix=1.00D-08 within 128 cycles.
 Requested convergence on MAX density matrix=1.00D-06.
 Requested convergence on             energy=1.00D-06.
 No special actions if energy rises.
 Restarting incremental Fock formation.
 SCF Done:  E(UB3LYP) =  -1153.64635676     A.U. after   27 cycles
            NFock= 27  Conv=0.64D-08     -V/T= 2.0037
 <Sx>= 0.0000 <Sy>= 0.0000 <Sz>= 0.5000 <S**2>= 0.8147 S= 0.5318
 <L.S>=  0.00000000000    
 Annihilation of the first spin contaminant:
 S**2 before annihilation     0.8147,   after     0.7531

 **********************************************************************

            Population analysis using the SCF Density.

 **********************************************************************

 Orbital symmetries:
 Alpha Orbitals:
       Occupied  (A) (A) (A) (A) (A) (A) (A) (A) (A) (A) (A) (A)
                 (A) (A) (A) (A) (A) (A) (A) (A) (A) (A) (A) (A)
                 (A) (A) (A) (A) (A) (A) (A) (A) (A) (A) (A) (A)
                 (A) (A) (A) (A) (A) (A) (A) (A) (A) (A) (A) (A)
                 (A) (A) (A) (A) (A) (A) (A) (A) (A) (A) (A) (A)
                 (A) (A) (A) (A) (A) (A) (A) (A) (A) (A) (A) (A)
                 (A) (A) (A) (A) (A) (A) (A) (A) (A) (A) (A) (A)
                 (A) (A) (A) (A) (A) (A) (A) (A) (A) (A) (A) (A)
                 (A) (A) (A)
       Virtual   (A) (A) (A) (A) (A) (A) (A) (A) (A) (A) (A) (A)
                 (A) (A) (A) (A) (A) (A) (A) (A) (A) (A) (A) (A)
                 (A) (A) (A) (A) (A) (A) (A) (A) (A) (A) (A) (A)
                 (A) (A) (A) (A) (A) (A) (A) (A) (A) (A) (A) (A)
                 (A) (A) (A) (A) (A) (A) (A) (A) (A) (A) (A) (A)
                 (A) (A) (A) (A) (A) (A) (A) (A) (A) (A) (A) (A)
                 (A) (A) (A) (A) (A) (A) (A) (A) (A) (A) (A) (A)
                 (A) (A) (A) (A) (A) (A) (A) (A) (A) (A) (A) (A)
                 (A) (A) (A) (A) (A) (A) (A) (A) (A) (A) (A) (A)
                 (A) (A) (A) (A) (A) (A) (A) (A) (A) (A) (A) (A)
                 (A) (A) (A) (A) (A) (A) (A) (A) (A) (A) (A) (A)
                 (A) (A) (A) (A) (A) (A) (A) (A) (A) (A) (A) (A)
                 (A) (A) (A) (A) (A) (A) (A) (A) (A) (A) (A) (A)
                 (A) (A) (A) (A) (A) (A) (A) (A) (A) (A) (A) (A)
                 (A) (A) (A) (A) (A) (A) (A) (A) (A) (A) (A) (A)
                 (A) (A) (A) (A) (A) (A) (A) (A) (A) (A) (A) (A)
                 (A) (A) (A) (A) (A) (A) (A) (A) (A) (A) (A) (A)
                 (A) (A) (A) (A) (A) (A) (A) (A) (A) (A) (A) (A)
                 (A) (A) (A) (A) (A) (A) (A) (A) (A) (A) (A) (A)
                 (A) (A) (A) (A) (A) (A) (A) (A) (A) (A) (A) (A)
                 (A) (A) (A) (A) (A) (A) (A) (A) (A) (A) (A) (A)
                 (A) (A) (A) (A) (A) (A) (A) (A) (A) (A) (A) (A)
                 (A) (A) (A) (A) (A) (A) (A) (A) (A) (A) (A) (A)
                 (A) (A) (A) (A) (A) (A) (A) (A) (A) (A) (A) (A)
                 (A) (A) (A) (A) (A) (A) (A) (A) (A) (A) (A) (A)
                 (A) (A) (A) (A) (A) (A) (A) (A) (A) (A) (A) (A)
                 (A) (A) (A) (A) (A) (A) (A) (A) (A) (A) (A) (A)
                 (A) (A) (A) (A) (A) (A) (A) (A) (A) (A) (A) (A)
                 (A) (A) (A) (A) (A) (A) (A) (A) (A) (A) (A) (A)
                 (A) (A) (A) (A) (A) (A) (A) (A) (A) (A) (A) (A)
                 (A) (A) (A) (A) (A) (A) (A) (A) (A) (A) (A) (A)
                 (A) (A) (A) (A) (A) (A) (A) (A) (A) (A) (A) (A)
                 (A) (A) (A) (A) (A) (A) (A) (A) (A) (A) (A) (A)
                 (A) (A) (A) (A) (A) (A) (A) (A) (A) (A) (A) (A)
                 (A) (A) (A) (A) (A) (A) (A) (A) (A) (A) (A) (A)
                 (A) (A) (A) (A) (A) (A) (A) (A) (A) (A) (A) (A)
                 (A) (A) (A) (A) (A) (A) (A) (A) (A) (A) (A) (A)
                 (A) (A) (A) (A) (A) (A) (A) (A) (A) (A) (A) (A)
                 (A) (A) (A) (A) (A) (A) (A) (A) (A) (A) (A) (A)
                 (A) (A) (A) (A) (A) (A) (A) (A) (A) (A) (A) (A)
                 (A) (A) (A) (A) (A) (A) (A) (A) (A) (A) (A) (A)
                 (A) (A) (A) (A) (A) (A) (A) (A) (A) (A) (A) (A)
                 (A) (A) (A) (A) (A) (A) (A) (A) (A) (A) (A) (A)
                 (A) (A) (A) (A) (A) (A) (A) (A) (A) (A) (A) (A)
                 (A) (A) (A) (A) (A) (A) (A) (A) (A) (A) (A) (A)
                 (A) (A) (A) (A) (A) (A) (A) (A) (A) (A) (A) (A)
                 (A) (A) (A) (A) (A) (A) (A) (A) (A) (A) (A) (A)
                 (A) (A) (A) (A) (A) (A) (A) (A) (A) (A) (A) (A)
                 (A) (A) (A) (A) (A) (A) (A) (A) (A) (A) (A) (A)
                 (A) (A) (A) (A) (A) (A) (A) (A) (A) (A) (A) (A)
                 (A) (A) (A) (A) (A) (A) (A) (A) (A) (A) (A) (A)
                 (A) (A) (A) (A) (A) (A) (A) (A) (A) (A) (A) (A)
                 (A) (A) (A) (A) (A) (A) (A) (A) (A) (A) (A) (A)
                 (A) (A) (A) (A) (A) (A)
 Beta  Orbitals:
       Occupied  (A) (A) (A) (A) (A) (A) (A) (A) (A) (A) (A) (A)
                 (A) (A) (A) (A) (A) (A) (A) (A) (A) (A) (A) (A)
                 (A) (A) (A) (A) (A) (A) (A) (A) (A) (A) (A) (A)
                 (A) (A) (A) (A) (A) (A) (A) (A) (A) (A) (A) (A)
                 (A) (A) (A) (A) (A) (A) (A) (A) (A) (A) (A) (A)
                 (A) (A) (A) (A) (A) (A) (A) (A) (A) (A) (A) (A)
                 (A) (A) (A) (A) (A) (A) (A) (A) (A) (A) (A) (A)
                 (A) (A) (A) (A) (A) (A) (A) (A) (A) (A) (A) (A)
                 (A) (A)
       Virtual   (A) (A) (A) (A) (A) (A) (A) (A) (A) (A) (A) (A)
                 (A) (A) (A) (A) (A) (A) (A) (A) (A) (A) (A) (A)
                 (A) (A) (A) (A) (A) (A) (A) (A) (A) (A) (A) (A)
                 (A) (A) (A) (A) (A) (A) (A) (A) (A) (A) (A) (A)
                 (A) (A) (A) (A) (A) (A) (A) (A) (A) (A) (A) (A)
                 (A) (A) (A) (A) (A) (A) (A) (A) (A) (A) (A) (A)
                 (A) (A) (A) (A) (A) (A) (A) (A) (A) (A) (A) (A)
                 (A) (A) (A) (A) (A) (A) (A) (A) (A) (A) (A) (A)
                 (A) (A) (A) (A) (A) (A) (A) (A) (A) (A) (A) (A)
                 (A) (A) (A) (A) (A) (A) (A) (A) (A) (A) (A) (A)
                 (A) (A) (A) (A) (A) (A) (A) (A) (A) (A) (A) (A)
                 (A) (A) (A) (A) (A) (A) (A) (A) (A) (A) (A) (A)
                 (A) (A) (A) (A) (A) (A) (A) (A) (A) (A) (A) (A)
                 (A) (A) (A) (A) (A) (A) (A) (A) (A) (A) (A) (A)
                 (A) (A) (A) (A) (A) (A) (A) (A) (A) (A) (A) (A)
                 (A) (A) (A) (A) (A) (A) (A) (A) (A) (A) (A) (A)
                 (A) (A) (A) (A) (A) (A) (A) (A) (A) (A) (A) (A)
                 (A) (A) (A) (A) (A) (A) (A) (A) (A) (A) (A) (A)
                 (A) (A) (A) (A) (A) (A) (A) (A) (A) (A) (A) (A)
                 (A) (A) (A) (A) (A) (A) (A) (A) (A) (A) (A) (A)
                 (A) (A) (A) (A) (A) (A) (A) (A) (A) (A) (A) (A)
                 (A) (A) (A) (A) (A) (A) (A) (A) (A) (A) (A) (A)
                 (A) (A) (A) (A) (A) (A) (A) (A) (A) (A) (A) (A)
                 (A) (A) (A) (A) (A) (A) (A) (A) (A) (A) (A) (A)
                 (A) (A) (A) (A) (A) (A) (A) (A) (A) (A) (A) (A)
                 (A) (A) (A) (A) (A) (A) (A) (A) (A) (A) (A) (A)
                 (A) (A) (A) (A) (A) (A) (A) (A) (A) (A) (A) (A)
                 (A) (A) (A) (A) (A) (A) (A) (A) (A) (A) (A) (A)
                 (A) (A) (A) (A) (A) (A) (A) (A) (A) (A) (A) (A)
                 (A) (A) (A) (A) (A) (A) (A) (A) (A) (A) (A) (A)
                 (A) (A) (A) (A) (A) (A) (A) (A) (A) (A) (A) (A)
                 (A) (A) (A) (A) (A) (A) (A) (A) (A) (A) (A) (A)
                 (A) (A) (A) (A) (A) (A) (A) (A) (A) (A) (A) (A)
                 (A) (A) (A) (A) (A) (A) (A) (A) (A) (A) (A) (A)
                 (A) (A) (A) (A) (A) (A) (A) (A) (A) (A) (A) (A)
                 (A) (A) (A) (A) (A) (A) (A) (A) (A) (A) (A) (A)
                 (A) (A) (A) (A) (A) (A) (A) (A) (A) (A) (A) (A)
                 (A) (A) (A) (A) (A) (A) (A) (A) (A) (A) (A) (A)
                 (A) (A) (A) (A) (A) (A) (A) (A) (A) (A) (A) (A)
                 (A) (A) (A) (A) (A) (A) (A) (A) (A) (A) (A) (A)
                 (A) (A) (A) (A) (A) (A) (A) (A) (A) (A) (A) (A)
                 (A) (A) (A) (A) (A) (A) (A) (A) (A) (A) (A) (A)
                 (A) (A) (A) (A) (A) (A) (A) (A) (A) (A) (A) (A)
                 (A) (A) (A) (A) (A) (A) (A) (A) (A) (A) (A) (A)
                 (A) (A) (A) (A) (A) (A) (A) (A) (A) (A) (A) (A)
                 (A) (A) (A) (A) (A) (A) (A) (A) (A) (A) (A) (A)
                 (A) (A) (A) (A) (A) (A) (A) (A) (A) (A) (A) (A)
                 (A) (A) (A) (A) (A) (A) (A) (A) (A) (A) (A) (A)
                 (A) (A) (A) (A) (A) (A) (A) (A) (A) (A) (A) (A)
                 (A) (A) (A) (A) (A) (A) (A) (A) (A) (A) (A) (A)
                 (A) (A) (A) (A) (A) (A) (A) (A) (A) (A) (A) (A)
                 (A) (A) (A) (A) (A) (A) (A) (A) (A) (A) (A) (A)
                 (A) (A) (A) (A) (A) (A) (A) (A) (A) (A) (A) (A)
                 (A) (A) (A) (A) (A) (A) (A)
 The electronic state is 2-A.
 Alpha  occ. eigenvalues --  -10.20175 -10.19276 -10.19235 -10.19183 -10.19163
 Alpha  occ. eigenvalues --  -10.19091 -10.19038 -10.18948 -10.18945 -10.18867
 Alpha  occ. eigenvalues --  -10.18823 -10.18723 -10.18628 -10.18448 -10.18386
 Alpha  occ. eigenvalues --  -10.18374 -10.18362 -10.18347 -10.18237 -10.18230
 Alpha  occ. eigenvalues --  -10.18222 -10.18187 -10.17911 -10.17858 -10.17771
 Alpha  occ. eigenvalues --  -10.17392 -10.17170 -10.15853 -10.15658 -10.15470
 Alpha  occ. eigenvalues --   -0.92944  -0.89234  -0.88002  -0.85989  -0.84041
 Alpha  occ. eigenvalues --   -0.83661  -0.80846  -0.79372  -0.77911  -0.77196
 Alpha  occ. eigenvalues --   -0.76040  -0.74726  -0.72532  -0.71296  -0.70924
 Alpha  occ. eigenvalues --   -0.67284  -0.65350  -0.64121  -0.63502  -0.62329
 Alpha  occ. eigenvalues --   -0.60929  -0.59533  -0.58742  -0.56769  -0.55858
 Alpha  occ. eigenvalues --   -0.53655  -0.52459  -0.51677  -0.51388  -0.49532
 Alpha  occ. eigenvalues --   -0.48728  -0.47968  -0.47303  -0.46343  -0.45741
 Alpha  occ. eigenvalues --   -0.44695  -0.44270  -0.43968  -0.43687  -0.43557
 Alpha  occ. eigenvalues --   -0.42911  -0.42522  -0.42320  -0.41182  -0.40595
 Alpha  occ. eigenvalues --   -0.40182  -0.39990  -0.39970  -0.38993  -0.38688
 Alpha  occ. eigenvalues --   -0.37310  -0.36446  -0.35925  -0.35242  -0.34698
 Alpha  occ. eigenvalues --   -0.34303  -0.34135  -0.33463  -0.33012  -0.32265
 Alpha  occ. eigenvalues --   -0.30082  -0.29449  -0.27808  -0.26831  -0.25175
 Alpha  occ. eigenvalues --   -0.22406  -0.21726  -0.20355  -0.15686
 Alpha virt. eigenvalues --   -0.10418  -0.05840  -0.03447  -0.02697  -0.00637
 Alpha virt. eigenvalues --   -0.00406  -0.00259   0.00575   0.00731   0.01387
 Alpha virt. eigenvalues --    0.01683   0.01905   0.02115   0.02555   0.03015
 Alpha virt. eigenvalues --    0.03151   0.03295   0.03882   0.04144   0.04314
 Alpha virt. eigenvalues --    0.04476   0.05077   0.05376   0.05767   0.06174
 Alpha virt. eigenvalues --    0.06588   0.06952   0.07202   0.07498   0.08148
 Alpha virt. eigenvalues --    0.08293   0.08536   0.08718   0.08936   0.09635
 Alpha virt. eigenvalues --    0.09961   0.10110   0.10373   0.10857   0.11273
 Alpha virt. eigenvalues --    0.11456   0.11715   0.11850   0.12584   0.12712
 Alpha virt. eigenvalues --    0.12939   0.13393   0.13673   0.13934   0.14507
 Alpha virt. eigenvalues --    0.14745   0.14937   0.15288   0.15509   0.15766
 Alpha virt. eigenvalues --    0.15908   0.16161   0.16415   0.16597   0.16675
 Alpha virt. eigenvalues --    0.16944   0.17366   0.17453   0.17492   0.17886
 Alpha virt. eigenvalues --    0.18017   0.18416   0.18985   0.19019   0.19251
 Alpha virt. eigenvalues --    0.19411   0.19638   0.19853   0.20021   0.20059
 Alpha virt. eigenvalues --    0.20232   0.20317   0.20472   0.20671   0.20918
 Alpha virt. eigenvalues --    0.21210   0.21452   0.21705   0.22052   0.22186
 Alpha virt. eigenvalues --    0.22630   0.22685   0.22911   0.22950   0.23411
 Alpha virt. eigenvalues --    0.23454   0.23644   0.24120   0.24528   0.24632
 Alpha virt. eigenvalues --    0.24719   0.24844   0.25240   0.25349   0.25574
 Alpha virt. eigenvalues --    0.25701   0.26090   0.26261   0.26419   0.26699
 Alpha virt. eigenvalues --    0.27146   0.27600   0.27689   0.27788   0.27958
 Alpha virt. eigenvalues --    0.28253   0.28697   0.28876   0.29118   0.29194
 Alpha virt. eigenvalues --    0.29970   0.30038   0.30215   0.30346   0.30728
 Alpha virt. eigenvalues --    0.30859   0.31153   0.31374   0.31514   0.31985
 Alpha virt. eigenvalues --    0.32508   0.33010   0.33322   0.33584   0.33865
 Alpha virt. eigenvalues --    0.33959   0.34199   0.35225   0.35517   0.35912
 Alpha virt. eigenvalues --    0.36087   0.36209   0.36874   0.37281   0.38491
 Alpha virt. eigenvalues --    0.39147   0.39427   0.39938   0.40195   0.40762
 Alpha virt. eigenvalues --    0.41427   0.41771   0.42598   0.42849   0.43536
 Alpha virt. eigenvalues --    0.44643   0.44978   0.45517   0.45667   0.45819
 Alpha virt. eigenvalues --    0.47075   0.47917   0.48565   0.48922   0.50048
 Alpha virt. eigenvalues --    0.50403   0.50700   0.51591   0.51820   0.52355
 Alpha virt. eigenvalues --    0.52882   0.53022   0.53688   0.53892   0.54214
 Alpha virt. eigenvalues --    0.54698   0.55062   0.55479   0.55664   0.55694
 Alpha virt. eigenvalues --    0.56468   0.56992   0.57225   0.57666   0.58088
 Alpha virt. eigenvalues --    0.58524   0.58584   0.58833   0.59341   0.59587
 Alpha virt. eigenvalues --    0.60096   0.60179   0.60564   0.61025   0.61544
 Alpha virt. eigenvalues --    0.61716   0.62189   0.63039   0.63369   0.63847
 Alpha virt. eigenvalues --    0.63979   0.64666   0.64852   0.65238   0.65707
 Alpha virt. eigenvalues --    0.65846   0.66070   0.66626   0.67057   0.67490
 Alpha virt. eigenvalues --    0.68549   0.69064   0.69117   0.69302   0.69968
 Alpha virt. eigenvalues --    0.70151   0.70527   0.70622   0.70900   0.71611
 Alpha virt. eigenvalues --    0.71859   0.72259   0.72470   0.72907   0.73119
 Alpha virt. eigenvalues --    0.73397   0.73531   0.73820   0.74762   0.75016
 Alpha virt. eigenvalues --    0.75316   0.75460   0.76244   0.76531   0.76749
 Alpha virt. eigenvalues --    0.77227   0.77752   0.77868   0.78201   0.79222
 Alpha virt. eigenvalues --    0.79287   0.79891   0.80289   0.81510   0.81904
 Alpha virt. eigenvalues --    0.82348   0.83423   0.83764   0.84359   0.85061
 Alpha virt. eigenvalues --    0.85325   0.85965   0.86569   0.87614   0.88081
 Alpha virt. eigenvalues --    0.89093   0.89132   0.89470   0.90317   0.90993
 Alpha virt. eigenvalues --    0.91172   0.92090   0.92120   0.92291   0.92867
 Alpha virt. eigenvalues --    0.93111   0.93489   0.94028   0.94446   0.95110
 Alpha virt. eigenvalues --    0.95490   0.96063   0.96273   0.96595   0.97423
 Alpha virt. eigenvalues --    0.97699   0.98479   0.98579   0.98879   0.99172
 Alpha virt. eigenvalues --    0.99709   1.00165   1.00660   1.01233   1.01543
 Alpha virt. eigenvalues --    1.02259   1.02846   1.03513   1.03995   1.04220
 Alpha virt. eigenvalues --    1.04394   1.05579   1.05895   1.06465   1.06783
 Alpha virt. eigenvalues --    1.07072   1.08182   1.08379   1.09610   1.09721
 Alpha virt. eigenvalues --    1.10222   1.10510   1.11553   1.11714   1.12776
 Alpha virt. eigenvalues --    1.14259   1.14455   1.15492   1.15912   1.17861
 Alpha virt. eigenvalues --    1.18393   1.18689   1.18899   1.20880   1.22012
 Alpha virt. eigenvalues --    1.22942   1.23537   1.24778   1.25681   1.28177
 Alpha virt. eigenvalues --    1.29277   1.31050   1.31354   1.32260   1.33203
 Alpha virt. eigenvalues --    1.34236   1.36190   1.36593   1.37302   1.38642
 Alpha virt. eigenvalues --    1.39459   1.41510   1.42889   1.43004   1.44264
 Alpha virt. eigenvalues --    1.45547   1.46916   1.47850   1.48189   1.48550
 Alpha virt. eigenvalues --    1.48820   1.49410   1.49955   1.50542   1.50877
 Alpha virt. eigenvalues --    1.51321   1.51393   1.52426   1.53340   1.53469
 Alpha virt. eigenvalues --    1.54406   1.54908   1.56037   1.56750   1.57150
 Alpha virt. eigenvalues --    1.57712   1.57897   1.59287   1.60046   1.60679
 Alpha virt. eigenvalues --    1.61265   1.61771   1.62272   1.63339   1.63661
 Alpha virt. eigenvalues --    1.64283   1.65544   1.66352   1.66984   1.67620
 Alpha virt. eigenvalues --    1.68019   1.68659   1.69326   1.70558   1.71251
 Alpha virt. eigenvalues --    1.71865   1.72251   1.72994   1.73282   1.74445
 Alpha virt. eigenvalues --    1.74991   1.75784   1.76054   1.76470   1.76902
 Alpha virt. eigenvalues --    1.77510   1.78070   1.78488   1.79186   1.80757
 Alpha virt. eigenvalues --    1.82632   1.82765   1.83187   1.83863   1.85143
 Alpha virt. eigenvalues --    1.85283   1.85764   1.86100   1.86623   1.88116
 Alpha virt. eigenvalues --    1.88319   1.89375   1.89675   1.89915   1.90320
 Alpha virt. eigenvalues --    1.91140   1.91334   1.92023   1.92196   1.93037
 Alpha virt. eigenvalues --    1.93512   1.94533   1.94822   1.95199   1.95794
 Alpha virt. eigenvalues --    1.96510   1.97005   1.97574   1.97817   1.98266
 Alpha virt. eigenvalues --    1.99571   1.99829   2.00510   2.02091   2.02344
 Alpha virt. eigenvalues --    2.02672   2.03875   2.04173   2.04598   2.05662
 Alpha virt. eigenvalues --    2.06998   2.07639   2.07814   2.08624   2.09341
 Alpha virt. eigenvalues --    2.10179   2.10444   2.11861   2.13545   2.14093
 Alpha virt. eigenvalues --    2.14453   2.15210   2.16429   2.17805   2.18148
 Alpha virt. eigenvalues --    2.19542   2.20860   2.21286   2.21888   2.22839
 Alpha virt. eigenvalues --    2.23200   2.24014   2.25426   2.25970   2.27399
 Alpha virt. eigenvalues --    2.27659   2.28641   2.30726   2.32245   2.33588
 Alpha virt. eigenvalues --    2.34821   2.35542   2.37906   2.38945   2.39725
 Alpha virt. eigenvalues --    2.41895   2.42142   2.42711   2.43683   2.44275
 Alpha virt. eigenvalues --    2.44663   2.45549   2.48603   2.48992   2.49899
 Alpha virt. eigenvalues --    2.50457   2.51462   2.52458   2.56025   2.57472
 Alpha virt. eigenvalues --    2.59176   2.60251   2.60672   2.61600   2.62593
 Alpha virt. eigenvalues --    2.63604   2.64792   2.65796   2.66618   2.67514
 Alpha virt. eigenvalues --    2.68452   2.68568   2.69896   2.70507   2.71175
 Alpha virt. eigenvalues --    2.71851   2.72839   2.73253   2.73466   2.74236
 Alpha virt. eigenvalues --    2.74698   2.74812   2.75239   2.75421   2.75654
 Alpha virt. eigenvalues --    2.76290   2.76797   2.77252   2.77642   2.77816
 Alpha virt. eigenvalues --    2.77959   2.78878   2.79095   2.80252   2.80375
 Alpha virt. eigenvalues --    2.80854   2.81462   2.82274   2.83704   2.84049
 Alpha virt. eigenvalues --    2.85875   2.85899   2.86118   2.87668   2.88626
 Alpha virt. eigenvalues --    2.88869   2.90021   2.91048   2.91810   2.92299
 Alpha virt. eigenvalues --    2.93479   2.94303   2.94369   2.96001   2.97588
 Alpha virt. eigenvalues --    2.98434   2.99023   2.99681   3.02736   3.03460
 Alpha virt. eigenvalues --    3.04345   3.06453   3.07249   3.08683   3.09772
 Alpha virt. eigenvalues --    3.13091   3.14113   3.16849   3.17619   3.18289
 Alpha virt. eigenvalues --    3.21009   3.21340   3.23184   3.23775   3.24164
 Alpha virt. eigenvalues --    3.24376   3.26516   3.29148   3.32969   3.35050
 Alpha virt. eigenvalues --    3.36330   3.38351   3.38842   3.38923   3.41014
 Alpha virt. eigenvalues --    3.41684   3.42993   3.43349   3.44925   3.46099
 Alpha virt. eigenvalues --    3.47807   3.48302   3.48820   3.49813   3.51545
 Alpha virt. eigenvalues --    3.52787   3.53803   3.54509   3.55399   3.58371
 Alpha virt. eigenvalues --    3.60208   3.62194   3.63390   3.65081   3.65705
 Alpha virt. eigenvalues --    3.67728   3.70898   3.72830   3.78940   3.83693
 Alpha virt. eigenvalues --    3.87129   3.89972   3.93925   4.03568   4.05336
 Alpha virt. eigenvalues --    4.06368   4.07923   4.08242   4.10273   4.13259
 Alpha virt. eigenvalues --    4.17509   4.19935   4.20615   4.23597   4.26667
 Alpha virt. eigenvalues --    4.30779   4.36825   4.49880   4.65219   4.76888
 Alpha virt. eigenvalues --    4.77726   4.78664   4.80749   4.82760   4.84841
 Alpha virt. eigenvalues --    4.85111   4.90390  23.42780  23.63326  23.69975
 Alpha virt. eigenvalues --   23.81591  23.86560  23.89720  23.91686  23.92731
 Alpha virt. eigenvalues --   23.95275  23.97457  23.99385  23.99889  24.01117
 Alpha virt. eigenvalues --   24.01995  24.03406  24.04525  24.05099  24.06104
 Alpha virt. eigenvalues --   24.06740  24.07262  24.07988  24.09648  24.10067
 Alpha virt. eigenvalues --   24.10222  24.13719  24.14892  24.17289  24.18309
 Alpha virt. eigenvalues --   24.22854  24.35023
  Beta  occ. eigenvalues --  -10.20028 -10.19391 -10.19278 -10.19235 -10.19141
  Beta  occ. eigenvalues --  -10.19052 -10.19035 -10.18977 -10.18949 -10.18938
  Beta  occ. eigenvalues --  -10.18884 -10.18843 -10.18628 -10.18467 -10.18368
  Beta  occ. eigenvalues --  -10.18327 -10.18302 -10.18194 -10.18159 -10.18042
  Beta  occ. eigenvalues --  -10.17906 -10.17904 -10.17809 -10.17788 -10.17760
  Beta  occ. eigenvalues --  -10.17370 -10.16964 -10.15856 -10.15578 -10.15493
  Beta  occ. eigenvalues --   -0.92934  -0.88946  -0.87915  -0.85780  -0.84018
  Beta  occ. eigenvalues --   -0.83420  -0.80706  -0.79153  -0.77765  -0.77070
  Beta  occ. eigenvalues --   -0.75825  -0.74476  -0.72303  -0.71235  -0.70886
  Beta  occ. eigenvalues --   -0.67123  -0.65050  -0.63973  -0.63385  -0.61982
  Beta  occ. eigenvalues --   -0.60758  -0.59474  -0.58670  -0.56673  -0.55775
  Beta  occ. eigenvalues --   -0.53538  -0.52244  -0.51468  -0.51278  -0.49482
  Beta  occ. eigenvalues --   -0.48677  -0.47875  -0.47204  -0.46246  -0.45642
  Beta  occ. eigenvalues --   -0.44476  -0.43983  -0.43884  -0.43608  -0.42895
  Beta  occ. eigenvalues --   -0.42677  -0.42344  -0.42242  -0.41021  -0.40460
  Beta  occ. eigenvalues --   -0.40028  -0.39948  -0.39809  -0.38946  -0.38333
  Beta  occ. eigenvalues --   -0.37193  -0.36351  -0.35564  -0.35148  -0.34625
  Beta  occ. eigenvalues --   -0.34273  -0.33995  -0.33327  -0.32957  -0.31837
  Beta  occ. eigenvalues --   -0.29767  -0.28606  -0.27669  -0.26386  -0.24535
  Beta  occ. eigenvalues --   -0.21966  -0.21306  -0.20119
  Beta virt. eigenvalues --   -0.10161  -0.08618  -0.05458  -0.03012  -0.02451
  Beta virt. eigenvalues --   -0.00481  -0.00071   0.00147   0.00582   0.00742
  Beta virt. eigenvalues --    0.01418   0.01685   0.01983   0.02175   0.02587
  Beta virt. eigenvalues --    0.03042   0.03288   0.03688   0.03956   0.04200
[...]
 000645,0.00000346,-0.00000270,-0.00000403,-0.00000213,-0.00000260,-0.0
 0000410,-0.00000208,-0.00000097,-0.00000462,-0.00000301,-0.00000025,-0
 .00000011,-0.00000577,0.00000014,0.00000224,-0.00000245,0.00000003,0.0
 0000447,-0.00000514,0.00000072,-0.00000484,-0.00000912,-0.00001499,0.0
 0084848,-0.00027601,0.00030360,0.22474934,-0.00003455,0.00003373,-0.00
 000474,-0.00003537,0.00000999,-0.00000177,0.00005525,0.00004303,-0.000
 00259,0.00012276,-0.00005073,0.00001221,0.00001955,-0.00003640,0.00000
 423,-0.00005102,0.00001372,-0.00000837,0.00020867,-0.00016035,0.000073
 57,-0.00001861,-0.00067579,-0.00015516,-0.00012154,0.00012654,-0.00005
 565,-0.00010019,-0.00009733,0.00001449,0.00005084,0.00028598,-0.000264
 11,0.00034173,-0.00049883,-0.00003898,0.00300557,-0.00303529,0.0039541
 7,-0.00124057,0.00003423,0.00011703,0.00000836,-0.00002193,-0.00000008
 ,0.00002206,0.00001142,0.00001036,-0.00003543,-0.00003231,-0.00001648,
 -0.00000503,0.00000059,0.00000966,-0.02419182,-0.01465385,0.00513767,0
 .00219455,0.00079782,0.00152046,0.00875565,0.00926058,-0.00197199,-0.1
 3215484,-0.16852279,0.03852083,-0.00000311,0.00000205,-0.00000102,-0.0
 0000724,-0.00000781,-0.00000334,0.00001411,-0.00000387,0.00000337,-0.0
 0000487,0.00000362,-0.00001412,0.00001127,0.00001172,0.00001321,0.0000
 1040,0.00000810,-0.00000094,0.00000349,0.00000055,0.00000338,-0.000000
 73,0.00000109,0.00000693,0.00000111,0.00000297,-0.00000215,-0.00000305
 ,0.00000371,0.00000419,0.00000047,-0.00000069,-0.00000548,-0.00000304,
 0.00000253,-0.00000184,-0.00000329,0.00000338,-0.00000021,-0.00000412,
 -0.00000092,-0.00000085,-0.00000446,-0.00000122,-0.00000169,-0.0000048
 6,-0.00000177,-0.00000099,-0.00000130,-0.00000535,0.00000127,-0.000017
 97,-0.00001530,0.00000759,0.00001413,-0.00000680,0.00000053,0.00005542
 ,-0.00000295,0.00009650,0.00033150,0.00040439,-0.00179371,0.14287319,0
 .17619961,0.00000272,-0.00000382,0.00001532,0.00001867,0.00000262,0.00
 001146,-0.00002259,-0.00002507,-0.00001069,-0.00001819,0.00001969,-0.0
 0001013,0.00000831,0.00001595,0.00000064,0.00000741,-0.00001400,-0.000
 00503,0.00002529,0.00001015,0.00012619,-0.00004290,0.00004134,-0.00073
 109,0.00003953,-0.00002770,-0.00008062,0.00001454,0.00002746,0.0000500
 8,0.00004968,-0.00016506,-0.00060454,-0.00032710,0.00006765,-0.0007044
 0,-0.00103599,0.00375324,0.00781848,0.00057500,0.00027850,0.00021322,-
 0.00000244,0.00000189,-0.00000122,-0.00001140,-0.00000289,-0.00001208,
 0.00000432,0.00002247,0.00000622,0.00000559,0.00002396,0.00000609,0.00
 824787,0.00574922,0.00202193,-0.00132039,0.00168520,0.00419133,-0.0038
 4457,-0.00337952,0.00324842,0.03607308,0.03890661,-0.04702846,-0.00000
 758,-0.00000349,-0.00000578,0.00000616,-0.00000446,0.00000021,0.000019
 37,-0.00002028,0.00000249,-0.00003295,0.00001846,0.00001997,0.00000067
 ,0.00000363,0.00001476,0.00001317,0.00000927,-0.00000815,0.00000018,0.
 00001672,-0.00000447,-0.00000140,-0.00001491,0.00000059,0.00000203,-0.
 00000135,0.00000146,0.00000776,-0.00000050,-0.00000873,-0.00001337,0.0
 0001771,0.00000676,-0.00000311,-0.00000038,0.00000021,-0.00000131,-0.0
 0000032,0.00000130,0.00000031,-0.00000129,0.00000222,0.00000075,0.,0.0
 0000251,0.00000145,-0.00000043,-0.00000363,0.00000089,0.00000171,0.000
 00217,0.00000380,0.00000553,0.00001612,-0.00000311,0.00000077,-0.00000
 032,-0.00002020,0.00004434,0.00021580,0.00002329,-0.00177513,-0.004633
 84,-0.03862146,-0.04413393,0.03773371,0.00002702,0.00001917,0.00001321
 ,0.00005424,-0.00010914,-0.00004319,-0.00011705,-0.00003305,-0.0000094
 3,-0.00007636,0.00006379,-0.00001148,-0.00002072,-0.00000234,0.0000139
 6,0.00001894,0.00002358,-0.00000449,-0.00007062,0.00045333,0.00000687,
 0.00027545,0.00012517,0.00001806,-0.00001405,-0.00008826,-0.00000265,0
 .00009147,0.00002637,0.00002301,0.00052526,-0.00075750,0.00022711,-0.0
 0049654,0.00014638,0.00009092,0.00146352,0.00033831,0.00017188,-0.0001
 7519,-0.00048163,0.00001986,-0.00000193,-0.00000136,0.00000165,-0.0001
 7544,0.00008155,-0.00004896,-0.00015975,0.00023743,0.00023733,0.000164
 24,0.00024349,-0.00026647,0.00055066,-0.00036950,0.00024520,-0.3076719
 6,0.07932725,-0.05047396,-0.01796374,0.00870798,-0.00455821,-0.0011322
 8,-0.00393445,0.00076851,0.00006472,-0.00002773,0.00003211,-0.00002704
 ,-0.00006149,-0.00003364,0.00027001,-0.00022064,0.00003492,-0.00277046
 ,-0.00073062,0.00110510,-0.00122609,0.00041950,0.00204639,0.00004549,-
 0.00001075,0.00014902,0.00006477,0.00015031,-0.00000893,-0.00011335,-0
 .00006216,-0.00003449,0.00002523,-0.00001869,-0.00001511,-0.00001837,-
 0.00016694,-0.00006559,-0.00027292,0.00019107,0.00003046,0.00001914,-0
 .00001227,-0.00001503,0.00001591,0.00000209,0.00000735,0.00001105,0.00
 000105,-0.00000477,0.00000802,0.00000936,0.00000094,0.00000389,0.00000
 627,-0.00000145,0.00000003,0.00000273,-0.00000332,0.00000154,0.0000035
 9,-0.00000085,-0.00000833,-0.00000013,-0.00000577,0.00001449,0.0000017
 0,-0.00012496,-0.00005133,0.00007211,0.00002798,-0.00083781,0.00045424
 ,-0.00018652,0.32868216,-0.00001829,0.00010570,0.00001536,0.00004660,-
 0.00024483,-0.00007398,-0.00006904,0.00008620,0.00008927,0.00012157,0.
 00000416,0.00000742,0.00003719,-0.00006177,0.00000628,-0.00007536,0.00
 001605,-0.00001479,0.00004280,0.00009627,-0.00022123,-0.00000531,-0.00
 003251,-0.00004815,-0.00005527,0.00011065,0.00000175,-0.00005588,-0.00
 009409,-0.00000205,0.00045379,0.00111377,-0.00095526,0.02824702,-0.005
 84406,0.00475458,-0.00087768,-0.00432484,0.00323273,0.00158529,0.00023
 522,-0.00006436,0.00002726,-0.00001774,-0.00000016,-0.00004454,0.00000
 852,-0.00003872,-0.00053670,-0.00027461,0.00002069,-0.00022269,-0.0002
 0644,0.00003511,-0.00028150,-0.00072517,-0.00012681,0.07923450,-0.0812
 1516,0.02287484,-0.02117076,0.00974497,-0.00302196,-0.00291888,-0.0012
 1991,0.00361051,-0.00003473,-0.00002058,-0.00000947,0.00004702,0.00000
 361,0.00004086,-0.00005910,0.00016786,-0.00009840,0.00016230,0.0002300
 8,-0.00009837,0.00054041,0.00034576,-0.00017259,0.00023859,0.00000968,
 -0.00034078,-0.00002653,0.00007611,0.00007042,0.00001257,-0.00022225,0
 .00004199,0.00000512,-0.00000445,-0.00001682,-0.00008095,-0.00002254,0
 .00003051,0.00003904,0.00008098,0.00015281,-0.00000260,-0.00001681,-0.
 00000623,0.00000885,-0.00000104,0.00000630,0.00000515,-0.00000483,0.00
 000442,0.00000230,0.00000659,0.00000332,-0.00000034,0.00000565,0.00000
 167,-0.00000150,0.00000245,0.00000188,-0.00001118,0.00000043,0.0000014
 1,-0.00000030,0.00000896,0.00000338,0.00013031,-0.00041893,0.00014572,
 0.00008955,-0.00000303,-0.00041990,-0.00101443,0.00028383,-0.00009473,
 -0.08379167,0.08225894,0.00004217,-0.00012208,0.00004235,0.00009677,0.
 00003651,-0.00001060,0.00001772,0.00005945,0.00010652,-0.00009017,-0.0
 0013397,0.00000770,0.00002829,0.00018340,-0.00000726,0.00016180,-0.000
 08767,0.00002265,0.00024754,-0.00055733,-0.00008074,-0.00020265,-0.000
 06612,-0.00013600,0.00008332,-0.00012831,0.00001776,0.00003272,0.00009
 033,-0.00001632,0.00017832,-0.00018799,-0.00204382,-0.01043623,0.00079
 272,0.00200241,-0.00019053,0.00297534,0.00340642,-0.00067391,0.0001026
 4,0.00008131,-0.00003450,0.00002691,-0.00002435,-0.00014848,-0.0000963
 6,-0.00009222,0.00010777,0.00040086,0.00018957,0.00014759,0.00019811,-
 0.00015303,0.00047077,0.00048446,-0.00110469,-0.04943144,0.02373407,-0
 .04718152,0.00581726,-0.00135847,0.00538838,0.00107662,0.00301646,0.00
 745640,-0.00003694,-0.00007504,-0.00002329,0.00003974,0.00012447,0.000
 02929,0.00004193,-0.00010073,-0.00001597,0.00076840,0.00038121,0.00013
 827,0.00105596,-0.00026430,-0.00115117,0.00001545,-0.00020890,-0.00026
 905,-0.00006411,0.00005038,-0.00006069,0.00006433,-0.00001468,0.000081
 74,-0.00002988,0.00004439,-0.00001247,-0.00004159,-0.00000377,0.000070
 94,0.00023398,0.00017454,-0.00064681,-0.00004564,0.00002108,0.00000374
 ,-0.00003770,0.00000252,-0.00001189,-0.00000460,-0.00001601,0.00000034
 ,-0.00000571,-0.00001141,0.00001674,-0.00000346,-0.00000598,-0.0000041
 0,0.00000939,-0.00000158,0.00000056,0.00001024,0.00000021,-0.00000014,
 -0.00000152,-0.00000253,0.00001255,-0.00003025,0.00026939,0.00026042,-
 0.00000886,-0.00031184,-0.00096625,0.00030447,-0.00002772,0.00022686,0
 .05037831,-0.02701725,0.03912873,-0.00001644,0.00001939,-0.00000630,-0
 .00005293,0.00006420,-0.00001648,0.00016171,-0.00008180,0.00000272,0.0
 0005447,-0.00004205,-0.00000055,0.00001505,-0.00004360,0.00000463,-0.0
 0004901,-0.00000286,-0.00000752,-0.00015522,-0.00040205,0.00014313,-0.
 00025565,-0.00010654,0.00002185,0.00003147,0.00009265,-0.00001956,-0.0
 0009391,-0.00001124,-0.00000595,0.00092107,-0.00051840,0.00019862,-0.0
 0376597,-0.00286232,0.00053351,-0.00071691,-0.00074119,0.00016449,0.00
 021047,0.00043726,-0.00004788,0.00000984,-0.00000814,-0.00000158,0.000
 02434,0.00001593,0.00002205,-0.00001914,-0.00006095,-0.00001015,-0.000
 03322,0.00001170,0.00000524,-0.00558913,0.00079574,-0.00082829,0.00811
 993,-0.02348907,0.00899255,-0.06865425,0.04783089,-0.01991415,-0.00067
 008,0.02809176,-0.01067259,-0.00000020,0.00000460,0.00000006,-0.000024
 94,-0.00000446,-0.00001245,0.00000211,-0.00002611,-0.00000522,-0.00001
 516,0.00000471,-0.00001193,0.00000996,-0.00004274,0.00000258,-0.000053
 04,-0.00002037,0.00002393,-0.00000994,-0.00001231,-0.00002110,0.000010
 99,0.00005938,-0.00003293,-0.00000871,0.00000428,0.00001405,0.00003636
 ,0.00001540,-0.00002113,0.00001315,0.00000683,-0.00001938,-0.00000293,
 0.00000311,0.00000771,-0.00000161,-0.00000142,0.00000136,-0.00000120,0
 .00000461,0.00000039,-0.00000005,0.00000003,-0.00000214,0.00000099,-0.
 00000055,0.00000063,-0.00000504,-0.00000068,0.00000038,-0.00000039,0.0
 0000104,0.00000112,0.00000165,-0.00000763,0.00000043,0.00003905,-0.000
 08096,0.00001591,-0.00025925,0.00145044,-0.00033385,0.00096568,-0.0005
 0418,0.00037523,0.00097681,0.00043562,0.00020728,0.06881645,0.00000151
 ,0.00003383,-0.00000092,-0.00013514,0.00004303,-0.00004790,0.00017251,
 -0.00016849,-0.00000926,0.00000975,0.00004544,0.00002689,0.00000152,-0
 .00008777,0.00000383,-0.00008746,0.00001228,-0.00000746,-0.00032377,-0
 .00027604,-0.00023916,-0.00013836,-0.00000705,0.00006417,-0.00001699,0
 .00007450,0.00002979,-0.00004170,-0.00002109,-0.00001118,0.00097507,-0
 .00050719,0.00022848,-0.00357565,0.00077324,0.00314060,-0.00035167,0.0
 0017322,-0.00036100,0.00006558,0.00011143,-0.00028623,0.00001256,-0.00
 000355,-0.00000083,0.00003342,0.00000880,0.00001662,-0.00000543,-0.000
 10471,-0.00005279,-0.00004933,-0.00001453,0.00011095,0.00169084,0.0019
 8751,0.00130092,0.00580105,-0.01392800,0.00715832,0.04675752,-0.287070
 63,0.09579285,-0.00077209,-0.00442461,0.00273614,-0.00001782,0.0000230
 5,-0.00000422,-0.00004493,-0.00004201,-0.00002881,0.00008894,-0.000057
 09,0.00001402,-0.00005088,0.00007727,-0.00001571,0.00000738,-0.0000304
 7,0.00008917,-0.00008616,-0.00004899,0.00002162,0.00000958,-0.00000076
 ,0.00000059,0.00000824,0.00004900,-0.00001761,-0.00000802,0.00000851,0
 .00000676,0.00002540,0.00001738,-0.00001333,0.00002057,0.00000559,-0.0
 0003609,-0.00000734,0.00000748,0.00000526,-0.00000880,0.00000267,0.000
 00155,-0.00000767,0.00000257,0.00000072,-0.00000769,-0.00000178,-0.000
 00348,-0.00000438,-0.00000347,0.00000116,-0.00000877,-0.00000855,0.000
 00223,-0.00000244,-0.00000960,-0.00000464,0.00000781,-0.00000682,0.000
 00138,0.00001127,-0.00000231,0.00001138,-0.00009711,-0.00032475,0.0001
 2080,0.00040365,0.00028251,-0.00104737,-0.00000354,0.00012417,-0.00210
 701,-0.05031965,0.30322707,-0.00003835,-0.00001006,0.00000210,0.000015
 51,0.00013300,-0.00006056,0.00009632,-0.00002081,-0.00006005,-0.000041
 19,0.00002504,0.00007777,0.00001001,0.00001460,0.00000220,-0.00000022,
 -0.00001498,0.00001229,0.00011139,-0.00024836,-0.00086296,-0.00010670,
 0.00005174,0.00013207,0.00000262,-0.00003606,0.00012145,0.00004025,0.0
 0002848,-0.00002536,0.00019859,0.00046461,0.00008889,0.00075784,0.0018
 9235,0.00849927,-0.00010964,-0.00060627,-0.00055655,-0.00002053,-0.000
 03860,-0.00069287,0.00004234,0.00000698,0.00000505,-0.00001587,-0.0000
 1972,-0.00004060,0.00004919,-0.00006822,-0.00007373,-0.00024233,-0.000
 09961,0.00018303,-0.00129400,0.00128336,0.00434195,-0.00159426,0.00659
 094,0.00191867,-0.02055311,0.09613874,-0.07425808,0.00087807,0.0038263
 7,0.00173359,-0.00004519,0.00002382,-0.00001151,0.00000446,-0.00006181
 ,-0.00001222,0.00007110,-0.00001955,0.00002680,0.00000889,0.00012346,-
 0.00005491,0.00005002,0.00013281,0.00008100,0.00018016,0.00014399,-0.0
 0005719,-0.00000733,0.00007239,-0.00000288,0.00001846,-0.00012488,0.00
 007561,0.00001403,-0.00000688,-0.00001112,-0.00005493,-0.00001789,0.00
 002040,0.00003643,0.00000578,-0.00000201,-0.00000974,-0.00000444,-0.00
 001329,-0.00000193,0.00000014,0.00000390,-0.00000041,-0.00000383,0.000
 00406,-0.00000061,-0.00000034,0.00000663,0.00000113,-0.00000009,0.0000
 0156,0.00000019,0.00000161,0.00000403,0.00000349,0.00000078,-0.0000154
 1,-0.00000137,-0.00000125,0.00000116,0.00000172,-0.00000048,0.00003413
 ,0.00001346,0.00029741,0.00000895,0.00007376,-0.00100206,-0.00212287,0
 .00039080,-0.00213694,-0.00458572,0.02113709,-0.10661224,0.06621466,0.
 00012810,-0.00002205,0.00000347,0.00003565,-0.00032717,-0.00001010,-0.
 00017406,0.00001212,0.00001083,-0.00002480,-0.00007141,0.00000242,0.00
 002295,0.00007540,0.00000513,0.00008107,-0.00001295,0.00000979,0.00012
 459,-0.00004403,-0.00000966,-0.00009054,-0.00000907,0.00000208,0.00004
 360,-0.00006431,0.00000997,0.00000083,0.00004897,-0.00000423,-0.000165
 99,0.00013549,-0.00006469,0.00000205,-0.00004849,-0.00002307,-0.000086
 44,-0.00001931,0.00001670,0.00002469,0.00008865,-0.00001081,-0.0000364
 7,0.00003505,-0.00001427,-0.00017525,-0.00000969,-0.00005189,-0.000034
 76,-0.00039205,-0.00001845,-0.00002187,0.00030726,-0.00001869,-0.00000
 105,0.00002396,-0.00001283,0.00001983,-0.00006667,0.00004563,-0.000028
 43,0.00003045,0.00012592,0.00007379,0.00006654,0.00002138,-0.00008701,
 -0.00071471,-0.00004084,0.00081275,0.00084937,0.00043646,-0.00151217,-
 0.00078838,-0.00009671,0.00183008,0.00000397,0.00238856,0.00028159,-0.
 00613308,-0.00339969,-0.22446570,-0.07560076,0.05858794,-0.00080633,0.
 00516951,0.00118578,-0.02418389,-0.00758523,0.00151226,0.00079874,0.00
 055165,-0.00054911,-0.00386051,-0.00173976,0.00371922,0.00038700,-0.00
 030183,-0.00037854,0.00002455,-0.00011389,-0.00145567,0.00003551,0.000
 03049,-0.00001702,0.00001438,-0.00003342,-0.00002230,0.00000066,0.0000
 0186,0.00000719,-0.00000423,-0.00000076,-0.00000025,0.00000458,-0.0000
 0594,0.00000017,0.00000481,-0.00000441,0.00000095,0.00000252,0.0000021
 6,0.00000060,0.00000492,-0.00000179,-0.00000869,0.00000281,0.00000935,
 -0.00000413,0.00000938,-0.00000316,-0.00001047,0.00002725,-0.00015762,
 -0.00011995,0.00003278,0.00006863,-0.00006959,0.25092804,0.00031943,-0
 .00038167,0.00003846,0.00009880,-0.00044983,0.00018883,-0.00025569,0.0
 0030638,-0.00001515,-0.00030505,-0.00045124,-0.00000182,-0.00010873,0.
 00040588,-0.00004064,0.00049347,-0.00006640,0.00007062,-0.00005700,-0.
 00004544,-0.00001301,0.00020754,0.00017086,-0.00002439,0.00002658,-0.0
 0016393,0.00002701,0.00004610,0.00011210,-0.00001946,-0.00018715,0.000
 13511,-0.00005255,0.00004589,-0.00033182,0.00018131,-0.00008675,0.0001
 4846,-0.00006522,-0.00003755,-0.00022067,0.00006625,-0.00013547,0.0002
 9222,0.00000376,-0.00004881,-0.00043821,0.00006191,0.00093177,-0.00055
 575,-0.00120143,-0.00057742,0.00031474,-0.00036053,-0.00016982,-0.0000
 3681,-0.00001788,0.00016627,0.00008756,0.00022237,0.00012534,0.0002358
 7,0.00004908,0.00013597,0.00012431,-0.00002887,-0.00012102,-0.00044208
 ,-0.00002874,0.00060876,0.00119586,0.00054232,-0.00163695,0.00017168,-
 0.00065918,0.00346596,-0.00293853,0.00195000,-0.02968266,-0.01619158,0
 .00387501,-0.07740203,-0.08013120,0.02731245,0.00184477,-0.00145739,0.
 00128095,0.01470982,0.00998016,-0.00641640,-0.00065705,0.00022091,-0.0
 0012330,0.00083411,0.00109215,0.00038482,0.00103129,0.00061157,-0.0005
 6784,-0.00018705,0.00003450,0.00114656,-0.00003603,0.00001367,-0.00004
 160,0.00003810,-0.00000057,-0.00008077,0.00000039,0.00000152,0.0000102
 1,-0.00000874,0.00000108,-0.00000331,0.00001379,-0.00000422,0.00000041
 ,0.00000839,-0.00000487,-0.00000238,0.00000153,0.00000766,-0.00000154,
 -0.00000397,0.00000248,-0.00001472,-0.00000167,0.00001520,-0.00000016,
 -0.00002627,0.00000460,-0.00000746,-0.00022394,-0.00015098,-0.00026243
 ,0.00004172,0.00005973,-0.00010304,0.08676105,0.08871694,-0.00002559,0
 .00001551,-0.00000867,0.00001908,0.00008791,-0.00000226,0.00003124,-0.
 00000875,0.00000807,-0.00000459,0.00003504,0.00000266,-0.00000087,-0.0
 0001632,-0.00000060,-0.00001671,0.00000529,-0.00000455,0.00000099,0.00
 002219,-0.00001520,0.00002350,0.00003059,-0.00000073,-0.00000592,-0.00
 002023,-0.00000171,0.00002919,0.00000307,-0.00000108,0.00011124,-0.000
 00126,-0.00000383,-0.00014102,-0.00014289,0.00005588,-0.00001093,0.000
 05947,-0.00005472,-0.00002193,-0.00004429,0.00000070,-0.00000264,0.000
 01007,0.00000567,0.00003819,-0.00008593,0.00004514,-0.00003471,-0.0001
 0870,-0.00045881,-0.00012286,-0.00006986,-0.00000394,-0.00008687,0.000
 02685,-0.00003339,0.00018462,0.00012562,0.00006020,0.00000465,-0.00010
 738,-0.00001044,0.00003496,0.00004310,-0.00001641,-0.00007090,-0.00018
 193,0.00001783,0.00018460,0.00024506,0.00015728,-0.00049496,-0.0005215
 3,-0.00002828,0.00072639,-0.00111843,-0.00049504,-0.00994285,-0.006024
 99,0.00187095,0.05750339,0.02627757,-0.05392286,-0.00077844,0.00217453
 ,-0.00025647,-0.01597674,-0.00615204,0.00266716,0.00074456,-0.00008031
 ,0.00033141,0.02965733,0.01243315,-0.01437235,0.00023480,0.00047488,0.
 00030142,-0.00008286,-0.00000107,-0.00093496,0.00001980,0.00000202,-0.
 00003508,0.00000689,-0.00000469,-0.00001831,0.00000062,-0.00000417,0.0
 0000312,0.00000271,0.00000144,0.00000063,-0.00000023,0.00000325,0.0000
 0070,0.00000024,0.00000372,0.00000060,-0.00000413,0.00000176,0.0000019
 8,-0.00000782,0.00000913,0.00000991,-0.00000981,0.00001703,0.00000363,
 -0.00002735,-0.00000169,0.00001953,-0.00012169,-0.00017430,-0.00009357
 ,0.00011422,0.00002104,-0.00008135,-0.06168079,-0.02725850,0.06529017\
 \0.00000314,-0.00000421,0.00000143,0.00000252,-0.00000512,-0.00000672,
 -0.00000307,0.00000538,0.00000571,-0.00000081,-0.00000149,-0.00000155,
 -0.00000689,0.00000698,-0.00000193,0.00001340,-0.00000391,0.00000043,0
 .00000144,0.00000300,0.00000908,-0.00000254,0.00000173,-0.00000022,0.0
 0000799,0.00000561,-0.00000202,-0.00000646,-0.00000438,-0.00000083,-0.
 00000024,-0.00000219,0.00000645,0.00000112,-0.00000146,-0.00000169,-0.
 00000368,0.00000369,-0.00000116,0.00000096,-0.00000132,-0.00000363,0.0
 0000148,-0.00000391,0.00000121,-0.00000625,0.00000375,-0.00000143,0.00
 000831,0.00000104,0.00000677,-0.00000177,0.00000428,-0.00000982,-0.000
 00047,-0.00000002,0.,0.00000341,-0.00000082,0.00000121,-0.00000201,0.0
 0000174,0.00000018,0.00000033,0.00000254,-0.00000117,0.00000304,-0.000
 00695,0.00000212,0.00000076,0.00000623,0.00000207,-0.00000378,0.000000
 31,-0.00000353,0.00000209,-0.00000932,-0.00000598,-0.00000555,0.000001
 97,0.00000082,-0.00000435,0.00000422,0.00000262,-0.00000330,-0.0000041
 5,-0.00000434,0.00000637,0.00000013,0.00000571,-0.00000432,-0.00000039
 ,0.00000332,0.00000137,0.00000015,-0.00000202,0.00000021,-0.00000213,0
 .00000465,-0.00000241,-0.00000159,-0.00000067,-0.00000070,-0.00000107,
 -0.00000087,0.00000003,-0.00000210,-0.00000138,0.00000015,-0.00000138,
 -0.00000050,0.00000037,-0.00000030,-0.00000034,0.00000212,-0.00000044,
 0.00000018,0.00000090,0.00000025,-0.00000002,0.00000217,0.00000191,0.0
 0000072,0.00000069,0.00000094,0.00000053,0.00000030,0.00000097,0.00000
 147,-0.00000109,0.00000203,0.00000061,-0.00000246,0.00000076,-0.000000
 09,-0.00000079,0.00000077,-0.00000039,-0.00000173,-0.00000173,-0.00000
 497\\\@


 THE HURRIEDER I GO, THE BEHINDER I GET.
 Job cpu time:       2 days  3 hours 49 minutes  9.6 seconds.
 Elapsed time:       0 days  2 hours 35 minutes 53.1 seconds.
 File lengths (MBytes):  RWF=   4619 Int=      0 D2E=      0 Chk=     78 Scr=      1
 Normal termination of Gaussian 16 at Wed Jun 12 19:39:20 2019.
