 Entering Gaussian System, Link 0=/share/apps/gaussian16/g16/g16
 Initial command:
 /share/apps/gaussian16/g16/l1.exe "/home/amen01//scratch/457/Gau-28004.inp" -scrdir="/home/amen01//scratch/457/"
 Entering Link 1 = /share/apps/gaussian16/g16/l1.exe PID=     28005.
  
 Copyright (c) 1988-2017, Gaussian, Inc.  All Rights Reserved.
  
 This is part of the Gaussian(R) 16 program.  It is based on
 the Gaussian(R) 09 system (copyright 2009, Gaussian, Inc.),
 the Gaussian(R) 03 system (copyright 2003, Gaussian, Inc.),
 the Gaussian(R) 98 system (copyright 1998, Gaussian, Inc.),
 the Gaussian(R) 94 system (copyright 1995, Gaussian, Inc.),
 the Gaussian 92(TM) system (copyright 1992, Gaussian, Inc.),
 the Gaussian 90(TM) system (copyright 1990, Gaussian, Inc.),
 the Gaussian 88(TM) system (copyright 1988, Gaussian, Inc.),
 the Gaussian 86(TM) system (copyright 1986, Carnegie Mellon
 University), and the Gaussian 82(TM) system (copyright 1983,
 Carnegie Mellon University). Gaussian is a federally registered
 trademark of Gaussian, Inc.
  
 This software contains proprietary and confidential information,
 including trade secrets, belonging to Gaussian, Inc.
  
 This software is provided under written license and may be
 used, copied, transmitted, or stored only in accord with that
 written license.
  
 The following legend is applicable only to US Government
 contracts under FAR:
  
                    RESTRICTED RIGHTS LEGEND
  
 Use, reproduction and disclosure by the US Government is
 subject to restrictions as set forth in subparagraphs (a)
 and (c) of the Commercial Computer Software - Restricted
 Rights clause in FAR 52.227-19.
  
 Gaussian, Inc.
 340 Quinnipiac St., Bldg. 40, Wallingford CT 06492
  
  
 ---------------------------------------------------------------
 Warning -- This program may not be used in any manner that
 competes with the business of Gaussian, Inc. or will provide
 assistance to any competitor of Gaussian, Inc.  The licensee
 of this program is prohibited from giving any competitor of
 Gaussian, Inc. access to this program.  By using this program,
 the user acknowledges that Gaussian, Inc. is engaged in the
 business of creating and licensing software in the field of
 computational chemistry and represents and warrants to the
 licensee that it is not a competitor of Gaussian, Inc. and that
 it will not use this program in any manner prohibited above.
 ---------------------------------------------------------------
  

 Cite this work as:
 Gaussian 16, Revision B.01,
 M. J. Frisch, G. W. Trucks, H. B. Schlegel, G. E. Scuseria, 
 M. A. Robb, J. R. Cheeseman, G. Scalmani, V. Barone, 
 G. A. Petersson, H. Nakatsuji, X. Li, M. Caricato, A. V. Marenich, 
 J. Bloino, B. G. Janesko, R. Gomperts, B. Mennucci, H. P. Hratchian, 
 J. V. Ortiz, A. F. Izmaylov, J. L. Sonnenberg, D. Williams-Young, 
 F. Ding, F. Lipparini, F. Egidi, J. Goings, B. Peng, A. Petrone, 
 T. Henderson, D. Ranasinghe, V. G. Zakrzewski, J. Gao, N. Rega, 
 G. Zheng, W. Liang, M. Hada, M. Ehara, K. Toyota, R. Fukuda, 
 J. Hasegawa, M. Ishida, T. Nakajima, Y. Honda, O. Kitao, H. Nakai, 
 T. Vreven, K. Throssell, J. A. Montgomery, Jr., J. E. Peralta, 
 F. Ogliaro, M. J. Bearpark, J. J. Heyd, E. N. Brothers, K. N. Kudin, 
 V. N. Staroverov, T. A. Keith, R. Kobayashi, J. Normand, 
 K. Raghavachari, A. P. Rendell, J. C. Burant, S. S. Iyengar, 
 J. Tomasi, M. Cossi, J. M. Millam, M. Klene, C. Adamo, R. Cammi, 
 J. W. Ochterski, R. L. Martin, K. Morokuma, O. Farkas, 
 J. B. Foresman, and D. J. Fox, Gaussian, Inc., Wallingford CT, 2016.
 
 ******************************************
 Gaussian 16:  ES64L-G16RevB.01 20-Dec-2017
                12-Jun-2019 
 ******************************************
 %nprocshared=20
 Will use up to   20 processors via shared memory.
 %mem=100GB
 %chk=7-memb-carb-1a.chk
 -------------------------------------------
 # opt freq b3lyp/6-311+g(d,p) int=grid=fine
 -------------------------------------------
 1/18=20,19=15,26=3,38=1/1,3;
 2/9=110,12=2,17=6,18=5,40=1/2;
 3/5=4,6=6,7=111,11=2,25=1,30=1,71=1,74=-5,75=-4/1,2,3;
 4//1;
 5/5=2,38=5/2;
 6/7=2,8=2,9=2,10=2,28=1/1;
 7//1,2,3,16;
 1/18=20,19=15,26=3/3(2);
 2/9=110/2;
 99//99;
 2/9=110/2;
 3/5=4,6=6,7=111,11=2,25=1,30=1,71=1,74=-5,75=-4/1,2,3;
 4/5=5,16=3,69=1/1;
 5/5=2,38=5/2;
 7//1,2,3,16;
 1/18=20,19=15,26=3/3(-5);
 2/9=110/2;
 6/7=2,8=2,9=2,10=2,19=2,28=1/1;
 99/9=1/99;
 --------------
 7-memb-carb-1a
 --------------
 Symbolic Z-matrix:
 Charge =  0 Multiplicity = 1
 C                    -6.92624   0.14505  -0.14951 
 C                    -5.70756   0.77558  -0.01878 
 C                    -4.57992   0.0643    0.11632 
 C                    -4.51333  -1.31321   0.16677 
 C                    -6.95099  -1.27636  -0.11906 
 C                    -5.73815  -2.00988   0.05467 
 C                    -3.52294   0.87982   0.15624 
 C                    -2.23739   0.37957   0.24404 
 C                    -2.08009  -1.02926   0.34979 
 C                    -3.22586  -1.88153   0.30879 
 C                    -3.91113   2.20289   0.02331 
 C                    -2.84262   3.13924  -0.15704 
 C                    -1.47738   2.67247  -0.05276 
 C                    -1.19248   1.30145   0.1825 
 C                    -8.03567   0.96139  -0.32943 
 C                    -7.89917   2.37127  -0.26398 
 C                    -6.6213    3.00491  -0.00279 
 C                    -5.45497   2.14284   0.00472 
 C                    -0.44622   3.52629  -0.2361 
 C                    -3.0556    4.42593  -0.48298 
 C                    -1.95527   5.4095   -0.61035 
 C                    -0.69805   4.94546  -0.56943 
 C                    -9.05591   3.13896  -0.44144 
 C                    -9.01811   4.51888  -0.34016 
 C                    -7.84032   5.1632    0.03183 
 C                    -6.64518   4.41531   0.24449 
 C                    -5.55635   5.10436   0.79324 
 C                    -5.58645   6.48295   1.01272 
 C                    -7.86253   6.55385   0.23724 
 C                    -6.73067   7.21244   0.70944 
 H                    -6.7559    8.28051   0.88314 
 H                    -4.72469   6.98209   1.43714 
 H                    -4.69925   4.56941   1.12809 
 H                    -8.76461   7.12775   0.05919 
 H                    -9.93417   5.07936  -0.48818 
 H                    -10.00523   2.66506  -0.66435 
 H                    -9.00781   0.50622  -0.48464 
 H                    -7.8879   -1.80905  -0.22249 
 H                    -5.75858  -3.09187   0.08016 
 H                    -3.10301  -2.95578   0.36045 
 H                    -1.09198  -1.46519   0.42603 
 H                    -0.16845   0.94811   0.23765 
 H                     0.58381   3.18199  -0.18913 
 H                     0.13889   5.59734  -0.80534 
 H                    -2.06602   6.25048  -1.28742 
 H                    -2.02103   5.95161   0.32843 
 

 GradGradGradGradGradGradGradGradGradGradGradGradGradGradGradGradGradGrad
 Berny optimization.
 Initialization pass.
                           ----------------------------
                           !    Initial Parameters    !
                           ! (Angstroms and Degrees)  !
 --------------------------                            --------------------------
 ! Name  Definition              Value          Derivative Info.                !
 --------------------------------------------------------------------------------
 ! R1    R(1,2)                  1.3783         estimate D2E/DX2                !
 ! R2    R(1,5)                  1.422          estimate D2E/DX2                !
 ! R3    R(1,15)                 1.3891         estimate D2E/DX2                !
 ! R4    R(2,3)                  1.3401         estimate D2E/DX2                !
 ! R5    R(2,18)                 1.3906         estimate D2E/DX2                !
 ! R6    R(3,4)                  1.38           estimate D2E/DX2                !
 ! R7    R(3,7)                  1.3356         estimate D2E/DX2                !
 ! R8    R(4,6)                  1.4135         estimate D2E/DX2                !
 ! R9    R(4,10)                 1.4145         estimate D2E/DX2                !
 ! R10   R(5,6)                  1.428          estimate D2E/DX2                !
 ! R11   R(5,38)                 1.0827         estimate D2E/DX2                !
 ! R12   R(6,39)                 1.0825         estimate D2E/DX2                !
 ! R13   R(7,8)                  1.3822         estimate D2E/DX2                !
 ! R14   R(7,11)                 1.3852         estimate D2E/DX2                !
 ! R15   R(8,9)                  1.4215         estimate D2E/DX2                !
 ! R16   R(8,14)                 1.3948         estimate D2E/DX2                !
 ! R17   R(9,10)                 1.4286         estimate D2E/DX2                !
 ! R18   R(9,41)                 1.0827         estimate D2E/DX2                !
 ! R19   R(10,40)                1.0825         estimate D2E/DX2                !
 ! R20   R(11,12)                1.4321         estimate D2E/DX2                !
 ! R21   R(11,18)                1.5451         estimate D2E/DX2                !
 ! R22   R(12,13)                1.4466         estimate D2E/DX2                !
 ! R23   R(12,20)                1.3443         estimate D2E/DX2                !
 ! R24   R(13,14)                1.4199         estimate D2E/DX2                !
 ! R25   R(13,19)                1.3513         estimate D2E/DX2                !
 ! R26   R(14,42)                1.0847         estimate D2E/DX2                !
 ! R27   R(15,16)                1.418          estimate D2E/DX2                !
 ! R28   R(15,37)                1.0846         estimate D2E/DX2                !
 ! R29   R(16,17)                1.4501         estimate D2E/DX2                !
 ! R30   R(16,23)                1.3996         estimate D2E/DX2                !
 ! R31   R(17,18)                1.4504         estimate D2E/DX2                !
 ! R32   R(17,26)                1.4321         estimate D2E/DX2                !
 ! R33   R(19,22)                1.4794         estimate D2E/DX2                !
 ! R34   R(19,43)                1.0871         estimate D2E/DX2                !
 ! R35   R(20,21)                1.4813         estimate D2E/DX2                !
 ! R36   R(21,22)                1.3407         estimate D2E/DX2                !
 ! R37   R(21,45)                1.0853         estimate D2E/DX2                !
 ! R38   R(21,46)                1.0861         estimate D2E/DX2                !
 ! R39   R(22,44)                1.0868         estimate D2E/DX2                !
 ! R40   R(23,24)                1.3841         estimate D2E/DX2                !
 ! R41   R(23,36)                1.0842         estimate D2E/DX2                !
 ! R42   R(24,25)                1.3931         estimate D2E/DX2                !
 ! R43   R(24,35)                1.0841         estimate D2E/DX2                !
 ! R44   R(25,26)                1.4258         estimate D2E/DX2                !
 ! R45   R(25,29)                1.4059         estimate D2E/DX2                !
 ! R46   R(26,27)                1.4005         estimate D2E/DX2                !
 ! R47   R(27,28)                1.3963         estimate D2E/DX2                !
 ! R48   R(27,33)                1.0644         estimate D2E/DX2                !
 ! R49   R(28,30)                1.3905         estimate D2E/DX2                !
 ! R50   R(28,32)                1.0825         estimate D2E/DX2                !
 ! R51   R(29,30)                1.3921         estimate D2E/DX2                !
 ! R52   R(29,34)                1.0839         estimate D2E/DX2                !
 ! R53   R(30,31)                1.0824         estimate D2E/DX2                !
 ! A1    A(2,1,5)              118.0757         estimate D2E/DX2                !
 ! A2    A(2,1,15)             116.718          estimate D2E/DX2                !
 ! A3    A(5,1,15)             125.1922         estimate D2E/DX2                !
 ! A4    A(1,2,3)              120.7147         estimate D2E/DX2                !
 ! A5    A(1,2,18)             127.7329         estimate D2E/DX2                !
 ! A6    A(3,2,18)             111.5507         estimate D2E/DX2                !
 ! A7    A(2,3,4)              125.0367         estimate D2E/DX2                !
 ! A8    A(2,3,7)              110.173          estimate D2E/DX2                !
 ! A9    A(4,3,7)              124.7639         estimate D2E/DX2                !
 ! A10   A(3,4,6)              116.5668         estimate D2E/DX2                !
 ! A11   A(3,4,10)             116.6566         estimate D2E/DX2                !
 ! A12   A(6,4,10)             126.7717         estimate D2E/DX2                !
 ! A13   A(1,5,6)              120.0855         estimate D2E/DX2                !
 ! A14   A(1,5,38)             120.3198         estimate D2E/DX2                !
 ! A15   A(6,5,38)             119.594          estimate D2E/DX2                !
 ! A16   A(4,6,5)              119.4994         estimate D2E/DX2                !
 ! A17   A(4,6,39)             120.4719         estimate D2E/DX2                !
 ! A18   A(5,6,39)             120.0177         estimate D2E/DX2                !
 ! A19   A(3,7,8)              121.127          estimate D2E/DX2                !
 ! A20   A(3,7,11)             111.0114         estimate D2E/DX2                !
 ! A21   A(8,7,11)             127.763          estimate D2E/DX2                !
 ! A22   A(7,8,9)              117.7957         estimate D2E/DX2                !
 ! A23   A(7,8,14)             117.0478         estimate D2E/DX2                !
 ! A24   A(9,8,14)             125.1291         estimate D2E/DX2                !
 ! A25   A(8,9,10)             120.0248         estimate D2E/DX2                !
 ! A26   A(8,9,41)             120.3493         estimate D2E/DX2                !
 ! A27   A(10,9,41)            119.5899         estimate D2E/DX2                !
 ! A28   A(4,10,9)             119.5512         estimate D2E/DX2                !
 ! A29   A(4,10,40)            120.4524         estimate D2E/DX2                !
 ! A30   A(9,10,40)            119.9772         estimate D2E/DX2                !
 ! A31   A(7,11,12)            115.3076         estimate D2E/DX2                !
 ! A32   A(7,11,18)            104.1249         estimate D2E/DX2                !
 ! A33   A(12,11,18)           140.298          estimate D2E/DX2                !
 ! A34   A(11,12,13)           118.9533         estimate D2E/DX2                !
 ! A35   A(11,12,20)           122.5558         estimate D2E/DX2                !
 ! A36   A(13,12,20)           118.4139         estimate D2E/DX2                !
 ! A37   A(12,13,14)           120.8543         estimate D2E/DX2                !
 ! A38   A(12,13,19)           120.4329         estimate D2E/DX2                !
 ! A39   A(14,13,19)           118.6507         estimate D2E/DX2                !
 ! A40   A(8,14,13)            119.6809         estimate D2E/DX2                !
 ! A41   A(8,14,42)            119.3214         estimate D2E/DX2                !
 ! A42   A(13,14,42)           120.8227         estimate D2E/DX2                !
 ! A43   A(1,15,16)            120.0962         estimate D2E/DX2                !
 ! A44   A(1,15,37)            119.194          estimate D2E/DX2                !
 ! A45   A(16,15,37)           120.6746         estimate D2E/DX2                !
 ! A46   A(15,16,17)           121.8451         estimate D2E/DX2                !
 ! A47   A(15,16,23)           117.3845         estimate D2E/DX2                !
 ! A48   A(17,16,23)           120.7632         estimate D2E/DX2                !
 ! A49   A(16,17,18)           116.7357         estimate D2E/DX2                !
 ! A50   A(16,17,26)           116.5358         estimate D2E/DX2                !
 ! A51   A(18,17,26)           126.7187         estimate D2E/DX2                !
 ! A52   A(2,18,11)            102.7036         estimate D2E/DX2                !
 ! A53   A(2,18,17)            115.9924         estimate D2E/DX2                !
 ! A54   A(11,18,17)           141.3029         estimate D2E/DX2                !
 ! A55   A(13,19,22)           120.4523         estimate D2E/DX2                !
 ! A56   A(13,19,43)           121.1366         estimate D2E/DX2                !
 ! A57   A(22,19,43)           118.3505         estimate D2E/DX2                !
 ! A58   A(12,20,21)           122.5939         estimate D2E/DX2                !
 ! A59   A(20,21,22)           117.6513         estimate D2E/DX2                !
 ! A60   A(20,21,45)           119.494          estimate D2E/DX2                !
 ! A61   A(20,21,46)           102.247          estimate D2E/DX2                !
 ! A62   A(22,21,45)           112.514          estimate D2E/DX2                !
 ! A63   A(22,21,46)           101.7216         estimate D2E/DX2                !
 ! A64   A(45,21,46)            98.4119         estimate D2E/DX2                !
 ! A65   A(19,22,21)           119.9019         estimate D2E/DX2                !
 ! A66   A(19,22,44)           119.5534         estimate D2E/DX2                !
 ! A67   A(21,22,44)           120.5246         estimate D2E/DX2                !
 ! A68   A(16,23,24)           120.9963         estimate D2E/DX2                !
 ! A69   A(16,23,36)           120.6625         estimate D2E/DX2                !
 ! A70   A(24,23,36)           118.3411         estimate D2E/DX2                !
 ! A71   A(23,24,25)           120.2467         estimate D2E/DX2                !
 ! A72   A(23,24,35)           118.8401         estimate D2E/DX2                !
 ! A73   A(25,24,35)           120.7808         estimate D2E/DX2                !
 ! A74   A(24,25,26)           120.3908         estimate D2E/DX2                !
 ! A75   A(24,25,29)           118.891          estimate D2E/DX2                !
 ! A76   A(26,25,29)           120.6834         estimate D2E/DX2                !
 ! A77   A(17,26,25)           120.3187         estimate D2E/DX2                !
 ! A78   A(17,26,27)           122.631          estimate D2E/DX2                !
 ! A79   A(25,26,27)           116.8746         estimate D2E/DX2                !
 ! A80   A(26,27,28)           122.0455         estimate D2E/DX2                !
 ! A81   A(26,27,33)           120.1345         estimate D2E/DX2                !
 ! A82   A(28,27,33)           117.6541         estimate D2E/DX2                !
 ! A83   A(27,28,30)           120.0959         estimate D2E/DX2                !
 ! A84   A(27,28,32)           119.9806         estimate D2E/DX2                !
 ! A85   A(30,28,32)           119.9133         estimate D2E/DX2                !
 ! A86   A(25,29,30)           120.3104         estimate D2E/DX2                !
 ! A87   A(25,29,34)           120.856          estimate D2E/DX2                !
 ! A88   A(30,29,34)           118.811          estimate D2E/DX2                !
 ! A89   A(28,30,29)           119.6613         estimate D2E/DX2                !
 ! A90   A(28,30,31)           120.1241         estimate D2E/DX2                !
 ! A91   A(29,30,31)           120.1541         estimate D2E/DX2                !
 ! D1    D(5,1,2,3)              0.8043         estimate D2E/DX2                !
 ! D2    D(5,1,2,18)          -178.6829         estimate D2E/DX2                !
 ! D3    D(15,1,2,3)          -177.9014         estimate D2E/DX2                !
 ! D4    D(15,1,2,18)            2.6114         estimate D2E/DX2                !
 ! D5    D(2,1,5,6)              0.5358         estimate D2E/DX2                !
 ! D6    D(2,1,5,38)          -179.7534         estimate D2E/DX2                !
 ! D7    D(15,1,5,6)           179.1211         estimate D2E/DX2                !
 ! D8    D(15,1,5,38)           -1.1681         estimate D2E/DX2                !
 ! D9    D(2,1,15,16)           -5.0722         estimate D2E/DX2                !
 ! D10   D(2,1,15,37)          177.0711         estimate D2E/DX2                !
 ! D11   D(5,1,15,16)          176.3252         estimate D2E/DX2                !
 ! D12   D(5,1,15,37)           -1.5315         estimate D2E/DX2                !
 ! D13   D(1,2,3,4)             -1.4053         estimate D2E/DX2                !
 ! D14   D(1,2,3,7)            176.7955         estimate D2E/DX2                !
 ! D15   D(18,2,3,4)           178.1586         estimate D2E/DX2                !
 ! D16   D(18,2,3,7)            -3.6405         estimate D2E/DX2                !
 ! D17   D(1,2,18,11)         -174.3539         estimate D2E/DX2                !
 ! D18   D(1,2,18,17)            5.3323         estimate D2E/DX2                !
 ! D19   D(3,2,18,11)            6.1201         estimate D2E/DX2                !
 ! D20   D(3,2,18,17)         -174.1938         estimate D2E/DX2                !
 ! D21   D(2,3,4,6)              0.5446         estimate D2E/DX2                !
 ! D22   D(2,3,4,10)           179.7982         estimate D2E/DX2                !
 ! D23   D(7,3,4,6)           -177.3996         estimate D2E/DX2                !
 ! D24   D(7,3,4,10)             1.8541         estimate D2E/DX2                !
 ! D25   D(2,3,7,8)           -177.6847         estimate D2E/DX2                !
 ! D26   D(2,3,7,11)            -1.0291         estimate D2E/DX2                !
 ! D27   D(4,3,7,8)              0.5221         estimate D2E/DX2                !
 ! D28   D(4,3,7,11)           177.1777         estimate D2E/DX2                !
 ! D29   D(3,4,6,5)              0.83           estimate D2E/DX2                !
 ! D30   D(3,4,6,39)           179.6227         estimate D2E/DX2                !
 ! D31   D(10,4,6,5)          -178.3372         estimate D2E/DX2                !
 ! D32   D(10,4,6,39)            0.4554         estimate D2E/DX2                !
 ! D33   D(3,4,10,9)            -1.9254         estimate D2E/DX2                !
 ! D34   D(3,4,10,40)          179.6644         estimate D2E/DX2                !
 ! D35   D(6,4,10,9)           177.2412         estimate D2E/DX2                !
 ! D36   D(6,4,10,40)           -1.169          estimate D2E/DX2                !
 ! D37   D(1,5,6,4)             -1.3543         estimate D2E/DX2                !
 ! D38   D(1,5,6,39)           179.8475         estimate D2E/DX2                !
 ! D39   D(38,5,6,4)           178.9328         estimate D2E/DX2                !
 ! D40   D(38,5,6,39)            0.1345         estimate D2E/DX2                !
 ! D41   D(3,7,8,9)             -2.7093         estimate D2E/DX2                !
 ! D42   D(3,7,8,14)           175.4863         estimate D2E/DX2                !
 ! D43   D(11,7,8,9)          -178.7593         estimate D2E/DX2                !
 ! D44   D(11,7,8,14)           -0.5637         estimate D2E/DX2                !
 ! D45   D(3,7,11,12)         -170.6178         estimate D2E/DX2                !
 ! D46   D(3,7,11,18)            4.6437         estimate D2E/DX2                !
 ! D47   D(8,7,11,12)            5.7605         estimate D2E/DX2                !
 ! D48   D(8,7,11,18)         -178.978          estimate D2E/DX2                !
 ! D49   D(7,8,9,10)             2.5062         estimate D2E/DX2                !
 ! D50   D(7,8,9,41)          -179.6865         estimate D2E/DX2                !
 ! D51   D(14,8,9,10)         -175.5287         estimate D2E/DX2                !
 ! D52   D(14,8,9,41)            2.2786         estimate D2E/DX2                !
 ! D53   D(7,8,14,13)           -4.1488         estimate D2E/DX2                !
 ! D54   D(7,8,14,42)         -179.381          estimate D2E/DX2                !
 ! D55   D(9,8,14,13)          173.8994         estimate D2E/DX2                !
 ! D56   D(9,8,14,42)           -1.3328         estimate D2E/DX2                !
 ! D57   D(8,9,10,4)            -0.1936         estimate D2E/DX2                !
 ! D58   D(8,9,10,40)          178.2243         estimate D2E/DX2                !
 ! D59   D(41,9,10,4)         -178.0177         estimate D2E/DX2                !
 ! D60   D(41,9,10,40)           0.4003         estimate D2E/DX2                !
 ! D61   D(7,11,12,13)          -6.1242         estimate D2E/DX2                !
 ! D62   D(7,11,12,20)         170.6332         estimate D2E/DX2                !
 ! D63   D(18,11,12,13)       -178.9198         estimate D2E/DX2                !
 ! D64   D(18,11,12,20)         -2.1623         estimate D2E/DX2                !
 ! D65   D(7,11,18,2)           -6.3423         estimate D2E/DX2                !
 ! D66   D(7,11,18,17)         174.1089         estimate D2E/DX2                !
 ! D67   D(12,11,18,2)         166.944          estimate D2E/DX2                !
 ! D68   D(12,11,18,17)        -12.6048         estimate D2E/DX2                !
 ! D69   D(11,12,13,14)          1.9735         estimate D2E/DX2                !
 ! D70   D(11,12,13,19)        179.0687         estimate D2E/DX2                !
 ! D71   D(20,12,13,14)       -174.9193         estimate D2E/DX2                !
 ! D72   D(20,12,13,19)          2.1759         estimate D2E/DX2                !
 ! D73   D(11,12,20,21)        177.1885         estimate D2E/DX2                !
 ! D74   D(13,12,20,21)         -6.0373         estimate D2E/DX2                !
 ! D75   D(12,13,14,8)           3.4088         estimate D2E/DX2                !
 ! D76   D(12,13,14,42)        178.5679         estimate D2E/DX2                !
 ! D77   D(19,13,14,8)        -173.7373         estimate D2E/DX2                !
 ! D78   D(19,13,14,42)          1.4218         estimate D2E/DX2                !
 ! D79   D(12,13,19,22)         -1.0741         estimate D2E/DX2                !
 ! D80   D(12,13,19,43)       -178.1946         estimate D2E/DX2                !
 ! D81   D(14,13,19,22)        176.0844         estimate D2E/DX2                !
 ! D82   D(14,13,19,43)         -1.0361         estimate D2E/DX2                !
 ! D83   D(1,15,16,17)          -0.4032         estimate D2E/DX2                !
 ! D84   D(1,15,16,23)        -179.4322         estimate D2E/DX2                !
 ! D85   D(37,15,16,17)        177.4214         estimate D2E/DX2                !
 ! D86   D(37,15,16,23)         -1.6076         estimate D2E/DX2                !
 ! D87   D(15,16,17,18)          8.3072         estimate D2E/DX2                !
 ! D88   D(15,16,17,26)       -170.6327         estimate D2E/DX2                !
 ! D89   D(23,16,17,18)       -172.6962         estimate D2E/DX2                !
 ! D90   D(23,16,17,26)          8.3639         estimate D2E/DX2                !
 ! D91   D(15,16,23,24)        177.4401         estimate D2E/DX2                !
 ! D92   D(15,16,23,36)         -2.6952         estimate D2E/DX2                !
 ! D93   D(17,16,23,24)         -1.5999         estimate D2E/DX2                !
 ! D94   D(17,16,23,36)        178.2647         estimate D2E/DX2                !
 ! D95   D(16,17,18,2)         -10.2612         estimate D2E/DX2                !
 ! D96   D(16,17,18,11)        169.2491         estimate D2E/DX2                !
 ! D97   D(26,17,18,2)         168.5555         estimate D2E/DX2                !
 ! D98   D(26,17,18,11)        -11.9342         estimate D2E/DX2                !
 ! D99   D(16,17,26,25)         -9.4256         estimate D2E/DX2                !
 ! D100  D(16,17,26,27)        165.6046         estimate D2E/DX2                !
 ! D101  D(18,17,26,25)        171.7556         estimate D2E/DX2                !
 ! D102  D(18,17,26,27)        -13.2142         estimate D2E/DX2                !
 ! D103  D(13,19,22,21)          4.0923         estimate D2E/DX2                !
 ! D104  D(13,19,22,44)       -174.2851         estimate D2E/DX2                !
 ! D105  D(43,19,22,21)       -178.7082         estimate D2E/DX2                !
 ! D106  D(43,19,22,44)          2.9143         estimate D2E/DX2                !
 ! D107  D(12,20,21,22)          8.9363         estimate D2E/DX2                !
 ! D108  D(12,20,21,45)        151.4023         estimate D2E/DX2                !
 ! D109  D(12,20,21,46)       -101.4544         estimate D2E/DX2                !
 ! D110  D(20,21,22,19)         -7.5381         estimate D2E/DX2                !
 ! D111  D(20,21,22,44)        170.8234         estimate D2E/DX2                !
 ! D112  D(45,21,22,19)       -152.5065         estimate D2E/DX2                !
 ! D113  D(45,21,22,44)         25.855          estimate D2E/DX2                !
 ! D114  D(46,21,22,19)        103.1502         estimate D2E/DX2                !
 ! D115  D(46,21,22,44)        -78.4883         estimate D2E/DX2                !
 ! D116  D(16,23,24,25)         -4.4026         estimate D2E/DX2                !
 ! D117  D(16,23,24,35)        179.7486         estimate D2E/DX2                !
 ! D118  D(36,23,24,25)        175.7296         estimate D2E/DX2                !
 ! D119  D(36,23,24,35)         -0.1191         estimate D2E/DX2                !
 ! D120  D(23,24,25,26)          3.2557         estimate D2E/DX2                !
 ! D121  D(23,24,25,29)       -174.6141         estimate D2E/DX2                !
 ! D122  D(35,24,25,26)        179.0229         estimate D2E/DX2                !
 ! D123  D(35,24,25,29)          1.1532         estimate D2E/DX2                !
 ! D124  D(24,25,26,17)          3.9085         estimate D2E/DX2                !
 ! D125  D(24,25,26,27)       -171.4            estimate D2E/DX2                !
 ! D126  D(29,25,26,17)       -178.2603         estimate D2E/DX2                !
 ! D127  D(29,25,26,27)          6.4313         estimate D2E/DX2                !
 ! D128  D(24,25,29,30)        174.9981         estimate D2E/DX2                !
 ! D129  D(24,25,29,34)         -3.2514         estimate D2E/DX2                !
 ! D130  D(26,25,29,30)         -2.8652         estimate D2E/DX2                !
 ! D131  D(26,25,29,34)        178.8853         estimate D2E/DX2                !
 ! D132  D(17,26,27,28)        179.1283         estimate D2E/DX2                !
 ! D133  D(17,26,27,33)         -5.6639         estimate D2E/DX2                !
 ! D134  D(25,26,27,28)         -5.6809         estimate D2E/DX2                !
 ! D135  D(25,26,27,33)        169.5269         estimate D2E/DX2                !
 ! D136  D(26,27,28,30)          1.2831         estimate D2E/DX2                !
 ! D137  D(26,27,28,32)       -179.8804         estimate D2E/DX2                !
 ! D138  D(33,27,28,30)       -174.0381         estimate D2E/DX2                !
 ! D139  D(33,27,28,32)          4.7984         estimate D2E/DX2                !
 ! D140  D(27,28,30,29)          2.5774         estimate D2E/DX2                !
 ! D141  D(27,28,30,31)        179.7525         estimate D2E/DX2                !
 ! D142  D(32,28,30,29)       -176.2599         estimate D2E/DX2                !
 ! D143  D(32,28,30,31)          0.9152         estimate D2E/DX2                !
 ! D144  D(25,29,30,28)         -1.7539         estimate D2E/DX2                !
 ! D145  D(25,29,30,31)       -178.9282         estimate D2E/DX2                !
 ! D146  D(34,29,30,28)        176.5311         estimate D2E/DX2                !
 ! D147  D(34,29,30,31)         -0.6432         estimate D2E/DX2                !
 --------------------------------------------------------------------------------
 Trust Radius=3.00D-01 FncErr=1.00D-07 GrdErr=1.00D-06 EigMax=2.50D+02 EigMin=1.00D-04
 Number of steps in this run=    276 maximum allowed number of steps=    276.
 GradGradGradGradGradGradGradGradGradGradGradGradGradGradGradGradGradGrad

                          Input orientation:                          
 ---------------------------------------------------------------------
 Center     Atomic      Atomic             Coordinates (Angstroms)
 Number     Number       Type             X           Y           Z
 ---------------------------------------------------------------------
      1          6           0       -6.926240    0.145050   -0.149510
      2          6           0       -5.707560    0.775580   -0.018780
      3          6           0       -4.579920    0.064300    0.116320
      4          6           0       -4.513330   -1.313210    0.166770
      5          6           0       -6.950990   -1.276360   -0.119060
      6          6           0       -5.738150   -2.009880    0.054670
      7          6           0       -3.522940    0.879820    0.156240
      8          6           0       -2.237390    0.379570    0.244040
      9          6           0       -2.080090   -1.029260    0.349790
     10          6           0       -3.225860   -1.881530    0.308790
     11          6           0       -3.911130    2.202890    0.023310
     12          6           0       -2.842620    3.139240   -0.157040
     13          6           0       -1.477380    2.672470   -0.052760
     14          6           0       -1.192480    1.301450    0.182500
     15          6           0       -8.035670    0.961390   -0.329430
     16          6           0       -7.899170    2.371270   -0.263980
     17          6           0       -6.621300    3.004910   -0.002790
     18          6           0       -5.454970    2.142840    0.004720
     19          6           0       -0.446220    3.526290   -0.236100
     20          6           0       -3.055600    4.425930   -0.482980
     21          6           0       -1.955270    5.409500   -0.610350
     22          6           0       -0.698050    4.945460   -0.569430
     23          6           0       -9.055910    3.138960   -0.441440
     24          6           0       -9.018110    4.518880   -0.340160
     25          6           0       -7.840320    5.163200    0.031830
     26          6           0       -6.645180    4.415310    0.244490
     27          6           0       -5.556350    5.104360    0.793240
     28          6           0       -5.586450    6.482950    1.012720
     29          6           0       -7.862530    6.553850    0.237240
     30          6           0       -6.730670    7.212440    0.709440
     31          1           0       -6.755900    8.280510    0.883140
     32          1           0       -4.724690    6.982090    1.437140
     33          1           0       -4.699250    4.569410    1.128090
     34          1           0       -8.764610    7.127750    0.059190
     35          1           0       -9.934170    5.079360   -0.488180
     36          1           0      -10.005230    2.665060   -0.664350
     37          1           0       -9.007810    0.506220   -0.484640
     38          1           0       -7.887900   -1.809050   -0.222490
     39          1           0       -5.758580   -3.091870    0.080160
     40          1           0       -3.103010   -2.955780    0.360450
     41          1           0       -1.091980   -1.465190    0.426030
     42          1           0       -0.168450    0.948110    0.237650
     43          1           0        0.583810    3.181990   -0.189130
     44          1           0        0.138890    5.597340   -0.805340
     45          1           0       -2.066020    6.250480   -1.287420
     46          1           0       -2.021030    5.951610    0.328430
 ---------------------------------------------------------------------
                    Distance matrix (angstroms):
                    1          2          3          4          5
     1  C    0.000000
     2  C    1.378347   0.000000
     3  C    2.362711   1.340053   0.000000
     4  C    2.837021   2.413226   1.380041   0.000000
     5  C    1.421952   2.401381   2.733998   2.454637   0.000000
     6  C    2.469204   2.786596   2.376451   1.413541   1.428011
     7  C    3.495114   2.194097   1.335617   2.406317   4.059117
     8  C    4.711178   3.502567   2.367098   2.837495   5.009189
     9  C    5.011335   4.068394   2.738527   2.456579   4.899647
    10  C    4.243805   3.650530   2.378398   1.414474   3.798142
    11  C    3.654512   2.294809   2.242654   3.570180   4.622359
    12  C    5.063712   3.716704   3.542343   4.766596   6.031390
    13  C    6.007270   4.636137   4.056710   5.015060   6.749671
    14  C    5.858626   4.550055   3.606892   4.226670   6.316366
    15  C    1.389107   2.356083   3.598009   4.222191   2.495658
    16  C    2.432232   2.722040   4.060069   5.022435   3.771638
    17  C    2.879812   2.409375   3.581704   4.808165   4.295519
    18  C    2.485878   1.390595   2.257985   3.585698   3.734210
    19  C    7.309647   5.940987   5.403429   6.334386   8.086481
    20  C    5.780916   4.535794   4.659027   5.956919   6.915390
    21  C    7.255160   5.991899   5.999000   7.234806   8.360581
    22  C    7.874682   6.541124   6.274145   7.366770   8.832505
    23  C    3.685677   4.120152   5.458857   6.389583   4.902007
    24  C    4.852078   5.007526   6.304696   7.386697   6.156840
    25  C    5.103945   4.878774   6.052779   7.282236   6.502431
    26  C    4.297598   3.767768   4.817989   6.112836   5.711462
    27  C    5.230691   4.406878   5.178208   6.531888   6.594763
    28  C    6.581397   5.801097   6.558636   7.915007   7.959258
    29  C    6.488369   6.172345   7.273542   8.550599   7.891137
    30  C    7.122081   6.558218   7.488219   8.825973   8.531980
    31  H    8.202505   7.631281   8.533991   9.878349   9.611255
    32  H    7.355909   6.450310   7.044242   8.394672   8.693685
    33  H    5.115340   4.089639   4.618867   5.963549   6.387389
    34  H    7.223660   7.049943   8.210190   9.451707   8.599422
    35  H    5.788761   6.050379   7.360995   8.407105   7.030703
    36  H    4.011943   4.738867   6.066909   6.832156   5.016026
    37  H    2.139086   3.343835   4.490285   4.892342   2.746224
    38  H    2.179134   3.387579   3.816669   3.432944   1.082708
    39  H    3.448743   3.869052   3.369266   2.172966   2.181194
    40  H    4.948969   4.566240   3.370719   2.173603   4.225794
    41  H    6.079696   5.149999   3.821124   3.434523   5.887340
    42  H    6.816342   5.547726   4.500768   4.898630   7.146912
    43  H    8.100952   6.738039   6.039652   6.805463   8.755284
    44  H    8.948388   7.618991   7.330154   8.387124   9.898744
    45  H    7.886245   6.696625   6.823416   8.081671   9.048830
    46  H    7.616144   6.364145   6.422875   7.682142   8.760611
                    6          7          8          9         10
     6  C    0.000000
     7  C    3.642504   0.000000
     8  C    4.242718   1.382244   0.000000
     9  C    3.798699   2.400805   1.421523   0.000000
    10  C    2.528369   2.781471   2.468570   1.428578   0.000000
    11  C    4.591995   1.385235   2.484879   3.729087   4.151335
    12  C    5.911206   2.380327   2.853585   4.267871   5.056877
    13  C    6.331675   2.727928   2.433741   3.772017   4.891505
    14  C    5.625332   2.368439   1.394807   2.499609   3.779146
    15  C    3.775523   4.539522   5.855547   6.316087   5.623503
    16  C    4.895510   4.642456   6.023347   6.767718   6.344620
    17  C    5.092286   3.760470   5.115858   6.084524   5.958472
    18  C    4.162664   2.313205   3.676849   4.644471   4.610525
    19  C    7.664088   4.077247   3.652488   4.875021   6.104738
    20  C    6.993196   3.633443   4.191784   5.603947   6.359241
    21  C    8.354617   4.854199   5.109772   6.511150   7.457770
    22  C    8.612135   5.003602   4.886579   6.200990   7.332727
    23  C    6.145259   6.006221   7.387580   8.164690   7.730307
    24  C    7.317017   6.609543   7.965761   8.910332   8.656590
    25  C    7.474805   6.082976   7.370276   8.463327   8.426041
    26  C    6.491672   4.717612   5.976271   7.105947   7.165618
    27  C    7.154785   4.731518   5.800065   7.064158   7.380280
    28  C    8.548043   6.032139   7.004164   8.316690   8.719658
    29  C    8.825180   7.143754   8.352483   9.536920   9.625979
    30  C    9.298656   7.120227   8.191109   9.470104   9.754204
    31  H   10.373731   8.108676   9.124157  10.431658  10.773027
    32  H    9.153898   6.350008   7.155656   8.506349   9.059990
    33  H    6.746747   3.992652   4.939338   6.229836   6.667590
    34  H    9.625786   8.156050   9.390245  10.550074  10.578619
    35  H    8.255822   7.691247   9.047906   9.985189   9.700030
    36  H    6.370245   6.773517   8.147882   8.802518   8.220605
    37  H    4.160804   5.534808   6.810698   7.144738   6.305698
    38  H    2.176827   5.140655   6.077497   5.887804   4.692774
    39  H    1.082483   4.558311   4.947376   4.225914   2.816357
    40  H    2.816415   3.863919   3.447812   2.181274   1.082485
    41  H    4.692706   3.388425   2.179042   1.082686   2.177275
    42  H    6.309100   3.356173   2.145645   2.752623   4.166495
    43  H    8.184261   4.720663   4.000045   5.012128   6.356158
    44  H    9.651374   6.048854   5.828639   7.083080   8.276251
    45  H    9.138889   5.748979   6.069788   7.461586   8.367957
    46  H    8.790748   5.292300   5.576878   6.981153   7.925281
                   11         12         13         14         15
    11  C    0.000000
    12  C    1.432128   0.000000
    13  C    2.479805   1.446592   0.000000
    14  C    2.868622   2.493135   1.419933   0.000000
    15  C    4.321756   5.633872   6.783473   6.870732   0.000000
    16  C    4.001918   5.115654   6.432319   6.806141   1.417984
    17  C    2.826471   3.784212   5.154893   5.692820   2.506613
    18  C    1.545119   2.800598   4.013108   4.348375   2.857883
    19  C    3.718102   2.428743   1.351264   2.383704   8.011690
    20  C    2.435194   1.344310   2.398018   3.698169   6.068584
    21  C    3.809102   2.479306   2.833835   4.252827   7.538956
    22  C    4.265784   2.834021   2.457801   3.753488   8.352909
    23  C    5.249855   6.219796   7.602815   8.099338   2.407332
    24  C    5.619356   6.330373   7.768812   8.477353   3.690669
    25  C    4.919557   5.395284   6.833586   7.689577   4.221833
    26  C    3.524025   4.031010   5.461868   6.279483   3.767282
    27  C    3.423167   3.482680   4.823671   5.820523   4.956976
    28  C    4.701547   4.480774   5.704337   6.844281   6.187703
    29  C    5.881342   6.083956   7.477924   8.490010   5.623762
    30  C    5.789315   5.697252   6.984936   8.117205   6.469768
    31  H    6.765315   6.544340   7.758144   8.952643   7.528456
    32  H    5.049906   4.566300   5.598004   6.805902   7.094518
    33  H    2.728019   2.672830   3.920872   4.885810   5.125804
    34  H    6.914608   7.143174   8.542001   9.555005   6.221445
    35  H    6.694230   7.359606   8.803409   9.546704   4.537310
    36  H    6.150165   7.196193   8.549756   8.957742   2.625610
    37  H    5.395632   6.711906   7.847709   7.883962   1.084586
    38  H    5.654271   7.067157   7.823528   7.393773   2.776438
    39  H    5.608100   6.883736   7.181501   6.337271   4.667100
    40  H    5.232456   6.122489   5.872871   4.669668   6.336505
    41  H    4.643770   4.960392   4.183061   2.779155   7.394176
    42  H    3.953235   3.479657   2.184274   1.084679   7.887643
    43  H    4.605242   3.426847   2.127607   2.613378   8.902033
    44  H    5.348982   3.918157   3.425430   4.604676   9.409673
    45  H    4.637395   3.400100   3.830540   5.236090   8.032991
    46  H    4.209332   2.969868   3.345687   4.725651   7.842893
                   16         17         18         19         20
    16  C    0.000000
    17  C    1.450059   0.000000
    18  C    2.469513   1.450361   0.000000
    19  C    7.541970   6.201442   5.201875   0.000000
    20  C    5.265905   3.868345   3.347735   2.771131   0.000000
    21  C    6.684367   5.284224   4.826725   2.442084   1.481337
    22  C    7.653488   6.258730   5.550911   1.479382   2.415663
    23  C    1.399603   2.477440   3.762723   8.620844   6.136916
    24  C    2.422820   2.854929   4.296565   8.629795   5.964944
    25  C    2.808174   2.478997   3.848793   7.577861   4.868485
    26  C    2.451353   1.432112   2.576472   6.280798   3.662569
    27  C    3.751840   2.485050   3.066373   5.446400   2.888383
    28  C    4.887182   3.768148   4.457567   6.059980   3.587987
    29  C    4.212664   3.767392   5.030648   8.024452   5.305972
    30  C    5.074433   4.268787   5.274930   7.346840   4.763680
    31  H    6.127158   5.351163   6.335222   7.979183   5.515097
    32  H    5.850709   4.635568   5.099360   5.748703   3.606477
    33  H    4.124217   2.724119   2.778725   4.586652   2.306018
    34  H    4.845361   4.647088   5.983812   9.069362   6.339288
    35  H    3.394885   3.938788   5.378600   9.617524   6.909539
    36  H    2.163815   3.464699   4.628740   9.607278   7.171535
    37  H    2.180868   3.488705   3.942166   9.082038   7.126916
    38  H    4.180541   4.982645   4.646311   9.156672   7.892652
    39  H    5.877623   6.158075   5.244050   8.492422   8.008779
    40  H    7.195174   6.931099   5.626205   7.030764   7.429890
    41  H    7.844257   7.123136   5.677241   5.076445   6.275938
    42  H    7.876614   6.776984   5.424844   2.636021   4.577136
    43  H    8.521961   7.209694   6.130601   1.087065   3.857336
    44  H    8.678191   7.284569   6.624276   2.226126   3.417731
    45  H    7.079643   5.738865   5.479718   3.339197   2.226067
    46  H    6.908134   5.473137   5.138430   2.946336   2.014056
                   21         22         23         24         25
    21  C    0.000000
    22  C    1.340750   0.000000
    23  C    7.456740   8.551821   0.000000
    24  C    7.123897   8.334143   1.384148   0.000000
    25  C    5.925105   7.170840   2.408151   1.393095   0.000000
    26  C    4.869745   6.025934   2.812683   2.446086   1.425806
    27  C    3.876977   5.048287   4.199304   3.689331   2.408262
    28  C    4.119723   5.363164   5.033289   4.179013   2.789949
    29  C    6.076485   7.386976   3.680521   2.410365   1.405914
    30  C    5.272275   6.570176   4.829545   3.686368   2.426904
    31  H    5.789582   7.066121   5.786199   4.556744   3.408565
    32  H    3.786151   4.938422   6.087543   5.259245   3.871745
    33  H    3.355198   4.362636   4.846658   4.561892   3.379452
    34  H    7.054628   8.380152   4.030624   2.651404   2.171294
    35  H    7.986662   9.237448   2.130417   1.084073   2.159085
    36  H    8.505100   9.582945   1.084195   2.125124   3.378196
    37  H    8.590476   9.421579   2.633534   4.015273   4.828792
    38  H    9.351684   9.871054   5.088712   6.429146   6.977049
    39  H    9.338911   9.519958   7.068783   8.290037   8.513645
    40  H    8.499275   8.311324   8.557213   9.557709   9.405739
    41  H    7.005763   6.499427   9.239853   9.960907   9.467367
    42  H    4.880147   4.112257   9.178667   9.560374   8.755966
    43  H    3.403844   2.213057   9.643117   9.695718   8.656788
    44  H    2.111590   1.086770   9.524726   9.232016   8.034745
    45  H    1.085328   2.022357   7.697779   7.226845   6.022054
    46  H    1.086055   1.889118   7.615329   7.173483   5.879940
                   26         27         28         29         30
    26  C    0.000000
    27  C    1.400524   0.000000
    28  C    2.446676   1.396276   0.000000
    29  C    2.460761   2.780040   2.405605   0.000000
    30  C    2.836798   2.414550   1.390458   1.392056   0.000000
    31  H    3.919171   3.396311   2.148401   2.150156   1.082396
    32  H    3.420388   2.152240   1.082545   3.386619   2.146291
    33  H    2.142694   1.064385   2.112361   3.839005   3.359694
    34  H    3.447267   3.863401   3.380190   1.083887   2.137033
    35  H    3.434417   4.561575   4.808891   2.644248   4.030724
    36  H    3.896062   5.278947   6.075727   4.530642   5.769637
    37  H    4.625434   5.889690   7.047630   6.197306   7.182241
    38  H    6.364360   7.366347   8.693657   8.375565   9.143028
    39  H    7.561139   8.229676   9.621667   9.873763  10.369173
    40  H    8.178837   8.436352   9.781746  10.634908  10.801593
    41  H    8.090196   7.951379   9.149721  10.496713  10.352604
    42  H    7.346397   6.827339   7.783952   9.519621   9.084445
    43  H    7.346251   6.508619   7.100203   9.104498   8.399617
    44  H    6.965841   5.935844   6.071998   8.125553   7.217615
    45  H    5.165588   4.221983   4.211664   6.001346   5.164473
    46  H    4.873400   3.665020   3.669168   5.873170   4.890355
                   31         32         33         34         35
    31  H    0.000000
    32  H    2.473585   0.000000
    33  H    4.249950   2.432526   0.000000
    34  H    2.458183   4.270939   4.920854   0.000000
    35  H    4.714794   5.870768   5.502433   2.421443   0.000000
    36  H    6.669794   7.137024   5.915472   4.688097   2.421762
    37  H    8.208624   7.998453   6.137923   6.648275   4.666022
    38  H   10.212887   9.489173   7.257845   8.984117   7.190828
    39  H   11.444232  10.217387   7.804841  10.652572   9.193887
    40  H   11.826708  10.126716   7.730830  11.568148  10.580567
    41  H   11.281295   9.250701   7.065528  11.525730  11.038625
    42  H    9.878018   7.655522   5.868121  10.588379  10.628421
    43  H    9.000890   6.727978   5.618783  10.150056  10.691929
    44  H    7.588708   5.531786   5.310592   9.075345  10.091354
    45  H    5.552236   3.876468   3.948998   6.888691   7.994879
    46  H    5.305702   3.098533   3.118140   6.850669   8.002841
                   36         37         38         39         40
    36  H    0.000000
    37  H    2.384897   0.000000
    38  H    4.969506   2.585227   0.000000
    39  H    7.192397   4.880855   2.504242   0.000000
    40  H    8.960173   6.896831   4.954794   2.673787   0.000000
    41  H    9.884023   8.208297   6.835448   4.954076   2.504077
    42  H   10.026154   8.879823   8.209968   6.898971   4.885394
    43  H   10.612296   9.962241   9.832673   8.925231   7.181010
    44  H   10.560365  10.473035  10.937261  10.538816   9.220892
    45  H    8.733528   9.045962   9.999219  10.138283   9.409891
    46  H    8.691057   8.895417   9.744307   9.788537   8.972921
                   41         42         43         44         45
    41  H    0.000000
    42  H    2.590832   0.000000
    43  H    4.978250   2.395466   0.000000
    44  H    7.273970   4.774686   2.532111   0.000000
    45  H    7.963431   5.834530   4.200413   2.349600   0.000000
    46  H    7.475398   5.336226   3.837168   2.464994   1.643873
                   46
    46  H    0.000000
 Stoichiometry    C30H16
 Framework group  C1[X(C30H16)]
 Deg. of freedom   132
 Full point group                 C1      NOp   1
 Largest Abelian subgroup         C1      NOp   1
 Largest concise Abelian subgroup C1      NOp   1
                         Standard orientation:                         
 ---------------------------------------------------------------------
 Center     Atomic      Atomic             Coordinates (Angstroms)
 Number     Number       Type             X           Y           Z
 ---------------------------------------------------------------------
      1          6           0        0.594169   -3.047194   -0.160710
      2          6           0        0.849047   -1.698692   -0.032572
      3          6           0        2.103145   -1.250158    0.115070
      4          6           0        3.227232   -2.047972    0.181670
      5          6           0        1.696627   -3.944047   -0.113954
      6          6           0        3.020375   -3.442059    0.072900
      7          6           0        2.113724    0.084970    0.149647
      8          6           0        3.299853    0.787814    0.248166
      9          6           0        4.503942    0.042251    0.370772
     10          6           0        4.467469   -1.385418    0.335197
     11          6           0        0.834865    0.595842   -0.000037
     12          6           0        0.760041    2.013732   -0.187064
     13          6           0        1.968842    2.800003   -0.072146
     14          6           0        3.220480    2.178692    0.180016
     15          6           0       -0.730815   -3.416728   -0.354311
     16          6           0       -1.756313   -2.438689   -0.304611
     17          6           0       -1.468835   -1.041170   -0.045830
     18          6           0       -0.070778   -0.655812   -0.023880
     19          6           0        1.935912    4.137549   -0.261353
     20          6           0       -0.379824    2.639189   -0.528649
     21          6           0       -0.472755    4.111479   -0.663122
     22          6           0        0.667938    4.814199   -0.612007
     23          6           0       -3.072263   -2.875465   -0.495373
     24          6           0       -4.135539   -1.993420   -0.409880
     25          6           0       -3.919515   -0.667585   -0.040816
     26          6           0       -2.595837   -0.188233    0.185063
     27          6           0       -2.471943    1.095957    0.730015
     28          6           0       -3.577444    1.924249    0.933453
     29          6           0       -5.029471    0.174301    0.148445
     30          6           0       -4.854175    1.473225    0.617369
     31          1           0       -5.711889    2.113461    0.778633
     32          1           0       -3.442923    2.912058    1.355401
     33          1           0       -1.525853    1.441339    1.074315
     34          1           0       -6.035763   -0.181777   -0.039690
     35          1           0       -5.140250   -2.368659   -0.567885
     36          1           0       -3.283002   -3.915749   -0.716454
     37          1           0       -0.971150   -4.463124   -0.508002
     38          1           0        1.538426   -5.010373   -0.214838
     39          1           0        3.858569   -4.125993    0.110796
     40          1           0        5.387728   -1.951751    0.399724
     41          1           0        5.455984    0.550766    0.455844
     42          1           0        4.129973    2.766366    0.243185
     43          1           0        2.842092    4.735490   -0.206446
     44          1           0        0.674555    5.874074   -0.852198
     45          1           0       -1.194888    4.540761   -1.350273
     46          1           0       -0.950533    4.398263    0.269080
 ---------------------------------------------------------------------
 Rotational constants (GHZ):           0.2214864           0.1687899           0.0979266
 Standard basis: 6-311+G(d,p) (5D, 7F)
 There are   786 symmetry adapted cartesian basis functions of A   symmetry.
 There are   756 symmetry adapted basis functions of A   symmetry.
   756 basis functions,  1208 primitive gaussians,   786 cartesian basis functions
    98 alpha electrons       98 beta electrons
       nuclear repulsion energy      2588.4467114301 Hartrees.
 NAtoms=   46 NActive=   46 NUniq=   46 SFac= 1.00D+00 NAtFMM=   60 NAOKFM=F Big=F
 Integral buffers will be    131072 words long.
 Raffenetti 2 integral format.
 Two-electron integral symmetry is turned on.
 One-electron integrals computed using PRISM.
 NBasis=   756 RedAO= T EigKep=  1.06D-06  NBF=   756
 NBsUse=   735 1.00D-06 EigRej=  7.57D-07 NBFU=   735
 ExpMin= 4.38D-02 ExpMax= 4.56D+03 ExpMxC= 6.82D+02 IAcc=2 IRadAn=         4 AccDes= 0.00D+00
 Harris functional with IExCor=  402 and IRadAn=       4 diagonalized for initial guess.
 HarFok:  IExCor=  402 AccDes= 0.00D+00 IRadAn=         4 IDoV= 1 UseB2=F ITyADJ=14
 ICtDFT=  3500011 ScaDFX=  1.000000  1.000000  1.000000  1.000000
 FoFCou: FMM=F IPFlag=           0 FMFlag=      100000 FMFlg1=           0
         NFxFlg=           0 DoJE=T BraDBF=F KetDBF=T FulRan=T
         wScrn=  0.000000 ICntrl=       500 IOpCl=  0 I1Cent=   200000004 NGrid=           0
         NMat0=    1 NMatS0=      1 NMatT0=    0 NMatD0=    1 NMtDS0=    0 NMtDT0=    0
 Petite list used in FoFCou.
 Requested convergence on RMS density matrix=1.00D-08 within 128 cycles.
 Requested convergence on MAX density matrix=1.00D-06.
 Requested convergence on             energy=1.00D-06.
 No special actions if energy rises.
 EnCoef did     4 forward-backward iterations
 Restarting incremental Fock formation.
 SCF Done:  E(RB3LYP) =  -1152.92473976     A.U. after   23 cycles
            NFock= 23  Conv=0.72D-08     -V/T= 2.0034

 **********************************************************************

            Population analysis using the SCF Density.

 **********************************************************************

 Orbital symmetries:
       Occupied  (A) (A) (A) (A) (A) (A) (A) (A) (A) (A) (A) (A)
                 (A) (A) (A) (A) (A) (A) (A) (A) (A) (A) (A) (A)
                 (A) (A) (A) (A) (A) (A) (A) (A) (A) (A) (A) (A)
                 (A) (A) (A) (A) (A) (A) (A) (A) (A) (A) (A) (A)
                 (A) (A) (A) (A) (A) (A) (A) (A) (A) (A) (A) (A)
                 (A) (A) (A) (A) (A) (A) (A) (A) (A) (A) (A) (A)
                 (A) (A) (A) (A) (A) (A) (A) (A) (A) (A) (A) (A)
                 (A) (A) (A) (A) (A) (A) (A) (A) (A) (A) (A) (A)
                 (A) (A)
       Virtual   (A) (A) (A) (A) (A) (A) (A) (A) (A) (A) (A) (A)
                 (A) (A) (A) (A) (A) (A) (A) (A) (A) (A) (A) (A)
                 (A) (A) (A) (A) (A) (A) (A) (A) (A) (A) (A) (A)
                 (A) (A) (A) (A) (A) (A) (A) (A) (A) (A) (A) (A)
                 (A) (A) (A) (A) (A) (A) (A) (A) (A) (A) (A) (A)
                 (A) (A) (A) (A) (A) (A) (A) (A) (A) (A) (A) (A)
                 (A) (A) (A) (A) (A) (A) (A) (A) (A) (A) (A) (A)
                 (A) (A) (A) (A) (A) (A) (A) (A) (A) (A) (A) (A)
                 (A) (A) (A) (A) (A) (A) (A) (A) (A) (A) (A) (A)
                 (A) (A) (A) (A) (A) (A) (A) (A) (A) (A) (A) (A)
                 (A) (A) (A) (A) (A) (A) (A) (A) (A) (A) (A) (A)
                 (A) (A) (A) (A) (A) (A) (A) (A) (A) (A) (A) (A)
                 (A) (A) (A) (A) (A) (A) (A) (A) (A) (A) (A) (A)
                 (A) (A) (A) (A) (A) (A) (A) (A) (A) (A) (A) (A)
                 (A) (A) (A) (A) (A) (A) (A) (A) (A) (A) (A) (A)
                 (A) (A) (A) (A) (A) (A) (A) (A) (A) (A) (A) (A)
                 (A) (A) (A) (A) (A) (A) (A) (A) (A) (A) (A) (A)
                 (A) (A) (A) (A) (A) (A) (A) (A) (A) (A) (A) (A)
                 (A) (A) (A) (A) (A) (A) (A) (A) (A) (A) (A) (A)
                 (A) (A) (A) (A) (A) (A) (A) (A) (A) (A) (A) (A)
                 (A) (A) (A) (A) (A) (A) (A) (A) (A) (A) (A) (A)
                 (A) (A) (A) (A) (A) (A) (A) (A) (A) (A) (A) (A)
                 (A) (A) (A) (A) (A) (A) (A) (A) (A) (A) (A) (A)
                 (A) (A) (A) (A) (A) (A) (A) (A) (A) (A) (A) (A)
                 (A) (A) (A) (A) (A) (A) (A) (A) (A) (A) (A) (A)
                 (A) (A) (A) (A) (A) (A) (A) (A) (A) (A) (A) (A)
                 (A) (A) (A) (A) (A) (A) (A) (A) (A) (A) (A) (A)
                 (A) (A) (A) (A) (A) (A) (A) (A) (A) (A) (A) (A)
                 (A) (A) (A) (A) (A) (A) (A) (A) (A) (A) (A) (A)
                 (A) (A) (A) (A) (A) (A) (A) (A) (A) (A) (A) (A)
                 (A) (A) (A) (A) (A) (A) (A) (A) (A) (A) (A) (A)
                 (A) (A) (A) (A) (A) (A) (A) (A) (A) (A) (A) (A)
                 (A) (A) (A) (A) (A) (A) (A) (A) (A) (A) (A) (A)
                 (A) (A) (A) (A) (A) (A) (A) (A) (A) (A) (A) (A)
                 (A) (A) (A) (A) (A) (A) (A) (A) (A) (A) (A) (A)
                 (A) (A) (A) (A) (A) (A) (A) (A) (A) (A) (A) (A)
                 (A) (A) (A) (A) (A) (A) (A) (A) (A) (A) (A) (A)
                 (A) (A) (A) (A) (A) (A) (A) (A) (A) (A) (A) (A)
                 (A) (A) (A) (A) (A) (A) (A) (A) (A) (A) (A) (A)
                 (A) (A) (A) (A) (A) (A) (A) (A) (A) (A) (A) (A)
                 (A) (A) (A) (A) (A) (A) (A) (A) (A) (A) (A) (A)
                 (A) (A) (A) (A) (A) (A) (A) (A) (A) (A) (A) (A)
                 (A) (A) (A) (A) (A) (A) (A) (A) (A) (A) (A) (A)
                 (A) (A) (A) (A) (A) (A) (A) (A) (A) (A) (A) (A)
                 (A) (A) (A) (A) (A) (A) (A) (A) (A) (A) (A) (A)
                 (A) (A) (A) (A) (A) (A) (A) (A) (A) (A) (A) (A)
                 (A) (A) (A) (A) (A) (A) (A) (A) (A) (A) (A) (A)
                 (A) (A) (A) (A) (A) (A) (A) (A) (A) (A) (A) (A)
                 (A) (A) (A) (A) (A) (A) (A) (A) (A) (A) (A) (A)
                 (A) (A) (A) (A) (A) (A) (A) (A) (A) (A) (A) (A)
                 (A) (A) (A) (A) (A) (A) (A) (A) (A) (A) (A) (A)
                 (A) (A) (A) (A) (A) (A) (A) (A) (A) (A) (A) (A)
                 (A) (A) (A) (A) (A) (A) (A) (A) (A) (A) (A) (A)
                 (A)
 The electronic state is 1-A.
 Alpha  occ. eigenvalues --  -10.20517 -10.20471 -10.20143 -10.19770 -10.19695
 Alpha  occ. eigenvalues --  -10.19686 -10.19640 -10.19484 -10.19330 -10.19261
 Alpha  occ. eigenvalues --  -10.19187 -10.19075 -10.18750 -10.18709 -10.18673
 Alpha  occ. eigenvalues --  -10.18427 -10.17904 -10.17896 -10.17812 -10.17648
 Alpha  occ. eigenvalues --  -10.17509 -10.17329 -10.17045 -10.16762 -10.16536
 Alpha  occ. eigenvalues --  -10.16442 -10.16184 -10.16013 -10.15842 -10.14506
 Alpha  occ. eigenvalues --   -0.93447  -0.89034  -0.88165  -0.85996  -0.84552
 Alpha  occ. eigenvalues --   -0.83342  -0.81412  -0.79393  -0.78180  -0.76787
 Alpha  occ. eigenvalues --   -0.75886  -0.74456  -0.72359  -0.71119  -0.70486
 Alpha  occ. eigenvalues --   -0.67941  -0.64718  -0.64276  -0.63313  -0.61324
 Alpha  occ. eigenvalues --   -0.60038  -0.59403  -0.58235  -0.57097  -0.56184
 Alpha  occ. eigenvalues --   -0.53047  -0.52124  -0.51346  -0.50868  -0.49461
 Alpha  occ. eigenvalues --   -0.48751  -0.47953  -0.46863  -0.46354  -0.45695
 Alpha  occ. eigenvalues --   -0.45161  -0.44309  -0.44255  -0.44030  -0.43065
 Alpha  occ. eigenvalues --   -0.42599  -0.42171  -0.41116  -0.41059  -0.40357
 Alpha  occ. eigenvalues --   -0.40137  -0.40043  -0.39541  -0.38460  -0.38311
 Alpha  occ. eigenvalues --   -0.36492  -0.36091  -0.35966  -0.35142  -0.34079
 Alpha  occ. eigenvalues --   -0.33852  -0.33304  -0.33048  -0.32711  -0.30211
 Alpha  occ. eigenvalues --   -0.29208  -0.27468  -0.26103  -0.24689  -0.22060
 Alpha  occ. eigenvalues --   -0.20928  -0.20391  -0.16082
 Alpha virt. eigenvalues --   -0.11715  -0.08137  -0.05142  -0.04598  -0.01029
 Alpha virt. eigenvalues --   -0.00577  -0.00307   0.00358   0.00618   0.00907
 Alpha virt. eigenvalues --    0.01375   0.01509   0.01566   0.02157   0.02751
 Alpha virt. eigenvalues --    0.02835   0.02994   0.03578   0.03901   0.04436
 Alpha virt. eigenvalues --    0.04708   0.05217   0.05441   0.05813   0.05981
 Alpha virt. eigenvalues --    0.06501   0.06752   0.06851   0.07355   0.07823
 Alpha virt. eigenvalues --    0.08342   0.08412   0.08644   0.08962   0.09383
 Alpha virt. eigenvalues --    0.09569   0.10014   0.10311   0.10869   0.11248
 Alpha virt. eigenvalues --    0.11408   0.11732   0.11984   0.12553   0.12729
 Alpha virt. eigenvalues --    0.12953   0.13467   0.13604   0.13910   0.14006
 Alpha virt. eigenvalues --    0.14590   0.15200   0.15266   0.15603   0.15644
 Alpha virt. eigenvalues --    0.15913   0.16163   0.16323   0.16593   0.16767
 Alpha virt. eigenvalues --    0.17025   0.17221   0.17435   0.17637   0.17855
 Alpha virt. eigenvalues --    0.18008   0.18446   0.18590   0.18886   0.19204
 Alpha virt. eigenvalues --    0.19395   0.19613   0.19797   0.20028   0.20258
 Alpha virt. eigenvalues --    0.20282   0.20455   0.20952   0.21095   0.21311
 Alpha virt. eigenvalues --    0.21484   0.21783   0.22110   0.22227   0.22555
 Alpha virt. eigenvalues --    0.22612   0.22891   0.23297   0.23442   0.23565
 Alpha virt. eigenvalues --    0.23646   0.23849   0.24144   0.24258   0.24422
 Alpha virt. eigenvalues --    0.24759   0.25037   0.25176   0.25494   0.25837
 Alpha virt. eigenvalues --    0.25993   0.26279   0.26394   0.26702   0.26911
 Alpha virt. eigenvalues --    0.27106   0.27597   0.27658   0.27837   0.28144
 Alpha virt. eigenvalues --    0.28448   0.28928   0.29183   0.29432   0.29726
 Alpha virt. eigenvalues --    0.30243   0.30418   0.30543   0.30975   0.31053
 Alpha virt. eigenvalues --    0.31435   0.31621   0.31883   0.31964   0.32803
 Alpha virt. eigenvalues --    0.32977   0.33268   0.33462   0.33654   0.34137
 Alpha virt. eigenvalues --    0.34284   0.34902   0.35680   0.35960   0.36304
 Alpha virt. eigenvalues --    0.36600   0.36883   0.37481   0.37798   0.38606
 Alpha virt. eigenvalues --    0.39171   0.39723   0.40459   0.40653   0.40969
 Alpha virt. eigenvalues --    0.41799   0.42321   0.42809   0.43414   0.44121
 Alpha virt. eigenvalues --    0.44468   0.45257   0.45641   0.45659   0.46377
 Alpha virt. eigenvalues --    0.47525   0.47804   0.48211   0.48848   0.49852
 Alpha virt. eigenvalues --    0.50280   0.50581   0.52007   0.52401   0.52735
 Alpha virt. eigenvalues --    0.53175   0.53594   0.53714   0.54357   0.54772
 Alpha virt. eigenvalues --    0.55055   0.55139   0.55729   0.55804   0.56413
 Alpha virt. eigenvalues --    0.56907   0.57437   0.57711   0.58028   0.58205
 Alpha virt. eigenvalues --    0.58530   0.59106   0.59431   0.59964   0.60359
 Alpha virt. eigenvalues --    0.60442   0.60823   0.61270   0.61720   0.61874
 Alpha virt. eigenvalues --    0.62260   0.62577   0.63237   0.63334   0.63814
 Alpha virt. eigenvalues --    0.64119   0.64290   0.64831   0.65437   0.65638
 Alpha virt. eigenvalues --    0.65745   0.66435   0.67310   0.67482   0.68086
 Alpha virt. eigenvalues --    0.68517   0.68602   0.69146   0.69617   0.69946
 Alpha virt. eigenvalues --    0.70150   0.70512   0.70906   0.71590   0.71817
 Alpha virt. eigenvalues --    0.72101   0.72408   0.72813   0.73305   0.73460
 Alpha virt. eigenvalues --    0.73606   0.74209   0.74594   0.75079   0.75370
 Alpha virt. eigenvalues --    0.75557   0.75942   0.76394   0.76575   0.77208
 Alpha virt. eigenvalues --    0.77721   0.77938   0.78509   0.78892   0.79135
 Alpha virt. eigenvalues --    0.79899   0.80131   0.81085   0.81444   0.82963
 Alpha virt. eigenvalues --    0.83420   0.83991   0.84655   0.85302   0.85696
 Alpha virt. eigenvalues --    0.86206   0.87333   0.87750   0.88664   0.89199
 Alpha virt. eigenvalues --    0.89630   0.90031   0.91243   0.91434   0.91803
 Alpha virt. eigenvalues --    0.92110   0.92558   0.93167   0.93546   0.93861
 Alpha virt. eigenvalues --    0.94582   0.95008   0.95452   0.96051   0.96574
 Alpha virt. eigenvalues --    0.96615   0.96729   0.96872   0.97174   0.97409
 Alpha virt. eigenvalues --    0.97821   0.98791   0.98969   0.99277   1.00019
 Alpha virt. eigenvalues --    1.00101   1.01013   1.01471   1.02167   1.02323
 Alpha virt. eigenvalues --    1.02544   1.03283   1.03964   1.04214   1.05127
 Alpha virt. eigenvalues --    1.05573   1.06052   1.06203   1.06614   1.07243
 Alpha virt. eigenvalues --    1.08027   1.09286   1.09370   1.10072   1.10459
 Alpha virt. eigenvalues --    1.11175   1.11342   1.13197   1.13814   1.14586
 Alpha virt. eigenvalues --    1.15417   1.16258   1.16437   1.17410   1.18386
 Alpha virt. eigenvalues --    1.19487   1.19833   1.20773   1.21503   1.22921
 Alpha virt. eigenvalues --    1.24069   1.24809   1.27450   1.28617   1.29466
 Alpha virt. eigenvalues --    1.31450   1.32085   1.33085   1.34612   1.35903
 Alpha virt. eigenvalues --    1.36553   1.37434   1.39334   1.40491   1.41753
 Alpha virt. eigenvalues --    1.42076   1.43657   1.44122   1.45607   1.46844
 Alpha virt. eigenvalues --    1.47294   1.47988   1.48296   1.48998   1.49709
 Alpha virt. eigenvalues --    1.49820   1.50208   1.50811   1.51301   1.51765
 Alpha virt. eigenvalues --    1.52583   1.52803   1.53490   1.53973   1.54700
 Alpha virt. eigenvalues --    1.55726   1.55930   1.57265   1.57738   1.58702
 Alpha virt. eigenvalues --    1.59036   1.59393   1.59964   1.60756   1.61316
 Alpha virt. eigenvalues --    1.61884   1.62439   1.63654   1.64422   1.64803
 Alpha virt. eigenvalues --    1.65665   1.66392   1.67319   1.67624   1.68117
 Alpha virt. eigenvalues --    1.69362   1.70174   1.71072   1.71617   1.73080
 Alpha virt. eigenvalues --    1.73748   1.73958   1.74832   1.75103   1.75406
 Alpha virt. eigenvalues --    1.75955   1.76128   1.77216   1.77481   1.78395
 Alpha virt. eigenvalues --    1.79840   1.80279   1.81068   1.81547   1.82721
 Alpha virt. eigenvalues --    1.83276   1.84484   1.84929   1.85435   1.86556
 Alpha virt. eigenvalues --    1.86953   1.87411   1.88510   1.88901   1.89359
 Alpha virt. eigenvalues --    1.90025   1.90061   1.90439   1.91161   1.92420
 Alpha virt. eigenvalues --    1.92493   1.93121   1.93276   1.94142   1.94385
 Alpha virt. eigenvalues --    1.94994   1.95559   1.96007   1.96561   1.97208
 Alpha virt. eigenvalues --    1.98381   1.99245   1.99975   2.00422   2.00784
 Alpha virt. eigenvalues --    2.01374   2.02113   2.02827   2.03768   2.04563
 Alpha virt. eigenvalues --    2.05686   2.06003   2.06593   2.07092   2.07209
 Alpha virt. eigenvalues --    2.08406   2.09162   2.10600   2.11593   2.12791
 Alpha virt. eigenvalues --    2.13632   2.13911   2.14998   2.15710   2.16322
 Alpha virt. eigenvalues --    2.17662   2.18595   2.19871   2.20346   2.20956
 Alpha virt. eigenvalues --    2.22769   2.22988   2.23532   2.24752   2.25246
 Alpha virt. eigenvalues --    2.26315   2.26666   2.27311   2.29003   2.31614
 Alpha virt. eigenvalues --    2.33383   2.35011   2.35445   2.37047   2.38573
 Alpha virt. eigenvalues --    2.39722   2.40957   2.42777   2.43528   2.44106
 Alpha virt. eigenvalues --    2.44937   2.45371   2.46453   2.46771   2.48191
 Alpha virt. eigenvalues --    2.48771   2.50819   2.52383   2.53433   2.56097
 Alpha virt. eigenvalues --    2.57474   2.58239   2.58521   2.59375   2.59662
 Alpha virt. eigenvalues --    2.61425   2.63983   2.64731   2.65719   2.65846
 Alpha virt. eigenvalues --    2.66830   2.68640   2.69135   2.69187   2.70350
 Alpha virt. eigenvalues --    2.70706   2.71418   2.71725   2.72619   2.72683
 Alpha virt. eigenvalues --    2.73457   2.73642   2.74485   2.74829   2.75800
 Alpha virt. eigenvalues --    2.76222   2.76698   2.76770   2.77014   2.77331
 Alpha virt. eigenvalues --    2.77642   2.78198   2.78322   2.79407   2.79916
 Alpha virt. eigenvalues --    2.80510   2.81680   2.82473   2.83548   2.83756
 Alpha virt. eigenvalues --    2.84449   2.84615   2.85536   2.86472   2.86884
 Alpha virt. eigenvalues --    2.88188   2.89162   2.89807   2.90186   2.91426
 Alpha virt. eigenvalues --    2.92058   2.92389   2.93829   2.94088   2.95408
 Alpha virt. eigenvalues --    2.96606   2.97327   2.99160   3.01530   3.02481
 Alpha virt. eigenvalues --    3.02737   3.04962   3.05984   3.07806   3.10518
 Alpha virt. eigenvalues --    3.12178   3.13884   3.15351   3.16261   3.17825
 Alpha virt. eigenvalues --    3.18323   3.20279   3.21873   3.22978   3.23426
 Alpha virt. eigenvalues --    3.24703   3.25702   3.27285   3.30705   3.34031
 Alpha virt. eigenvalues --    3.35162   3.37729   3.38437   3.40845   3.41427
 Alpha virt. eigenvalues --    3.41723   3.42357   3.42948   3.44572   3.44729
 Alpha virt. eigenvalues --    3.46305   3.47680   3.49740   3.50269   3.52617
 Alpha virt. eigenvalues --    3.52770   3.53622   3.55048   3.56748   3.57721
 Alpha virt. eigenvalues --    3.61133   3.64295   3.65365   3.65543   3.66796
 Alpha virt. eigenvalues --    3.69964   3.72113   3.77351   3.79868   3.83444
 Alpha virt. eigenvalues --    3.86588   3.88538   3.94193   4.04504   4.05205
 Alpha virt. eigenvalues --    4.06209   4.08639   4.09116   4.09761   4.11967
 Alpha virt. eigenvalues --    4.13889   4.17337   4.21908   4.24042   4.26467
 Alpha virt. eigenvalues --    4.30424   4.36137   4.49004   4.61666   4.75753
 Alpha virt. eigenvalues --    4.77900   4.80078   4.82140   4.83659   4.85323
 Alpha virt. eigenvalues --    4.86984   4.90807  23.40721  23.61526  23.68797
 Alpha virt. eigenvalues --   23.81285  23.84231  23.85959  23.87868  23.89597
 Alpha virt. eigenvalues --   23.91421  23.95460  23.97078  23.98496  23.99684
 Alpha virt. eigenvalues --   24.00608  24.02130  24.04473  24.05097  24.06280
 Alpha virt. eigenvalues --   24.07434  24.10216  24.10698  24.11429  24.14909
 Alpha virt. eigenvalues --   24.18467  24.18937  24.20167  24.21507  24.24506
 Alpha virt. eigenvalues --   24.26968  24.39706
          Condensed to atoms (all electrons):
               1          2          3          4          5          6
     1  C    9.943500   0.682117   0.300336   0.926973  -0.540858  -1.482949
     2  C    0.682117   7.755171   0.125123   0.459969   0.346197   0.514377
     3  C    0.300336   0.125123   7.762416   0.487922   0.527878  -0.477205
     4  C    0.926973   0.459969   0.487922  10.811823  -1.882434  -1.207299
     5  C   -0.540858   0.346197   0.527878  -1.882434   9.394071   2.281229
     6  C   -1.482949   0.514377  -0.477205  -1.207299   2.281229   9.062108
     7  C    0.323191  -0.297955   0.043358   0.701583  -0.758793  -0.802729
     8  C   -0.384170   0.429201  -0.085078   0.386311  -0.073468   0.313992
     9  C    0.062775  -0.920125   1.479658  -1.198913  -0.087833  -0.683737
    10  C    0.195156  -1.033934  -0.989967  -1.965191  -0.344140  -0.282416
    11  C   -0.698738  -0.034546  -0.749920   0.341298  -0.356345  -0.059821
    12  C    0.005313  -0.133308  -0.290963  -0.005423  -0.120776  -0.197669
    13  C    0.136166  -0.255557  -0.014615  -0.378360  -0.093588  -0.169058
    14  C   -0.089389  -0.013282  -0.929225  -0.324738  -0.012247   0.261119
    15  C    1.614325   0.544607  -0.329037  -0.345084  -0.389237  -0.221103
    16  C   -0.700159   0.257876   0.310556  -0.563771  -0.013312  -0.041200
    17  C   -1.358863   0.339734  -0.414632  -0.335095  -0.489109  -0.034553
    18  C    0.232258  -0.009597  -0.542589   0.441656  -0.761936  -0.552965
    19  C    0.079494   0.025935   0.322839  -0.178117  -0.002220  -0.034617
    20  C    0.038045   0.095580  -0.253369  -0.035401   0.057253  -0.030208
    21  C   -0.040603   0.080318  -0.141710   0.036172   0.008103  -0.004243
    22  C   -0.000560  -0.040107  -0.036073  -0.017856  -0.002807   0.004412
    23  C   -1.579595  -1.150923   0.158372  -0.232053  -0.302875  -0.158388
    24  C    0.292193  -0.140579   0.055460   0.003284  -0.080987  -0.022073
    25  C   -0.162039  -0.593924   0.192843  -0.112284   0.076028   0.037424
    26  C   -1.166254  -0.048245  -0.192623  -0.055918  -0.196376  -0.047911
    27  C   -0.634653  -0.828317  -0.288640  -0.054412  -0.109707  -0.036777
    28  C   -0.021789  -0.070404  -0.072967   0.008840  -0.013779  -0.001047
    29  C   -0.010747  -0.248006   0.015234  -0.006085   0.018363   0.003105
    30  C   -0.023626  -0.001349   0.015382  -0.001864  -0.005242  -0.000657
    31  H    0.000075   0.000054   0.000009   0.000001   0.000002   0.000000
    32  H   -0.000162   0.000511   0.000064  -0.000017  -0.000015  -0.000006
    33  H    0.003025   0.010141  -0.005304   0.000647   0.000221   0.000120
    34  H    0.000126  -0.000404  -0.000008  -0.000007   0.000021   0.000002
    35  H    0.001768   0.001216   0.000007   0.000027   0.000169   0.000003
    36  H    0.062037   0.009986   0.001547   0.000490   0.010841   0.001046
    37  H   -0.063097   0.022123  -0.008365   0.006196   0.006839   0.006785
    38  H   -0.111914   0.009019   0.007780  -0.030702   0.385081  -0.017215
    39  H    0.010608   0.012862   0.026567  -0.115072   0.010026   0.398999
    40  H    0.005363  -0.018547   0.027699  -0.099844   0.004500   0.001291
    41  H    0.002168  -0.006138  -0.005728  -0.037827  -0.000865   0.001205
    42  H   -0.000159   0.004260  -0.013029   0.011196   0.000136   0.000378
    43  H    0.000011  -0.000192   0.002378   0.000168   0.000005  -0.000001
    44  H   -0.000000   0.000039   0.000081   0.000049   0.000002   0.000001
    45  H   -0.000072  -0.000139  -0.000964   0.000201   0.000002   0.000010
    46  H   -0.000101  -0.000914   0.000404  -0.000037  -0.000018   0.000006
               7          8          9         10         11         12
     1  C    0.323191  -0.384170   0.062775   0.195156  -0.698738   0.005313
     2  C   -0.297955   0.429201  -0.920125  -1.033934  -0.034546  -0.133308
     3  C    0.043358  -0.085078   1.479658  -0.989967  -0.749920  -0.290963
     4  C    0.701583   0.386311  -1.198913  -1.965191   0.341298  -0.005423
     5  C   -0.758793  -0.073468  -0.087833  -0.344140  -0.356345  -0.120776
     6  C   -0.802729   0.313992  -0.683737  -0.282416  -0.059821  -0.197669
     7  C    7.033931   0.170020   0.448185   0.282118   0.230719   0.250515
     8  C    0.170020  10.518947  -1.245235  -1.581019  -0.196343  -1.845559
     9  C    0.448185  -1.245235  12.092091   1.773189  -1.597045  -0.823424
    10  C    0.282118  -1.581019   1.773189  10.780679  -0.564343  -0.133501
    11  C    0.230719  -0.196343  -1.597045  -0.564343   9.593347   2.349958
    12  C    0.250515  -1.845559  -0.823424  -0.133501   2.349958  12.704561
    13  C   -0.413048  -0.350089  -0.292006  -0.144354  -1.149788  -1.399942
    14  C    0.187292   1.114235  -1.852621   0.237670   1.047794  -0.115428
    15  C   -0.051885   0.005091  -0.094051   0.073275  -0.147452  -0.034676
    16  C   -0.317253   0.136397  -0.148884  -0.199560  -1.197964  -0.265973
    17  C   -0.121543  -0.151727  -0.297267  -0.095960   0.826400   0.344350
    18  C    0.085677  -0.663688  -0.441193   0.270534  -0.122657   0.878322
    19  C   -0.838481  -0.105384   0.293769  -0.147677  -1.421402  -2.064772
    20  C   -0.418388  -0.251713  -0.158569  -0.239181  -1.430207  -2.047378
    21  C    0.304434  -0.115568  -0.054961  -0.020007  -0.105421  -1.024391
    22  C   -0.151459  -0.402551  -0.127420   0.017354  -0.021297   0.629491
    23  C   -0.028976   0.083340  -0.017315  -0.015687   0.393991  -0.036630
    24  C   -0.031875   0.015987  -0.002433   0.004186   0.016403  -0.029932
    25  C   -0.050534  -0.066826  -0.032072  -0.017292  -0.593597  -0.362883
    26  C    0.086562   0.040818  -0.036264  -0.021015   0.664678   0.549669
    27  C    0.013269   0.036728   0.017952   0.034784   0.941863  -0.503964
    28  C   -0.038445   0.021609   0.007336   0.009287  -0.034795   0.144683
    29  C   -0.016774  -0.009601  -0.003741   0.001079  -0.006530  -0.156335
    30  C    0.018152   0.008546   0.001150  -0.000255   0.052426   0.054763
    31  H   -0.000047   0.000011   0.000000   0.000000   0.000241   0.000459
    32  H   -0.000256   0.000489   0.000046  -0.000001   0.002202   0.004256
    33  H    0.000424  -0.014352  -0.002346  -0.000602  -0.042917   0.001538
    34  H   -0.000014  -0.000008  -0.000000  -0.000000  -0.000630  -0.000239
    35  H    0.000022  -0.000002   0.000000   0.000001  -0.000013   0.000049
    36  H   -0.000472  -0.000013   0.000003   0.000024  -0.001702  -0.000308
    37  H    0.003468  -0.000235   0.000255  -0.000252   0.000327   0.000228
    38  H   -0.003501   0.004253  -0.002033   0.001928   0.001568  -0.000439
    39  H   -0.017104   0.011346  -0.003801  -0.012915   0.002243  -0.000130
    40  H    0.004077  -0.008431   0.027267   0.394748   0.000089   0.000152
    41  H    0.008599  -0.100151   0.377868  -0.004650  -0.006208   0.006434
    42  H    0.016908  -0.083757   0.017952   0.008038  -0.015197  -0.016617
    43  H    0.007360   0.053284   0.010748   0.000647  -0.009173  -0.026815
    44  H    0.002471   0.002520  -0.000068  -0.000026   0.004945   0.017406
    45  H    0.006302  -0.003538  -0.000258   0.000004  -0.001346   0.071142
    46  H   -0.001914  -0.002981  -0.000438   0.000029   0.006669   0.002860
              13         14         15         16         17         18
     1  C    0.136166  -0.089389   1.614325  -0.700159  -1.358863   0.232258
     2  C   -0.255557  -0.013282   0.544607   0.257876   0.339734  -0.009597
     3  C   -0.014615  -0.929225  -0.329037   0.310556  -0.414632  -0.542589
     4  C   -0.378360  -0.324738  -0.345084  -0.563771  -0.335095   0.441656
     5  C   -0.093588  -0.012247  -0.389237  -0.013312  -0.489109  -0.761936
[...]
 098,-0.00000193,0.00000019,0.00000252,0.00000176,0.00001718,-0.0000057
 3,0.00000845,-0.00002161,0.00002273,0.00000152,0.00001827,-0.00000608,
 -0.00000629,-0.00002785,0.00000870,0.00000255,0.00000389,0.00001053,0.
 00000172,0.00000609,0.00000283,0.00000716,-0.00000117,0.00000654,-0.00
 000064,0.00000540,0.00000565,-0.00000220,0.00000497,-0.00001039,-0.000
 02798,-0.00000375,0.00000327,-0.00000161,-0.00000377,0.00000454,-0.000
 00104,-0.00000616,-0.00000079,-0.00000482,-0.00000575,-0.00000229,-0.0
 0000177,-0.00000527,-0.00000580,0.00000211,-0.00000472,-0.00000973,-0.
 00000056,-0.00000214,-0.00001148,0.00000367,0.00001321,-0.00003006,0.0
 0000102,0.00064523,-0.00108975,-0.00007424,0.31309222,0.00004310,-0.00
 001619,-0.00002897,-0.00013347,-0.00000978,-0.00001585,0.00007444,-0.0
 0002146,0.00005635,-0.00002956,0.00000102,-0.00000472,-0.00001127,-0.0
 0001527,-0.00000381,0.00000051,-0.00000572,-0.00000418,-0.00014015,0.0
 0008096,-0.00002911,0.00031301,0.00008808,-0.00015101,0.00001366,-0.00
 001617,-0.00000714,-0.00000543,0.00001783,-0.00000223,-0.00108197,0.00
 034316,0.00001599,-0.00241704,-0.00197656,0.00103125,-0.01905467,0.007
 50719,-0.00373855,-0.00193059,0.00099959,-0.00053584,-0.00000462,0.000
 00690,0.00000083,-0.00000429,0.00001652,-0.00001232,0.00000843,-0.0000
 6171,-0.00002792,-0.00001843,-0.00015867,0.00022155,0.07348552,-0.0786
 1116,0.02014558,-0.00008965,-0.00056156,-0.00051351,-0.00242528,-0.002
 86526,0.00452900,0.03110236,-0.00528731,0.00700480,0.00000016,-0.00000
 466,-0.00000090,-0.00000610,0.00000119,-0.00000319,0.00000251,-0.00001
 096,-0.00000131,0.00001509,0.00002804,0.00001107,-0.00005114,0.0000191
 8,0.00004885,0.00002386,-0.00003244,-0.00001711,0.00001515,0.00001319,
 0.00001022,-0.00002562,0.00002005,-0.00001801,-0.00000247,-0.00000101,
 0.00000255,-0.00000231,0.00000116,0.00001495,-0.00000459,-0.00000061,-
 0.00000328,0.00000055,0.00000014,0.00000244,0.00000035,-0.00000076,0.0
 0000102,-0.00000131,0.00000225,0.00000012,-0.00000175,0.00000045,0.000
 00396,0.00000109,-0.00000300,0.00000381,-0.00000190,0.00000037,0.00000
 065,0.00000667,0.00000392,0.00000474,-0.00000723,-0.00001736,0.0000004
 8,0.00047703,-0.00027424,0.00020762,-0.07986741,0.08170930,-0.00000664
 ,0.00001089,0.00000294,-0.00000086,-0.00001638,-0.00000045,-0.00001196
 ,-0.00000744,0.00000921,-0.00001950,0.00000793,-0.00001066,-0.00000625
 ,0.00000305,-0.00000366,0.00001266,0.00000073,0.00000017,-0.00004109,0
 .00009333,0.00002993,0.00028491,0.00004996,-0.00015089,-0.00003999,-0.
 00006446,0.00000256,0.00005509,-0.00000744,0.00001359,0.00021961,0.000
 06350,0.00012174,0.00037146,0.00118908,0.00286021,0.00474890,0.0011590
 0,0.00289373,0.00041967,-0.00085864,-0.00118772,-0.00000011,-0.0000106
 6,0.00000090,-0.00000363,-0.00000427,0.00000219,0.00000101,-0.00001153
 ,0.00000064,0.00005524,0.00002745,-0.00007475,-0.05309673,0.01835096,-
 0.04922472,-0.00017721,-0.00063793,-0.00164235,-0.00026400,0.00466014,
 0.01058185,-0.01113634,0.00461846,0.00203049,-0.00000248,-0.00000134,-
 0.00000445,0.00000607,-0.00000418,0.00000452,0.00000779,-0.00000630,0.
 00000008,-0.00000306,0.00002115,-0.00000256,-0.00000319,0.00000452,0.0
 0000112,0.00000712,-0.00000292,0.00000540,0.00000737,0.00000447,0.0000
 0405,-0.00000756,-0.00000475,-0.00000542,0.00000130,0.00000098,0.00000
 019,0.00000101,-0.00000571,-0.00000933,0.00000360,0.00000217,-0.000003
 38,-0.00000363,0.00000091,-0.00000035,-0.00000271,0.00000143,0.0000001
 2,-0.00000158,-0.00000169,-0.00000126,-0.00000206,-0.00000065,0.000000
 37,-0.00000219,-0.00000109,0.00000067,-0.00000028,-0.00000276,0.000002
 74,-0.00000035,-0.00000249,-0.00000076,0.00000338,-0.00000361,0.000019
 79,-0.00004264,-0.00006009,0.00027864,0.05768822,-0.02654526,0.0398960
 5,-0.00010300,-0.00000303,-0.00003073,0.00002964,0.00011044,-0.0000032
 9,0.00009055,0.00003495,-0.00003469,0.00007212,-0.00010545,0.00000013,
 0.00000779,0.00002766,0.00000326,0.00001917,0.00000450,0.00001095,0.00
 007423,-0.00020717,0.00003928,-0.00000943,0.00002039,0.00022600,0.0000
 1713,0.00004564,-0.00002628,-0.00005056,-0.00001779,-0.00001325,0.0005
 7779,0.00043369,0.00026537,0.00028974,-0.00012251,0.00007666,0.0006073
 6,0.00127523,-0.00197693,0.00018591,0.00018823,-0.00001837,0.00001411,
 -0.00003210,0.00000122,0.00001614,-0.00000589,0.00002612,0.00000329,0.
 00004540,0.00003211,-0.00008519,0.00006434,-0.00005192,0.00751114,0.00
 663862,-0.00226749,-0.00483768,0.00325812,-0.00234462,-0.01359416,-0.0
 1950141,0.00463361,-0.20744406,-0.13738785,0.02060298,0.00000134,-0.00
 000384,-0.00000788,0.00001191,-0.00000454,0.00000991,0.00005796,-0.000
 03376,0.00003213,-0.00011075,-0.00005663,0.00000923,0.00021405,-0.0000
 7808,-0.00014311,-0.00011774,0.00007998,0.00003835,-0.00003959,0.00002
 563,-0.00004018,0.00007432,-0.00003005,0.00002879,-0.00000996,0.000017
 16,0.00000557,0.00000788,0.00000700,0.00000790,-0.00003307,-0.00001765
 ,-0.00002080,-0.00000816,0.00000415,-0.00000144,-0.00000811,0.00000541
 ,-0.00000246,-0.00000597,-0.00000489,-0.00000467,-0.00000458,-0.000004
 21,-0.00000269,-0.00000723,-0.00000279,0.00000060,0.00000103,-0.000007
 99,-0.00000055,-0.00000119,-0.00000447,0.00000549,0.00000910,-0.000011
 18,-0.00000192,0.00007429,-0.00006937,-0.00010277,0.00104794,-0.000036
 48,0.00115838,0.21491955,-0.00001767,0.00003733,0.00000369,-0.00003965
 ,-0.00003089,-0.00000007,-0.00003357,0.00000607,0.00004593,0.00008113,
 -0.00000670,0.00001466,0.00002110,-0.00002647,0.00000273,-0.00004470,0
 .00000313,-0.00001502,0.00013513,0.00002543,-0.00001497,0.00011345,-0.
 00058341,-0.00031570,-0.00013611,0.00004459,-0.00000884,-0.00004414,-0
 .00007054,0.00001988,-0.00004089,0.00007757,-0.00043657,0.00064419,-0.
 00040194,-0.00018443,0.00265208,-0.00226009,0.00444205,-0.00129730,-0.
 00003872,0.00014281,-0.00000304,-0.00002186,0.00000181,-0.00000547,-0.
 00000579,-0.00000159,0.00000715,-0.00004564,0.00000498,-0.00001815,-0.
 00000330,-0.00002311,-0.02446423,-0.01541109,0.00365731,0.00119019,0.0
 0040547,0.00130388,0.00791862,0.00879081,-0.00168236,-0.13109668,-0.17
 285079,0.02571075,0.00000537,-0.00000561,0.00000141,0.00000557,0.00000
 180,0.00000266,0.00001273,0.00000978,-0.00000398,0.00000409,0.00004321
 ,0.00001598,-0.00003556,-0.00000012,0.00008482,-0.00002830,-0.00002534
 ,0.00000215,-0.00000313,0.00000815,-0.00000169,0.00000249,-0.00000375,
 -0.00000258,-0.00000052,0.00000648,-0.00000178,0.00000351,0.00000081,-
 0.00000253,-0.00002862,0.00002341,-0.00003581,-0.00000506,0.00000191,-
 0.00000072,-0.00000428,0.00000356,-0.00000016,-0.00000384,-0.00000282,
 -0.00000228,-0.00000448,-0.00000089,-0.00000208,-0.00000474,-0.0000032
 6,-0.00000223,-0.00000118,-0.00000590,0.00000084,-0.00001582,-0.000016
 80,-0.00000245,0.00001220,-0.00000521,0.00000323,0.00008190,0.00001880
 ,0.00020706,0.00051936,0.00021147,-0.00211893,0.14532117,0.18153586,0.
 00001694,0.00000006,0.00002923,0.00001798,0.00004676,0.00001149,0.0000
 5875,0.00007234,0.00009710,0.00018012,-0.00013737,0.00002570,0.0000821
 8,0.00003616,0.00001460,-0.00003048,-0.00006101,-0.00001683,0.00041518
 ,-0.00064679,0.00002340,-0.00076518,-0.00035805,-0.00100074,0.00015973
 ,0.00020808,0.00002553,-0.00024924,0.00000226,0.00004901,0.00023291,0.
 00047067,-0.00127495,0.00057100,-0.00114246,-0.00081651,-0.00279753,0.
 00353217,0.00988000,0.00096914,0.00139712,-0.00006959,-0.00002713,0.00
 005921,-0.00000926,-0.00002319,-0.00007035,-0.00002316,-0.00002723,0.0
 0022413,0.00009178,0.00005337,0.00002117,-0.00011914,0.00895676,0.0085
 6099,0.00435442,-0.00234404,0.00364690,0.00252502,-0.00525046,-0.00738
 168,0.00251594,0.01834651,0.02404338,-0.04119568,-0.00003850,-0.000002
 20,-0.00002256,0.00003257,-0.00001948,0.00001804,0.00002842,0.00003810
 ,-0.00000350,-0.00007266,-0.00008439,0.00004334,0.00015086,-0.00009591
 ,0.00004553,-0.00009693,0.00006530,0.00006342,-0.00009094,-0.00000045,
 -0.00007285,0.00008616,-0.00006417,0.00001392,-0.00000193,0.00000829,0
 .00000173,0.00000124,-0.00000967,-0.00000952,-0.00011418,0.00006749,-0
 .00004903,-0.00000873,-0.00000181,0.00000128,-0.00000646,-0.00000015,-
 0.00000058,-0.00000123,-0.00000565,0.00000103,0.00000041,-0.00000162,0
 .00000319,0.00000146,-0.00000421,-0.00000498,0.00000367,0.00000385,0.0
 0000265,0.00000491,0.00000603,-0.00001119,-0.00000179,-0.00000194,0.00
 000366,0.00006666,0.00008704,0.00048761,0.00075135,-0.00224496,-0.0059
 9874,-0.02003990,-0.03068795,0.02989274,-0.00039838,0.00020665,-0.0001
 3235,0.00018669,0.00017949,0.00005010,0.00011994,0.00022826,0.00007017
 ,0.00055063,-0.00025616,-0.00006435,0.00012135,-0.00010121,0.00003213,
 -0.00017407,0.00004269,-0.00003060,0.00053806,-0.00052584,0.00096584,-
 0.00043159,-0.00056564,0.00006190,0.00001780,0.00034700,-0.00019623,-0
 .00035259,-0.00017525,0.00000274,0.00185733,0.00100342,-0.00056392,-0.
 00129621,-0.00745573,-0.00135758,-0.00132122,-0.00137194,-0.00083803,0
 .00007425,0.00052626,0.00008679,0.00013256,-0.00029056,0.00003098,0.00
 005530,0.00011644,0.00005971,0.00004715,-0.00038543,-0.00014470,-0.000
 34981,0.00002353,-0.00004415,-0.00432136,0.00019895,-0.00035608,0.0009
 8738,0.00103421,0.01835363,-0.04048937,0.00174084,-0.00944096,-0.00323
 535,0.00915684,-0.02873461,0.00006401,-0.00002659,0.00001026,0.0000066
 9,0.00002607,-0.00000307,-0.00001731,-0.00002145,-0.00000178,0.0000823
 0,0.00024426,0.00003198,-0.00022680,0.00014520,0.00002480,0.00002903,-
 0.00006497,-0.00000872,0.00007253,0.00000668,0.00003355,-0.00003808,0.
 00005234,-0.00000594,-0.00000217,0.00000309,0.00000780,0.00001119,-0.0
 0001243,-0.00001395,0.00013477,-0.00001766,0.00000116,-0.00000830,0.00
 000341,0.00000343,-0.00000512,0.00000526,0.00000435,-0.00000293,0.,-0.
 00000110,0.00000131,-0.00000306,0.00000072,-0.00000584,0.00000068,0.00
 000242,0.00000305,-0.00000060,-0.00000117,-0.00001481,0.00000659,0.000
 02833,0.00001634,-0.00002108,0.00000274,0.00004714,-0.00006675,0.00014
 088,-0.00031310,0.00135129,0.00170042,0.00000900,-0.00037395,0.0013906
 5,0.04756190,-0.00005733,-0.00000738,-0.00002124,0.00005545,0.00005418
 ,0.00003906,-0.00003854,-0.00007382,-0.00002144,-0.00005871,0.00007449
 ,-0.00007597,-0.00001347,0.00001347,-0.00000028,0.00001313,-0.00000288
 ,-0.00000792,-0.00019393,0.00018300,0.00078323,0.00018822,0.00014220,-
 0.00001773,-0.00004548,-0.00011966,-0.00008319,0.00012183,-0.00000162,
 0.00002079,0.00033227,-0.00089068,-0.00015099,-0.00228535,-0.00383007,
 -0.00220953,-0.00045868,0.00049161,0.00031635,-0.00011554,-0.00027388,
 0.00000110,0.00003173,-0.00006026,0.00000998,0.00000927,0.00007072,0.0
 0001781,0.00001046,-0.00014778,-0.00009178,-0.00005050,-0.00001986,-0.
 00003476,0.00182333,0.00082166,-0.00062448,-0.00399366,-0.01056863,0.0
 1762800,0.00316263,-0.03104255,0.06097516,0.00386025,-0.00523708,0.011
 05641,0.00000078,-0.00001420,-0.00000646,0.00000380,0.00000378,0.00000
 578,0.00004283,-0.00014682,0.00001517,0.00001365,0.00013249,-0.0000508
 1,-0.00010612,0.00020549,-0.00007091,0.00020527,-0.00015910,-0.0000420
 6,0.00014521,0.00010538,0.00013671,-0.00020761,0.00006368,-0.00007888,
 0.00002259,-0.00002429,-0.00002597,-0.00001918,0.00001804,0.00001145,0
 .00011725,-0.00006115,0.00007943,0.00001595,0.00000121,-0.00000140,0.0
 0000865,-0.00000305,0.00000028,0.00000255,0.00000358,0.00000315,0.0000
 0284,0.00000182,0.00000082,0.00000340,0.00000196,-0.00000032,0.,0.0000
 0416,-0.00000214,-0.00000046,0.00000496,0.00001467,-0.00000316,0.00000
 303,0.00000635,-0.00001058,0.00004361,0.00000451,0.00021646,-0.0007246
 8,-0.00041248,-0.00017770,0.00026139,0.00002643,-0.00480382,0.04778463
 ,0.00007891,-0.00004743,0.00001303,-0.00001568,-0.00002941,0.00001295,
 0.00006565,0.00011789,0.00001763,0.00006919,-0.00013181,0.00002725,0.0
 0001951,0.00004410,0.00000222,0.00003988,-0.00002484,0.00000558,0.0002
 8427,-0.00038071,-0.00012940,-0.00032220,-0.00023762,-0.00000316,0.000
 07043,0.00010838,0.00000688,-0.00013574,-0.00000619,-0.00000674,-0.000
 39243,0.00080337,-0.00002102,0.00209386,-0.00109501,-0.00175023,0.0001
 5743,-0.00032681,0.00032472,0.00019216,0.00036868,0.00028105,-0.000053
 36,0.00010244,-0.00001385,-0.00000081,-0.00007271,-0.00000661,-0.00013
 597,0.00033872,0.00016382,0.00020063,0.00003419,-0.00016461,-0.0011483
 7,-0.00186887,0.00009639,0.00113002,0.00394859,-0.00611695,-0.01531273
 ,0.05313130,-0.26356720,-0.00282264,0.00266667,-0.00616137,-0.00002723
 ,0.00000664,-0.00001514,0.00000938,-0.00000268,0.00000931,-0.00003176,
 0.00012998,-0.00001585,-0.00004782,-0.00028972,-0.00001284,0.00029575,
 -0.00018669,-0.00011014,-0.00009968,0.00016901,-0.00000614,-0.00011584
 ,-0.00009369,-0.00008036,0.00014465,-0.00005244,0.00006807,0.00000357,
 0.00000058,-0.00000495,-0.00001145,0.00001379,0.00001506,-0.00012310,0
 .00000844,-0.00001220,-0.00000041,-0.00000187,0.00000061,-0.00000174,0
 .00000012,0.00000012,-0.00000122,-0.00000330,0.00000188,0.00000079,-0.
 00000106,0.00000150,0.00000012,-0.00000077,0.00000221,0.00000298,0.000
 00209,0.00000195,0.00000077,0.00000136,-0.00000633,-0.00000074,-0.0000
 0207,-0.00000164,0.00002852,-0.00003182,-0.00001091,0.00001879,0.00026
 915,0.00015309,-0.00069529,0.00031845,0.00010832,0.01535573,-0.0590253
 7,0.29484418,-0.00029791,0.00018079,-0.00006329,0.00005888,0.00020915,
 -0.00007547,0.00032375,0.00024037,-0.00003678,0.00052886,-0.00037417,0
 .00010884,0.00014349,-0.00010911,0.00002861,-0.00017872,0.00000826,-0.
 00000352,0.00059519,-0.00134131,-0.00071402,-0.00094616,-0.00064895,0.
 00024671,0.00011661,0.00043531,0.00010344,-0.00051210,-0.00008357,-0.0
 0004931,0.00190657,0.00226626,0.00015364,-0.00117038,-0.00528056,0.006
 89415,-0.00213704,-0.00107988,0.00090471,0.00028460,0.00108564,-0.0003
 2548,0.00008864,-0.00017683,0.00001253,0.00002131,0.00003609,0.0000500
 2,-0.00000515,-0.00010394,0.00004583,-0.00047132,-0.00005153,-0.000014
 64,-0.00421483,0.00068584,-0.00129446,0.00463448,-0.01318724,-0.011964
 87,-0.05358740,0.04169664,0.01700979,-0.00639702,0.02669523,0.01144554
 ,0.00006922,-0.00000117,0.00002568,-0.00001428,0.00001802,-0.00002037,
 -0.00001826,0.00008509,0.00003149,-0.00006891,-0.00008204,-0.00006413,
 0.00004505,-0.00013191,-0.00001019,-0.00010265,0.00021573,0.00000014,-
 0.00004446,-0.00009118,-0.00004613,0.00010073,0.00008338,0.00003132,-0
 .00000801,0.00000422,0.00001973,0.00000610,0.00001929,0.00013589,-0.00
 005643,-0.00008646,0.00001906,0.00000226,0.00000154,0.00000757,0.00000
 175,0.00000329,0.00000242,-0.00000018,0.00000265,-0.00000216,0.0000056
 8,-0.00000209,-0.00000247,-0.00000249,-0.00000001,0.00000450,-0.000000
 36,0.00000082,0.00000709,-0.00000945,0.00000403,-0.00002209,0.00001129
 ,-0.00001790,-0.00000518,0.00005176,-0.00007288,-0.00006013,0.00001853
 ,0.00041995,-0.00187717,0.00052595,-0.00098034,-0.00059118,0.00027668,
 0.00222999,0.00123322,0.06042612,-0.00000637,-0.00001498,0.00000443,-0
 .00009556,0.00015898,-0.00007372,0.00028281,-0.00002932,0.00003242,0.0
 0001388,-0.00009760,0.00007137,0.00002056,-0.00002919,0.00000734,-0.00
 002009,-0.00000865,-0.00001056,-0.00002003,-0.00086855,-0.00048631,-0.
 00044390,0.00003868,-0.00000437,0.00000851,-0.00002221,0.00005748,-0.0
 0007849,0.00006613,-0.00002064,0.00061881,0.00062359,0.00020381,-0.002
 29519,-0.00219542,0.00223805,-0.00081703,-0.00029069,-0.00044593,0.000
 10842,0.00050151,0.00014760,0.00000074,0.00002972,-0.00001163,0.000043
 98,0.00000665,0.00002247,-0.00007528,0.00011374,0.00010884,-0.00021611
 ,-0.00004386,0.00000681,0.00242757,0.00221699,-0.00084112,-0.00094685,
 -0.01965870,-0.00516261,0.04955546,-0.22845198,-0.09633587,0.00447728,
 -0.00994131,-0.00172215,0.00001287,-0.00000651,0.00001290,-0.00002743,
 0.00002373,-0.00000856,0.00002233,0.00000672,0.00000687,-0.00003021,-0
 .00023267,-0.00003315,0.00010066,-0.00005304,-0.00000258,-0.00006538,0
 .00002748,0.00000704,-0.00002973,0.00000471,-0.00001174,0.00004290,0.0
 0005388,-0.00000200,0.00000748,-0.00000970,-0.00000725,-0.00003149,0.0
 0008491,0.00010157,-0.00011709,-0.00006365,0.00002825,0.00001329,0.000
 00109,0.00000291,0.00000626,-0.00000093,0.00000075,-0.00000227,0.00000
 393,0.00000407,0.00000261,-0.00000205,-0.00000405,0.00000228,0.0000008
 9,0.00000233,-0.00000361,0.00000159,0.00000351,0.00000012,-0.00000079,
 -0.00001321,-0.00000387,0.00000466,-0.00000260,0.00000314,0.00002609,0
 .00000072,0.00006875,-0.00039545,0.00052291,0.00031907,0.00030986,0.00
 039835,-0.00010933,0.00291891,0.00132894,-0.05272448,0.25519282,-0.000
 10059,0.00003801,-0.00001198,0.00002499,0.00001679,0.00001770,-0.00001
 343,0.00004573,-0.00002891,0.00010659,-0.00002039,-0.00001462,0.000010
 53,-0.00002396,-0.00000210,-0.00003553,0.00003018,-0.00000095,0.000178
 69,0.00010168,0.00032057,0.00010268,0.00004449,0.00002366,-0.00005883,
 -0.00000945,-0.00002816,-0.00000327,-0.00003745,0.00000118,0.00018996,
 0.00038962,-0.00011050,0.00105814,0.00005507,-0.00278108,-0.00011321,0
 .00052555,0.00051792,-0.00005892,-0.00025223,0.00011351,0.00001784,-0.
 00007470,0.00000121,0.00005836,0.00002674,0.00004112,-0.00003101,-0.00
 007036,-0.00001930,-0.00000579,0.00002640,-0.00013386,-0.00143408,-0.0
 0040205,-0.00063039,0.00112456,0.00909881,-0.00087435,0.01986139,-0.09
 167365,-0.06169212,-0.00359629,0.01047488,0.00211338,0.00001601,-0.000
 01345,0.00000262,-0.00000263,0.00002158,-0.00000914,-0.00003301,0.0000
 0632,-0.00001881,0.00003687,0.00002304,0.00003904,0.00000569,-0.000092
 82,-0.00000297,0.00005778,0.00010882,0.00008205,-0.00005322,0.00000789
 ,-0.00006827,0.00004186,-0.00004421,0.00001532,-0.00001168,0.00001967,
 0.00002541,0.00003701,-0.00004188,-0.00008781,0.00000440,0.00008070,-0
 .00002842,-0.00002429,-0.00000088,-0.00000010,-0.00001243,0.00000467,0
 .00000284,-0.00000733,-0.00000354,0.00000018,-0.00000463,-0.00000458,-
 0.00000586,-0.00000670,-0.00000162,-0.00000007,0.00000088,-0.00000641,
 -0.00000071,-0.00000370,-0.00000498,0.00000361,0.00000804,-0.00000809,
 0.00000210,0.00000512,-0.00002469,-0.00002606,-0.00016121,0.00032217,-
 0.00059553,0.00061716,-0.00043925,0.00036913,0.00348611,-0.02809652,-0
 .01794019,-0.02127887,0.09987833,0.08141971\\-0.00000787,-0.00000204,-
 0.00000240,0.00000813,0.00001783,0.00000544,0.00000426,-0.00001174,0.0
 0000922,-0.00000320,0.00001191,-0.00000303,0.00000300,0.00000048,0.000
 00118,0.00000121,-0.00000240,0.00000064,-0.00000730,0.00000628,-0.0000
 1064,0.00000018,0.00000604,0.00000229,-0.00000035,-0.00000099,-0.00000
 407,0.00000822,-0.00000434,-0.00000287,-0.00000330,-0.00001539,0.00000
 346,0.00002451,-0.00006253,0.00001301,-0.00002185,0.00002206,0.0000008
 6,-0.00001150,-0.00000471,-0.00000416,-0.00000185,-0.00001287,0.000002
 48,0.00001542,0.00001063,0.00000006,-0.00001428,-0.00000688,-0.0000011
 7,0.00000691,-0.00001275,0.00000222,0.00001464,0.00000837,-0.00000505,
 0.00003832,0.00006833,-0.00002762,0.00004567,-0.00004145,0.00003972,-0
 .00007463,-0.00000064,-0.00000867,-0.00000387,0.00000392,0.00000434,-0
 .00000373,0.00000057,0.00000168,0.00000511,-0.00001232,0.00000417,-0.0
 0001016,-0.00000060,-0.00000955,0.00000511,0.00000713,0.00001366,0.000
 00708,-0.00000914,-0.00000116,0.00000537,0.00000949,0.00000975,-0.0000
 1210,0.00000387,-0.00000605,0.00000045,-0.00000131,0.00000302,0.000000
 21,0.00000068,0.00000050,-0.00000162,0.00000240,-0.00000165,-0.0000019
 4,-0.00000246,0.00000091,0.00000068,0.00000054,0.00000269,0.00000156,-
 0.00000258,0.00000093,0.00000006,0.00000061,0.00000126,-0.00000108,0.0
 0000114,-0.00000039,0.00000190,-0.00000003,0.00000063,-0.00000210,-0.0
 0000022,-0.00000060,0.00000259,0.00000218,-0.00000167,0.00000118,0.000
 00353,-0.00000040,-0.00000220,0.00000223,-0.00000660,-0.00000519,0.000
 00612,-0.00000951,-0.00000379,-0.00000160,-0.00002469,-0.00000784,0.00
 001267,0.00000785\\\@


 THE PROMISED LAND ALWAYS LIES ON THE OTHER SIDE OF A WILDERNESS.

                         -- HAVELOCK ELLIS
 Job cpu time:       0 days 22 hours 44 minutes 37.8 seconds.
 Elapsed time:       0 days  1 hours  8 minutes 25.4 seconds.
 File lengths (MBytes):  RWF=   2287 Int=      0 D2E=      0 Chk=     53 Scr=      1
 Normal termination of Gaussian 16 at Wed Jun 12 17:56:09 2019.
