 Entering Gaussian System, Link 0=/share/apps/gaussian16/g16/g16
 Initial command:
 /share/apps/gaussian16/g16/l1.exe "/home/amen01//scratch/458/Gau-41955.inp" -scrdir="/home/amen01//scratch/458/"
 Entering Link 1 = /share/apps/gaussian16/g16/l1.exe PID=     41956.
  
 Copyright (c) 1988-2017, Gaussian, Inc.  All Rights Reserved.
  
 This is part of the Gaussian(R) 16 program.  It is based on
 the Gaussian(R) 09 system (copyright 2009, Gaussian, Inc.),
 the Gaussian(R) 03 system (copyright 2003, Gaussian, Inc.),
 the Gaussian(R) 98 system (copyright 1998, Gaussian, Inc.),
 the Gaussian(R) 94 system (copyright 1995, Gaussian, Inc.),
 the Gaussian 92(TM) system (copyright 1992, Gaussian, Inc.),
 the Gaussian 90(TM) system (copyright 1990, Gaussian, Inc.),
 the Gaussian 88(TM) system (copyright 1988, Gaussian, Inc.),
 the Gaussian 86(TM) system (copyright 1986, Carnegie Mellon
 University), and the Gaussian 82(TM) system (copyright 1983,
 Carnegie Mellon University). Gaussian is a federally registered
 trademark of Gaussian, Inc.
  
 This software contains proprietary and confidential information,
 including trade secrets, belonging to Gaussian, Inc.
  
 This software is provided under written license and may be
 used, copied, transmitted, or stored only in accord with that
 written license.
  
 The following legend is applicable only to US Government
 contracts under FAR:
  
                    RESTRICTED RIGHTS LEGEND
  
 Use, reproduction and disclosure by the US Government is
 subject to restrictions as set forth in subparagraphs (a)
 and (c) of the Commercial Computer Software - Restricted
 Rights clause in FAR 52.227-19.
  
 Gaussian, Inc.
 340 Quinnipiac St., Bldg. 40, Wallingford CT 06492
  
  
 ---------------------------------------------------------------
 Warning -- This program may not be used in any manner that
 competes with the business of Gaussian, Inc. or will provide
 assistance to any competitor of Gaussian, Inc.  The licensee
 of this program is prohibited from giving any competitor of
 Gaussian, Inc. access to this program.  By using this program,
 the user acknowledges that Gaussian, Inc. is engaged in the
 business of creating and licensing software in the field of
 computational chemistry and represents and warrants to the
 licensee that it is not a competitor of Gaussian, Inc. and that
 it will not use this program in any manner prohibited above.
 ---------------------------------------------------------------
  

 Cite this work as:
 Gaussian 16, Revision B.01,
 M. J. Frisch, G. W. Trucks, H. B. Schlegel, G. E. Scuseria, 
 M. A. Robb, J. R. Cheeseman, G. Scalmani, V. Barone, 
 G. A. Petersson, H. Nakatsuji, X. Li, M. Caricato, A. V. Marenich, 
 J. Bloino, B. G. Janesko, R. Gomperts, B. Mennucci, H. P. Hratchian, 
 J. V. Ortiz, A. F. Izmaylov, J. L. Sonnenberg, D. Williams-Young, 
 F. Ding, F. Lipparini, F. Egidi, J. Goings, B. Peng, A. Petrone, 
 T. Henderson, D. Ranasinghe, V. G. Zakrzewski, J. Gao, N. Rega, 
 G. Zheng, W. Liang, M. Hada, M. Ehara, K. Toyota, R. Fukuda, 
 J. Hasegawa, M. Ishida, T. Nakajima, Y. Honda, O. Kitao, H. Nakai, 
 T. Vreven, K. Throssell, J. A. Montgomery, Jr., J. E. Peralta, 
 F. Ogliaro, M. J. Bearpark, J. J. Heyd, E. N. Brothers, K. N. Kudin, 
 V. N. Staroverov, T. A. Keith, R. Kobayashi, J. Normand, 
 K. Raghavachari, A. P. Rendell, J. C. Burant, S. S. Iyengar, 
 J. Tomasi, M. Cossi, J. M. Millam, M. Klene, C. Adamo, R. Cammi, 
 J. W. Ochterski, R. L. Martin, K. Morokuma, O. Farkas, 
 J. B. Foresman, and D. J. Fox, Gaussian, Inc., Wallingford CT, 2016.
 
 ******************************************
 Gaussian 16:  ES64L-G16RevB.01 20-Dec-2017
                12-Jun-2019 
 ******************************************
 %nprocshared=20
 Will use up to   20 processors via shared memory.
 %mem=100GB
 %chk=7-memb-carb-1b.chk
 -------------------------------------------
 # opt freq b3lyp/6-311+g(d,p) int=grid=fine
 -------------------------------------------
 1/18=20,19=15,26=3,38=1/1,3;
 2/9=110,12=2,17=6,18=5,40=1/2;
 3/5=4,6=6,7=111,11=2,25=1,30=1,71=1,74=-5,75=-4/1,2,3;
 4//1;
 5/5=2,38=5/2;
 6/7=2,8=2,9=2,10=2,28=1/1;
 7//1,2,3,16;
 1/18=20,19=15,26=3/3(2);
 2/9=110/2;
 99//99;
 2/9=110/2;
 3/5=4,6=6,7=111,11=2,25=1,30=1,71=1,74=-5,75=-4/1,2,3;
 4/5=5,16=3,69=1/1;
 5/5=2,38=5/2;
 7//1,2,3,16;
 1/18=20,19=15,26=3/3(-5);
 2/9=110/2;
 6/7=2,8=2,9=2,10=2,19=2,28=1/1;
 99/9=1/99;
 --------------
 7-memb-carb-1b
 --------------
 Symbolic Z-matrix:
 Charge =  0 Multiplicity = 1
 C                    -6.92577   0.10656  -0.31048 
 C                    -5.7076    0.73202  -0.11542 
 C                    -4.58563   0.02326   0.13987 
 C                    -4.5152   -1.36134   0.24257 
 C                    -6.93187  -1.31539  -0.24409 
 C                    -5.74315  -2.03958   0.04069 
 C                    -3.53643   0.86587   0.24833 
 C                    -2.24902   0.39657   0.46256 
 C                    -2.10566  -1.00838   0.63505 
 C                    -3.22437  -1.8772    0.52059 
 C                    -3.95258   2.17159   0.01023 
 C                    -2.93412   3.10522  -0.22958 
 C                    -1.58094   2.71982   0.05737 
 C                    -1.25944   1.38988   0.43498 
 C                    -7.98587   0.98918  -0.54919 
 C                    -7.80867   2.39317  -0.42827 
 C                    -6.53914   2.97753  -0.08636 
 C                    -5.43086   2.09853  -0.09951 
 C                    -0.54776   3.65494  -0.10711 
 C                    -3.13888   4.36734  -0.82192 
 C                    -2.09114   5.27376  -0.99856 
 C                    -0.80192   4.9276   -0.61684 
 C                    -8.93047   3.2095   -0.59657 
 C                    -8.87057   4.57696  -0.34766 
 C                    -7.70376   5.15231   0.15342 
 C                    -6.54538   4.35871   0.31592 
 C                    -5.46517   4.97004   0.97703 
 C                    -5.41422   6.311     1.39514 
 C                    -7.69599   6.50376   0.52937 
 C                    -6.57013   7.07435   1.12554 
 H                    -6.59718   8.12471   1.41428 
 H                    -5.15768   6.43876   2.47571 
 H                    -8.5789    7.12291   0.38369 
 H                    -9.77066   5.17326  -0.48065 
 H                    -9.88483   2.78311  -0.90054 
 H                    -8.97137   0.57867  -0.75964 
 H                    -7.86168  -1.85857  -0.39573 
 H                    -5.77874  -3.12462   0.09627 
 H                    -3.08066  -2.94952   0.62658 
 H                    -1.12075  -1.432     0.81698 
 H                    -0.22377   1.10854   0.6114 
 H                     0.4799    3.38697   0.12996 
 H                     0.0144    5.63199  -0.75228 
 H                    -2.28699   6.24507  -1.44502 
 H                    -4.12193   4.64872  -1.18934 
 H                    -4.5251    6.87546   1.02275 
 

 GradGradGradGradGradGradGradGradGradGradGradGradGradGradGradGradGradGrad
 Berny optimization.
 Initialization pass.
                           ----------------------------
                           !    Initial Parameters    !
                           ! (Angstroms and Degrees)  !
 --------------------------                            --------------------------
 ! Name  Definition              Value          Derivative Info.                !
 --------------------------------------------------------------------------------
 ! R1    R(1,2)                  1.3832         estimate D2E/DX2                !
 ! R2    R(1,5)                  1.4235         estimate D2E/DX2                !
 ! R3    R(1,15)                 1.3999         estimate D2E/DX2                !
 ! R4    R(2,3)                  1.3514         estimate D2E/DX2                !
 ! R5    R(2,18)                 1.3943         estimate D2E/DX2                !
 ! R6    R(3,4)                  1.3902         estimate D2E/DX2                !
 ! R7    R(3,7)                  1.35           estimate D2E/DX2                !
 ! R8    R(4,6)                  1.4173         estimate D2E/DX2                !
 ! R9    R(4,10)                 1.4176         estimate D2E/DX2                !
 ! R10   R(5,6)                  1.4208         estimate D2E/DX2                !
 ! R11   R(5,37)                 1.0875         estimate D2E/DX2                !
 ! R12   R(6,38)                 1.087          estimate D2E/DX2                !
 ! R13   R(7,8)                  1.3869         estimate D2E/DX2                !
 ! R14   R(7,11)                 1.391          estimate D2E/DX2                !
 ! R15   R(8,9)                  1.4227         estimate D2E/DX2                !
 ! R16   R(8,14)                 1.4024         estimate D2E/DX2                !
 ! R17   R(9,10)                 1.4211         estimate D2E/DX2                !
 ! R18   R(9,40)                 1.0875         estimate D2E/DX2                !
 ! R19   R(10,39)                1.0871         estimate D2E/DX2                !
 ! R20   R(11,12)                1.4023         estimate D2E/DX2                !
 ! R21   R(11,18)                1.4841         estimate D2E/DX2                !
 ! R22   R(12,13)                1.436          estimate D2E/DX2                !
 ! R23   R(12,20)                1.4092         estimate D2E/DX2                !
 ! R24   R(13,14)                1.4194         estimate D2E/DX2                !
 ! R25   R(13,19)                1.4032         estimate D2E/DX2                !
 ! R26   R(14,41)                1.0876         estimate D2E/DX2                !
 ! R27   R(15,16)                1.4203         estimate D2E/DX2                !
 ! R28   R(15,36)                1.0881         estimate D2E/DX2                !
 ! R29   R(16,17)                1.4388         estimate D2E/DX2                !
 ! R30   R(16,23)                1.3976         estimate D2E/DX2                !
 ! R31   R(17,18)                1.4146         estimate D2E/DX2                !
 ! R32   R(17,26)                1.4386         estimate D2E/DX2                !
 ! R33   R(19,22)                1.3943         estimate D2E/DX2                !
 ! R34   R(19,42)                1.0882         estimate D2E/DX2                !
 ! R35   R(20,21)                1.3966         estimate D2E/DX2                !
 ! R36   R(20,45)                1.0865         estimate D2E/DX2                !
 ! R37   R(21,22)                1.3884         estimate D2E/DX2                !
 ! R38   R(21,44)                1.0868         estimate D2E/DX2                !
 ! R39   R(22,43)                1.0867         estimate D2E/DX2                !
 ! R40   R(23,24)                1.3912         estimate D2E/DX2                !
 ! R41   R(23,35)                1.0886         estimate D2E/DX2                !
 ! R42   R(24,25)                1.3941         estimate D2E/DX2                !
 ! R43   R(24,34)                1.0879         estimate D2E/DX2                !
 ! R44   R(25,26)                1.4135         estimate D2E/DX2                !
 ! R45   R(25,29)                1.4028         estimate D2E/DX2                !
 ! R46   R(26,27)                1.4063         estimate D2E/DX2                !
 ! R47   R(27,28)                1.4056         estimate D2E/DX2                !
 ! R48   R(28,30)                1.4112         estimate D2E/DX2                !
 ! R49   R(28,32)                1.1179         estimate D2E/DX2                !
 ! R50   R(28,46)                1.1171         estimate D2E/DX2                !
 ! R51   R(29,30)                1.3959         estimate D2E/DX2                !
 ! R52   R(29,33)                1.0882         estimate D2E/DX2                !
 ! R53   R(30,31)                1.0897         estimate D2E/DX2                !
 ! A1    A(2,1,5)              116.6725         estimate D2E/DX2                !
 ! A2    A(2,1,15)             113.9454         estimate D2E/DX2                !
 ! A3    A(5,1,15)             129.3821         estimate D2E/DX2                !
 ! A4    A(1,2,3)              121.3765         estimate D2E/DX2                !
 ! A5    A(1,2,18)             128.2847         estimate D2E/DX2                !
 ! A6    A(3,2,18)             110.3074         estimate D2E/DX2                !
 ! A7    A(2,3,4)              125.3356         estimate D2E/DX2                !
 ! A8    A(2,3,7)              109.4546         estimate D2E/DX2                !
 ! A9    A(4,3,7)              125.1925         estimate D2E/DX2                !
 ! A10   A(3,4,6)              114.9745         estimate D2E/DX2                !
 ! A11   A(3,4,10)             115.0271         estimate D2E/DX2                !
 ! A12   A(6,4,10)             129.9954         estimate D2E/DX2                !
 ! A13   A(1,5,6)              120.992          estimate D2E/DX2                !
 ! A14   A(1,5,37)             119.7425         estimate D2E/DX2                !
 ! A15   A(6,5,37)             119.2567         estimate D2E/DX2                !
 ! A16   A(4,6,5)              120.6329         estimate D2E/DX2                !
 ! A17   A(4,6,38)             119.9179         estimate D2E/DX2                !
 ! A18   A(5,6,38)             119.4477         estimate D2E/DX2                !
 ! A19   A(3,7,8)              121.5082         estimate D2E/DX2                !
 ! A20   A(3,7,11)             109.8541         estimate D2E/DX2                !
 ! A21   A(8,7,11)             128.4472         estimate D2E/DX2                !
 ! A22   A(7,8,9)              116.5132         estimate D2E/DX2                !
 ! A23   A(7,8,14)             114.3494         estimate D2E/DX2                !
 ! A24   A(9,8,14)             129.1035         estimate D2E/DX2                !
 ! A25   A(8,9,10)             120.9739         estimate D2E/DX2                !
 ! A26   A(8,9,40)             119.75           estimate D2E/DX2                !
 ! A27   A(10,9,40)            119.2285         estimate D2E/DX2                !
 ! A28   A(4,10,9)             120.673          estimate D2E/DX2                !
 ! A29   A(4,10,39)            119.8971         estimate D2E/DX2                !
 ! A30   A(9,10,39)            119.4165         estimate D2E/DX2                !
 ! A31   A(7,11,12)            115.9106         estimate D2E/DX2                !
 ! A32   A(7,11,18)            105.334          estimate D2E/DX2                !
 ! A33   A(12,11,18)           138.0338         estimate D2E/DX2                !
 ! A34   A(11,12,13)           118.1348         estimate D2E/DX2                !
 ! A35   A(11,12,20)           124.2403         estimate D2E/DX2                !
 ! A36   A(13,12,20)           117.472          estimate D2E/DX2                !
 ! A37   A(12,13,14)           121.204          estimate D2E/DX2                !
 ! A38   A(12,13,19)           119.444          estimate D2E/DX2                !
 ! A39   A(14,13,19)           119.2635         estimate D2E/DX2                !
 ! A40   A(8,14,13)            120.6012         estimate D2E/DX2                !
 ! A41   A(8,14,41)            119.0473         estimate D2E/DX2                !
 ! A42   A(13,14,41)           120.0805         estimate D2E/DX2                !
 ! A43   A(1,15,16)            120.947          estimate D2E/DX2                !
 ! A44   A(1,15,36)            118.7478         estimate D2E/DX2                !
 ! A45   A(16,15,36)           120.1588         estimate D2E/DX2                !
 ! A46   A(15,16,17)           122.1278         estimate D2E/DX2                !
 ! A47   A(15,16,23)           117.8406         estimate D2E/DX2                !
 ! A48   A(17,16,23)           119.9765         estimate D2E/DX2                !
 ! A49   A(16,17,18)           115.8945         estimate D2E/DX2                !
 ! A50   A(16,17,26)           116.9086         estimate D2E/DX2                !
 ! A51   A(18,17,26)           127.0548         estimate D2E/DX2                !
 ! A52   A(2,18,11)            104.2869         estimate D2E/DX2                !
 ! A53   A(2,18,17)            116.9739         estimate D2E/DX2                !
 ! A54   A(11,18,17)           138.5111         estimate D2E/DX2                !
 ! A55   A(13,19,22)           121.1256         estimate D2E/DX2                !
 ! A56   A(13,19,42)           120.3789         estimate D2E/DX2                !
 ! A57   A(22,19,42)           118.4617         estimate D2E/DX2                !
 ! A58   A(12,20,21)           121.698          estimate D2E/DX2                !
 ! A59   A(12,20,45)           120.3684         estimate D2E/DX2                !
 ! A60   A(21,20,45)           117.8981         estimate D2E/DX2                !
 ! A61   A(20,21,22)           120.0015         estimate D2E/DX2                !
 ! A62   A(20,21,44)           119.789          estimate D2E/DX2                !
 ! A63   A(22,21,44)           120.2061         estimate D2E/DX2                !
 ! A64   A(19,22,21)           119.8247         estimate D2E/DX2                !
 ! A65   A(19,22,43)           120.0186         estimate D2E/DX2                !
 ! A66   A(21,22,43)           120.1102         estimate D2E/DX2                !
 ! A67   A(16,23,24)           121.2003         estimate D2E/DX2                !
 ! A68   A(16,23,35)           120.5674         estimate D2E/DX2                !
 ! A69   A(24,23,35)           118.2104         estimate D2E/DX2                !
 ! A70   A(23,24,25)           120.3973         estimate D2E/DX2                !
 ! A71   A(23,24,34)           118.7695         estimate D2E/DX2                !
 ! A72   A(25,24,34)           120.6783         estimate D2E/DX2                !
 ! A73   A(24,25,26)           119.7026         estimate D2E/DX2                !
 ! A74   A(24,25,29)           119.9047         estimate D2E/DX2                !
 ! A75   A(26,25,29)           120.367          estimate D2E/DX2                !
 ! A76   A(17,26,25)           120.693          estimate D2E/DX2                !
 ! A77   A(17,26,27)           123.0584         estimate D2E/DX2                !
 ! A78   A(25,26,27)           116.0696         estimate D2E/DX2                !
 ! A79   A(26,27,28)           125.621          estimate D2E/DX2                !
 ! A80   A(27,28,30)           115.4383         estimate D2E/DX2                !
 ! A81   A(27,28,32)           113.8835         estimate D2E/DX2                !
 ! A82   A(27,28,46)           114.3162         estimate D2E/DX2                !
 ! A83   A(30,28,32)           108.1076         estimate D2E/DX2                !
 ! A84   A(30,28,46)           108.3569         estimate D2E/DX2                !
 ! A85   A(32,28,46)            94.6935         estimate D2E/DX2                !
 ! A86   A(25,29,30)           120.8457         estimate D2E/DX2                !
 ! A87   A(25,29,33)           120.5167         estimate D2E/DX2                !
 ! A88   A(30,29,33)           118.6207         estimate D2E/DX2                !
 ! A89   A(28,30,29)           121.4073         estimate D2E/DX2                !
 ! A90   A(28,30,31)           119.4143         estimate D2E/DX2                !
 ! A91   A(29,30,31)           119.1544         estimate D2E/DX2                !
 ! D1    D(5,1,2,3)             -0.7137         estimate D2E/DX2                !
 ! D2    D(5,1,2,18)          -178.4708         estimate D2E/DX2                !
 ! D3    D(15,1,2,3)           179.3396         estimate D2E/DX2                !
 ! D4    D(15,1,2,18)            1.5824         estimate D2E/DX2                !
 ! D5    D(2,1,5,6)              1.436          estimate D2E/DX2                !
 ! D6    D(2,1,5,37)          -179.6497         estimate D2E/DX2                !
 ! D7    D(15,1,5,6)          -178.6269         estimate D2E/DX2                !
 ! D8    D(15,1,5,37)            0.2874         estimate D2E/DX2                !
 ! D9    D(2,1,15,16)           -7.2265         estimate D2E/DX2                !
 ! D10   D(2,1,15,36)          177.1655         estimate D2E/DX2                !
 ! D11   D(5,1,15,16)          172.835          estimate D2E/DX2                !
 ! D12   D(5,1,15,36)           -2.773          estimate D2E/DX2                !
 ! D13   D(1,2,3,4)             -0.3858         estimate D2E/DX2                !
 ! D14   D(1,2,3,7)            178.161          estimate D2E/DX2                !
 ! D15   D(18,2,3,4)           177.7371         estimate D2E/DX2                !
 ! D16   D(18,2,3,7)            -3.7161         estimate D2E/DX2                !
 ! D17   D(1,2,18,11)         -174.3828         estimate D2E/DX2                !
 ! D18   D(1,2,18,17)           10.0914         estimate D2E/DX2                !
 ! D19   D(3,2,18,11)            7.6589         estimate D2E/DX2                !
 ! D20   D(3,2,18,17)         -167.8669         estimate D2E/DX2                !
 ! D21   D(2,3,4,6)              0.7225         estimate D2E/DX2                !
 ! D22   D(2,3,4,10)          -179.8388         estimate D2E/DX2                !
 ! D23   D(7,3,4,6)           -177.6007         estimate D2E/DX2                !
 ! D24   D(7,3,4,10)             1.838          estimate D2E/DX2                !
 ! D25   D(2,3,7,8)           -177.6712         estimate D2E/DX2                !
 ! D26   D(2,3,7,11)            -2.2867         estimate D2E/DX2                !
 ! D27   D(4,3,7,8)              0.8782         estimate D2E/DX2                !
 ! D28   D(4,3,7,11)           176.2626         estimate D2E/DX2                !
 ! D29   D(3,4,6,5)              0.0442         estimate D2E/DX2                !
 ! D30   D(3,4,6,38)           179.5973         estimate D2E/DX2                !
 ! D31   D(10,4,6,5)          -179.2919         estimate D2E/DX2                !
 ! D32   D(10,4,6,38)            0.2612         estimate D2E/DX2                !
 ! D33   D(3,4,10,9)            -1.9113         estimate D2E/DX2                !
 ! D34   D(3,4,10,39)          179.4308         estimate D2E/DX2                !
 ! D35   D(6,4,10,9)           177.4245         estimate D2E/DX2                !
 ! D36   D(6,4,10,39)           -1.2334         estimate D2E/DX2                !
 ! D37   D(1,5,6,4)             -1.1214         estimate D2E/DX2                !
 ! D38   D(1,5,6,38)           179.3235         estimate D2E/DX2                !
 ! D39   D(37,5,6,4)           179.9591         estimate D2E/DX2                !
 ! D40   D(37,5,6,38)            0.404          estimate D2E/DX2                !
 ! D41   D(3,7,8,9)             -3.3641         estimate D2E/DX2                !
 ! D42   D(3,7,8,14)           174.713          estimate D2E/DX2                !
 ! D43   D(11,7,8,9)          -177.8184         estimate D2E/DX2                !
 ! D44   D(11,7,8,14)            0.2587         estimate D2E/DX2                !
 ! D45   D(3,7,11,12)         -165.1732         estimate D2E/DX2                !
 ! D46   D(3,7,11,18)            6.8646         estimate D2E/DX2                !
 ! D47   D(8,7,11,12)            9.8014         estimate D2E/DX2                !
 ! D48   D(8,7,11,18)         -178.1608         estimate D2E/DX2                !
 ! D49   D(7,8,9,10)             3.1822         estimate D2E/DX2                !
 ! D50   D(7,8,9,40)          -179.3452         estimate D2E/DX2                !
 ! D51   D(14,8,9,10)         -174.5602         estimate D2E/DX2                !
 ! D52   D(14,8,9,40)            2.9124         estimate D2E/DX2                !
 ! D53   D(7,8,14,13)           -7.0267         estimate D2E/DX2                !
 ! D54   D(7,8,14,41)          178.9484         estimate D2E/DX2                !
 ! D55   D(9,8,14,13)          170.7559         estimate D2E/DX2                !
 ! D56   D(9,8,14,41)           -3.269          estimate D2E/DX2                !
 ! D57   D(8,9,10,4)            -0.5558         estimate D2E/DX2                !
 ! D58   D(8,9,10,39)          178.1084         estimate D2E/DX2                !
 ! D59   D(40,9,10,4)         -178.0414         estimate D2E/DX2                !
 ! D60   D(40,9,10,39)           0.6228         estimate D2E/DX2                !
 ! D61   D(7,11,12,13)         -12.5849         estimate D2E/DX2                !
 ! D62   D(7,11,12,20)         162.7984         estimate D2E/DX2                !
 ! D63   D(18,11,12,13)        178.9389         estimate D2E/DX2                !
 ! D64   D(18,11,12,20)         -5.6778         estimate D2E/DX2                !
 ! D65   D(7,11,18,2)           -8.6653         estimate D2E/DX2                !
 ! D66   D(7,11,18,17)         165.3107         estimate D2E/DX2                !
 ! D67   D(12,11,18,2)         160.5963         estimate D2E/DX2                !
 ! D68   D(12,11,18,17)        -25.4278         estimate D2E/DX2                !
 ! D69   D(11,12,13,14)          6.6964         estimate D2E/DX2                !
 ! D70   D(11,12,13,19)       -176.7484         estimate D2E/DX2                !
 ! D71   D(20,12,13,14)       -169.0026         estimate D2E/DX2                !
 ! D72   D(20,12,13,19)          7.5526         estimate D2E/DX2                !
 ! D73   D(11,12,20,21)        177.9867         estimate D2E/DX2                !
 ! D74   D(11,12,20,45)         -4.2259         estimate D2E/DX2                !
 ! D75   D(13,12,20,21)         -6.6018         estimate D2E/DX2                !
 ! D76   D(13,12,20,45)        171.1856         estimate D2E/DX2                !
 ! D77   D(12,13,14,8)           3.7073         estimate D2E/DX2                !
 ! D78   D(12,13,14,41)        177.6706         estimate D2E/DX2                !
 ! D79   D(19,13,14,8)        -172.8539         estimate D2E/DX2                !
 ! D80   D(19,13,14,41)          1.1093         estimate D2E/DX2                !
 ! D81   D(12,13,19,22)         -3.7046         estimate D2E/DX2                !
 ! D82   D(12,13,19,42)        178.4455         estimate D2E/DX2                !
 ! D83   D(14,13,19,22)        172.918          estimate D2E/DX2                !
 ! D84   D(14,13,19,42)         -4.9319         estimate D2E/DX2                !
 ! D85   D(1,15,16,17)           1.3457         estimate D2E/DX2                !
 ! D86   D(1,15,16,23)        -175.9519         estimate D2E/DX2                !
 ! D87   D(36,15,16,17)        176.8921         estimate D2E/DX2                !
 ! D88   D(36,15,16,23)         -0.4055         estimate D2E/DX2                !
 ! D89   D(15,16,17,18)         10.3088         estimate D2E/DX2                !
 ! D90   D(15,16,17,26)       -165.6669         estimate D2E/DX2                !
 ! D91   D(23,16,17,18)       -172.4498         estimate D2E/DX2                !
 ! D92   D(23,16,17,26)         11.5745         estimate D2E/DX2                !
 ! D93   D(15,16,23,24)        172.759          estimate D2E/DX2                !
 ! D94   D(15,16,23,35)         -5.5073         estimate D2E/DX2                !
 ! D95   D(17,16,23,24)         -4.5991         estimate D2E/DX2                !
 ! D96   D(17,16,23,35)        177.1346         estimate D2E/DX2                !
 ! D97   D(16,17,18,2)         -15.1235         estimate D2E/DX2                !
 ! D98   D(16,17,18,11)        171.429          estimate D2E/DX2                !
 ! D99   D(26,17,18,2)         160.3789         estimate D2E/DX2                !
 ! D100  D(26,17,18,11)        -13.0685         estimate D2E/DX2                !
 ! D101  D(16,17,26,25)        -10.7326         estimate D2E/DX2                !
 ! D102  D(16,17,26,27)        164.2106         estimate D2E/DX2                !
 ! D103  D(18,17,26,25)        173.8047         estimate D2E/DX2                !
 ! D104  D(18,17,26,27)        -11.2521         estimate D2E/DX2                !
 ! D105  D(13,19,22,21)         -1.4549         estimate D2E/DX2                !
 ! D106  D(13,19,22,43)       -178.9784         estimate D2E/DX2                !
 ! D107  D(42,19,22,21)        176.4352         estimate D2E/DX2                !
 ! D108  D(42,19,22,43)         -1.0883         estimate D2E/DX2                !
 ! D109  D(12,20,21,22)          1.6082         estimate D2E/DX2                !
 ! D110  D(12,20,21,44)       -179.05           estimate D2E/DX2                !
 ! D111  D(45,20,21,22)       -176.2317         estimate D2E/DX2                !
 ! D112  D(45,20,21,44)          3.1101         estimate D2E/DX2                !
 ! D113  D(20,21,22,19)          2.5587         estimate D2E/DX2                !
 ! D114  D(20,21,22,43)       -179.9201         estimate D2E/DX2                !
 ! D115  D(44,21,22,19)       -176.7803         estimate D2E/DX2                !
 ! D116  D(44,21,22,43)          0.7408         estimate D2E/DX2                !
 ! D117  D(16,23,24,25)         -3.8045         estimate D2E/DX2                !
 ! D118  D(16,23,24,34)       -179.3122         estimate D2E/DX2                !
 ! D119  D(35,23,24,25)        174.5015         estimate D2E/DX2                !
 ! D120  D(35,23,24,34)         -1.0062         estimate D2E/DX2                !
 ! D121  D(23,24,25,26)          4.6774         estimate D2E/DX2                !
 ! D122  D(23,24,25,29)       -173.487          estimate D2E/DX2                !
 ! D123  D(34,24,25,26)       -179.9014         estimate D2E/DX2                !
 ! D124  D(34,24,25,29)          1.9342         estimate D2E/DX2                !
 ! D125  D(24,25,26,17)          2.8116         estimate D2E/DX2                !
 ! D126  D(24,25,26,27)       -172.471          estimate D2E/DX2                !
 ! D127  D(29,25,26,17)       -179.0327         estimate D2E/DX2                !
 ! D128  D(29,25,26,27)          5.6847         estimate D2E/DX2                !
 ! D129  D(24,25,29,30)        175.1871         estimate D2E/DX2                !
 ! D130  D(24,25,29,33)         -3.2949         estimate D2E/DX2                !
 ! D131  D(26,25,29,30)         -2.9649         estimate D2E/DX2                !
 ! D132  D(26,25,29,33)        178.5531         estimate D2E/DX2                !
 ! D133  D(17,26,27,28)       -179.9064         estimate D2E/DX2                !
 ! D134  D(25,26,27,28)         -4.7468         estimate D2E/DX2                !
 ! D135  D(26,27,28,30)          0.7866         estimate D2E/DX2                !
 ! D136  D(26,27,28,32)        126.7323         estimate D2E/DX2                !
 ! D137  D(26,27,28,46)       -125.9134         estimate D2E/DX2                !
 ! D138  D(27,28,30,29)          2.337          estimate D2E/DX2                !
 ! D139  D(27,28,30,31)       -179.4604         estimate D2E/DX2                !
 ! D140  D(32,28,30,29)       -126.5102         estimate D2E/DX2                !
 ! D141  D(32,28,30,31)         51.6924         estimate D2E/DX2                !
 ! D142  D(46,28,30,29)        131.9991         estimate D2E/DX2                !
 ! D143  D(46,28,30,31)        -49.7983         estimate D2E/DX2                !
 ! D144  D(25,29,30,28)         -1.2798         estimate D2E/DX2                !
 ! D145  D(25,29,30,31)       -179.487          estimate D2E/DX2                !
 ! D146  D(33,29,30,28)        177.2305         estimate D2E/DX2                !
 ! D147  D(33,29,30,31)         -0.9767         estimate D2E/DX2                !
 --------------------------------------------------------------------------------
 Trust Radius=3.00D-01 FncErr=1.00D-07 GrdErr=1.00D-06 EigMax=2.50D+02 EigMin=1.00D-04
 Number of steps in this run=    276 maximum allowed number of steps=    276.
 GradGradGradGradGradGradGradGradGradGradGradGradGradGradGradGradGradGrad

                          Input orientation:                          
 ---------------------------------------------------------------------
 Center     Atomic      Atomic             Coordinates (Angstroms)
 Number     Number       Type             X           Y           Z
 ---------------------------------------------------------------------
      1          6           0       -6.925770    0.106560   -0.310480
      2          6           0       -5.707600    0.732020   -0.115420
      3          6           0       -4.585630    0.023260    0.139870
      4          6           0       -4.515200   -1.361340    0.242570
      5          6           0       -6.931870   -1.315390   -0.244090
      6          6           0       -5.743150   -2.039580    0.040690
      7          6           0       -3.536430    0.865870    0.248330
      8          6           0       -2.249020    0.396570    0.462560
      9          6           0       -2.105660   -1.008380    0.635050
     10          6           0       -3.224370   -1.877200    0.520590
     11          6           0       -3.952580    2.171590    0.010230
     12          6           0       -2.934120    3.105220   -0.229580
     13          6           0       -1.580940    2.719820    0.057370
     14          6           0       -1.259440    1.389880    0.434980
     15          6           0       -7.985870    0.989180   -0.549190
     16          6           0       -7.808670    2.393170   -0.428270
     17          6           0       -6.539140    2.977530   -0.086360
     18          6           0       -5.430860    2.098530   -0.099510
     19          6           0       -0.547760    3.654940   -0.107110
     20          6           0       -3.138880    4.367340   -0.821920
     21          6           0       -2.091140    5.273760   -0.998560
     22          6           0       -0.801920    4.927600   -0.616840
     23          6           0       -8.930470    3.209500   -0.596570
     24          6           0       -8.870570    4.576960   -0.347660
     25          6           0       -7.703760    5.152310    0.153420
     26          6           0       -6.545380    4.358710    0.315920
     27          6           0       -5.465170    4.970040    0.977030
     28          6           0       -5.414220    6.311000    1.395140
     29          6           0       -7.695990    6.503760    0.529370
     30          6           0       -6.570130    7.074350    1.125540
     31          1           0       -6.597180    8.124710    1.414280
     32          1           0       -5.157680    6.438760    2.475710
     33          1           0       -8.578900    7.122910    0.383690
     34          1           0       -9.770660    5.173260   -0.480650
     35          1           0       -9.884830    2.783110   -0.900540
     36          1           0       -8.971370    0.578670   -0.759640
     37          1           0       -7.861680   -1.858570   -0.395730
     38          1           0       -5.778740   -3.124620    0.096270
     39          1           0       -3.080660   -2.949520    0.626580
     40          1           0       -1.120750   -1.432000    0.816980
     41          1           0       -0.223770    1.108540    0.611400
     42          1           0        0.479900    3.386970    0.129960
     43          1           0        0.014400    5.631990   -0.752280
     44          1           0       -2.286990    6.245070   -1.445020
     45          1           0       -4.121930    4.648720   -1.189340
     46          1           0       -4.525100    6.875460    1.022750
 ---------------------------------------------------------------------
                    Distance matrix (angstroms):
                    1          2          3          4          5
     1  C    0.000000
     2  C    1.383180   0.000000
     3  C    2.384535   1.351418   0.000000
     4  C    2.876012   2.435597   1.390189   0.000000
     5  C    1.423512   2.388992   2.728416   2.465612   0.000000
     6  C    2.475445   2.776221   2.367488   1.417260   1.420777
     7  C    3.518017   2.205495   1.350028   2.432794   4.065635
     8  C    4.749072   3.522551   2.388145   2.876494   5.035796
     9  C    5.036922   4.070156   2.731252   2.466679   4.915226
    10  C    4.280928   3.657727   2.368486   1.417621   3.826999
    11  C    3.634152   2.273377   2.243408   3.584985   4.593460
    12  C    4.993173   3.652027   3.516028   4.761607   5.960202
    13  C    5.960843   4.583724   4.038119   5.029915   6.708670
    14  C    5.857467   4.530105   3.608085   4.266873   6.321082
    15  C    1.399933   2.333410   3.601310   4.265839   2.552459
    16  C    2.453971   2.696626   4.040698   5.039178   3.815248
    17  C    2.905543   2.394706   3.548957   4.798992   4.313731
    18  C    2.499442   1.394341   2.253544   3.595296   3.732129
    19  C    7.301464   5.930217   5.436404   6.405148   8.091959
    20  C    5.723317   4.506996   4.678585   5.987084   6.856681
    21  C    7.109645   5.872489   5.923365   7.172240   8.210895
    22  C    7.799860   6.474566   6.240322   7.353761   8.757291
    23  C    3.705254   4.093446   5.438024   6.410253   4.959161
    24  C    4.875254   4.984163   6.271729   7.387897   6.203956
    25  C    5.126409   4.857560   6.002505   7.252758   6.525716
    26  C    4.314841   3.747107   4.761065   6.070089   5.714753
    27  C    5.238747   4.383267   5.093629   6.444241   6.568788
    28  C    6.609765   5.787303   6.465133   7.810343   7.946833
    29  C    6.497904   6.138602   7.198814   8.488785   7.894379
    30  C    7.123112   6.519900   7.391052   8.727155   8.508495
    31  H    8.208136   7.601526   8.444166   9.782264   9.590500
    32  H    7.140431   6.291522   6.851425   8.138873   8.406658
    33  H    7.241815   7.024027   8.149275   9.408298   8.620425
    34  H    5.813244   6.030461   7.334308   8.416882   7.086414
    35  H    4.033377   4.719389   6.064713   6.878669   5.093977
    36  H    2.146884   3.330275   4.511354   4.962410   2.830692
    37  H    2.178286   3.380797   3.815843   3.442905   1.087468
    38  H    3.452774   3.863101   3.366684   2.174188   2.172295
    39  H    5.000258   4.583134   3.367379   2.174324   4.273203
    40  H    6.110367   5.156699   3.818593   3.443433   5.908349
    41  H    6.838906   5.544585   4.519513   4.965150   7.183725
    42  H    8.111660   6.737516   6.080644   6.892761   8.785581
    43  H    8.882090   7.560197   7.308492   8.391285   9.837429
    44  H    7.777324   6.622849   6.819571   8.103725   8.954200
    45  H    5.409726   4.359839   4.834945   6.190787   6.660320
    46  H    7.304706   6.358899   6.909109   8.273672   8.630611
                    6          7          8          9         10
     6  C    0.000000
     7  C    3.654363   0.000000
     8  C    4.280391   1.386925   0.000000
     9  C    3.827267   2.389449   1.422740   0.000000
    10  C    2.569226   2.774156   2.474814   1.421078   0.000000
    11  C    4.576136   1.390963   2.501483   3.730110   4.145293
    12  C    5.867935   2.367671   2.878403   4.284348   5.046931
    13  C    6.322670   2.701395   2.451122   3.809005   4.903879
    14  C    5.658650   2.343951   1.402389   2.551033   3.813409
    15  C    3.814595   4.522030   5.855448   6.322147   5.659721
    16  C    4.912796   4.587207   5.974086   6.724992   6.336576
    17  C    5.081450   3.686108   5.036645   6.005302   5.909695
    18  C    4.152245   2.286768   3.651944   4.609710   4.589069
    19  C    7.709830   4.103340   3.719648   4.972364   6.177606
    20  C    6.969573   3.682903   4.267172   5.664686   6.387795
    21  C    8.240277   4.803446   5.093798   6.491084   7.397855
    22  C    8.566779   4.972295   4.877442   6.205064   7.312135
    23  C    6.173974   5.941559   7.326398   8.116984   7.725422
    24  C    7.328722   6.525369   7.872550   8.827556   8.619142
    25  C    7.455198   5.979065   7.243398   8.338153   8.343486
    26  C    6.454257   4.610670   5.846261   6.972705   7.068067
    27  C    7.077343   4.592957   5.614706   6.866204   7.219018
    28  C    8.466104   5.872879   6.772642   8.068310   8.520968
    29  C    8.777303   7.011899   8.183625   9.364572   9.499261
    30  C    9.215450   6.965490   7.981496   9.246761   9.575506
    31  H   10.292177   7.963566   8.918319  10.207560  10.593051
    32  H    8.840495   6.216653   7.001510   8.256073   8.758731
    33  H    9.597414   8.037125   9.236734  10.396340  10.473381
    34  H    8.277541   7.612532   8.959993   9.910080   9.672920
    35  H    6.426334   6.730371   8.115369   8.789136   8.252262
    36  H    4.232867   5.535075   6.834978   7.183444   6.379522
    37  H    2.170575   5.152201   6.109359   5.909069   4.727011
    38  H    1.087045   4.579857   4.999187   4.273204   2.874180
    39  H    2.874041   3.861088   3.451789   2.172262   1.087086
    40  H    4.726348   3.382171   2.177677   1.087474   2.170545
    41  H    6.379649   3.341321   2.151904   2.832564   4.233969
    42  H    8.257225   4.743507   4.062034   5.124387   6.448697
    43  H    9.624509   6.027065   5.831683   7.107310   8.276338
    44  H    9.098780   5.776186   6.151850   7.547987   8.409136
    45  H    6.991043   4.088968   4.931262   6.276665   6.805667
    46  H    9.051300   6.139411   6.889874   8.255842   8.863020
                   11         12         13         14         15
    11  C    0.000000
    12  C    1.402296   0.000000
    13  C    2.434636   1.435956   0.000000
    14  C    2.836280   2.487687   1.419398   0.000000
    15  C    4.240103   5.486342   6.662294   6.809847   0.000000
    16  C    3.887263   4.930287   6.255171   6.681632   1.420285
    17  C    2.710934   3.610123   4.966973   5.537839   2.502154
    18  C    1.484147   2.695191   3.902883   4.264811   2.821515
    19  C    3.715763   2.451919   1.403198   2.435333   7.913734
    20  C    2.485136   1.409163   2.432005   3.738631   5.914360
    21  C    3.755805   2.450410   2.810321   4.222711   7.301192
    22  C    4.232667   2.831487   2.436334   3.719020   8.192977
    23  C    5.121021   6.008475   7.394796   7.951089   2.413366
    24  C    5.486394   6.117303   7.533374   8.288504   3.700740
    25  C    4.793386   5.204492   6.589018   7.467558   4.231418
    26  C    3.405812   3.861348   5.234355   6.063769   3.765257
    27  C    3.324749   3.367443   4.582195   5.549732   4.952830
    28  C    4.603160   4.366650   5.420354   6.511645   6.222184
    29  C    5.748941   5.899278   7.206582   8.221305   5.626537
    30  C    5.668557   5.550758   6.707826   7.809834   6.468256
    31  H    6.663700   6.427718   7.497780   8.649187   7.529905
    32  H    5.073421   4.834801   5.698417   6.697167   6.844458
    33  H    6.786596   6.955679   8.274366   9.297567   6.232543
    34  H    6.565138   7.146895   8.566233   9.359124   4.549362
    35  H    6.032831   6.990444   8.359198   8.838668   2.635845
    36  H    5.321499   6.566034   7.737602   7.845957   1.088126
    37  H    5.629215   6.996261   7.785541   7.404869   2.854585
    38  H    5.602866   6.856307   7.195868   6.396836   4.712896
    39  H    5.231243   6.116728   5.891908   4.709984   6.399756
    40  H    4.653597   4.996995   4.245750   2.850994   7.406646
    41  H    3.923711   3.469867   2.178321   1.087607   7.849294
    42  H    4.597648   3.444443   2.167353   2.665841   8.824959
    43  H    5.319090   3.918106   3.417803   4.585603   9.252094
    44  H    4.635211   3.428517   3.896546   5.306894   7.804109
    45  H    2.757503   2.171272   3.425138   4.631663   5.360229
    46  H    4.845551   4.279516   5.183568   6.411053   7.006869
                   16         17         18         19         20
    16  C    0.000000
    17  C    1.438779   0.000000
    18  C    2.418445   1.414602   0.000000
    19  C    7.376722   6.029589   5.125147   0.000000
    20  C    5.085199   3.746250   3.304928   2.780714   0.000000
    21  C    6.427533   5.088171   4.695115   2.407755   1.396624
    22  C    7.453418   6.082752   5.449620   1.394305   2.411914
    23  C    1.397553   2.456132   3.705212   8.408794   5.910490
    24  C    2.429623   2.839370   4.246857   8.377180   5.755096
    25  C    2.821741   2.478609   3.815183   7.315622   4.733455
    26  C    2.452156   1.438585   2.554046   6.053569   3.591517
    27  C    3.755945   2.500861   3.066869   5.204399   3.001848
    28  C    4.940406   3.817369   4.469805   5.744027   3.724291
    29  C    4.222170   3.761878   4.993231   7.721274   5.211288
    30  C    5.085445   4.272423   5.249521   7.034254   4.784765
    31  H    6.141111   5.361786   6.321923   7.673914   5.574788
    32  H    5.641600   4.522471   5.054105   5.972602   4.386422
    33  H    4.860347   4.643893   5.948784   8.761673   6.216147
    34  H    3.403094   3.926756   5.332269   9.354502   6.689281
    35  H    2.164609   3.448816   4.576915   9.411190   6.929921
    36  H    2.180387   3.481893   3.909086   8.991465   6.955274
    37  H    4.252195   5.023215   4.653523   9.163816   7.826138
    38  H    5.902691   6.152056   5.238382   8.565451   7.996337
    39  H    7.211874   6.899224   5.615466   7.111454   7.459087
    40  H    7.804540   7.044070   5.646383   5.201848   6.355406
    41  H    7.762854   6.622982   5.347828   2.665592   4.601310
    42  H    8.366579   7.034299   6.053909   1.088161   3.868174
    43  H    8.473214   7.102006   6.523979   2.154297   3.398141
    44  H    6.808808   5.532048   5.374766   3.394657   2.154029
    45  H    4.388483   3.138845   3.066675   3.864390   1.086536
    46  H    5.742666   4.525521   4.989883   5.240951   3.408090
                   21         22         23         24         25
    21  C    0.000000
    22  C    1.388389   0.000000
    23  C    7.155362   8.308165   0.000000
    24  C    6.846157   8.080750   1.391219   0.000000
    25  C    5.730908   6.948323   2.416984   1.394114   0.000000
    26  C    4.733437   5.846453   2.800353   2.427855   1.413524
    27  C    3.921643   4.928298   4.193331   3.675060   2.392246
    28  C    4.224752   5.218733   5.094136   4.241533   2.850688
    29  C    5.938166   7.164236   3.693756   2.421028   1.402789
    30  C    5.274019   6.396614   4.844991   3.701256   2.434003
    31  H    5.852701   6.923294   5.800608   4.567194   3.413129
    32  H    4.778226   5.551587   5.839603   5.022277   3.678384
    33  H    6.886291   8.142596   4.049604   2.664921   2.168446
    34  H    7.697620   8.973137   2.139091   1.087852   2.162073
    35  H    8.182576   9.336947   1.088581   2.133611   3.388363
    36  H    8.332978   9.255998   2.636196   4.020723   4.833084
    37  H    9.194165   9.794958   5.183433   6.514309   7.034127
    38  H    9.237415   9.492919   7.108763   8.310886   8.498031
    39  H    8.440531   8.293839   8.581952   9.545685   9.340053
    40  H    7.014632   6.527021   9.194203   9.875409   9.334317
    41  H    4.840258   4.053153   9.037690   9.365729   8.515402
    42  H    3.382866   2.138764   9.440043   9.437981   8.371933
    43  H    2.149949   1.086687   9.268409   8.956534   7.785909
    44  H    1.086797   2.151056   7.353256   6.879703   5.752437
    45  H    2.133349   3.380532   5.054185   4.823189   3.858253
    46  H    3.546167   4.510486   5.955564   5.103355   3.718718
                   26         27         28         29         30
    26  C    0.000000
    27  C    1.406287   0.000000
    28  C    2.501135   1.405555   0.000000
    29  C    2.443502   2.743949   2.448099   0.000000
    30  C    2.833866   2.381410   1.411211   1.395906   0.000000
    31  H    3.923243   3.380026   2.165480   2.148936   1.089660
    32  H    3.304090   2.120785   1.117930   3.199294   2.054738
    33  H    3.432288   3.831738   3.420150   1.088163   2.141928
    34  H    3.420592   4.550096   4.877664   2.663574   4.054304
    35  H    3.887701   5.276488   6.140237   4.547406   5.788521
    36  H    4.618545   5.881632   7.082090   6.196356   7.177306
    37  H    6.394815   7.365979   8.714307   8.414976   9.153110
    38  H    7.525703   8.148471   9.531572   9.826959  10.281278
    39  H    8.093888   8.278172   9.580888  10.520229  10.625598
    40  H    7.950471   7.738586   8.872553  10.309839  10.106876
    41  H    7.114328   6.520517   7.390576   9.216789   8.725337
    42  H    7.094605   6.210273   6.700096   8.758943   8.018159
    43  H    6.767053   5.783976   5.877277   7.864650   6.997331
    44  H    4.979272   4.194384   4.224976   5.763889   5.063672
    45  H    2.867581   2.569183   3.333575   4.378246   4.151630
    46  H    3.303812   2.125193   1.117060   3.230500   2.057248
                   31         32         33         34         35
    31  H    0.000000
    32  H    2.457890   0.000000
    33  H    2.448047   4.068090   0.000000
    34  H    4.729989   5.623268   2.443054   0.000000
    35  H    6.685785   6.863584   4.710474   2.429436   0.000000
    36  H    8.203988   7.704049   6.654947   4.671933   2.390359
    37  H   10.224528   9.187082   9.043721   7.286841   5.088532
    38  H   11.355810   9.874497  10.627106   9.226217   7.263255
    39  H   11.645813   9.791481  11.477956  10.581191   9.027285
    40  H   11.030810   8.999836  11.357739  10.960577   9.875532
    41  H    9.512708   7.498691  10.297218  10.433486   9.920999
    42  H    8.612823   6.826293   9.802218  10.422939  10.433322
    43  H    7.390577   6.149895   8.795344   9.799572  10.302080
    44  H    5.503306   4.863178   6.610818   7.621293   8.367126
    45  H    4.998820   4.208279   5.334850   5.717126   6.064233
    46  H    2.451007   1.643763   4.111317   5.716082   7.012352
                   36         37         38         39         40
    36  H    0.000000
    37  H    2.702588   0.000000
    38  H    4.963852   2.486682   0.000000
    39  H    7.005012   5.009335   2.755272   0.000000
    40  H    8.255953   6.862417   5.008119   2.486034   0.000000
    41  H    8.870232   8.255648   7.003049   4.962852   2.702070
    42  H    9.899719   9.867826   9.031750   7.285281   5.124114
    43  H   10.309227  10.875121  10.533695   9.226211   7.324691
    44  H    8.789697   9.891772  10.117262   9.458431   8.087902
    45  H    6.345630   7.547209   8.051250   7.881311   7.071602
    46  H    7.911750   9.456645  10.120849   9.938490   8.980302
                   41         42         43         44         45
    41  H    0.000000
    42  H    2.432731   0.000000
    43  H    4.730534   2.456655   0.000000
    44  H    5.905055   4.278432   2.480353   0.000000
    45  H    5.565177   4.950697   4.273999   2.445549   0.000000
    46  H    7.206110   6.165765   5.030309   3.390637   3.164531
                   46
    46  H    0.000000
 Stoichiometry    C30H16
 Framework group  C1[X(C30H16)]
 Deg. of freedom   132
 Full point group                 C1      NOp   1
 Largest Abelian subgroup         C1      NOp   1
 Largest concise Abelian subgroup C1      NOp   1
                         Standard orientation:                         
 ---------------------------------------------------------------------
 Center     Atomic      Atomic             Coordinates (Angstroms)
 Number     Number       Type             X           Y           Z
 ---------------------------------------------------------------------
      1          6           0        0.901779   -3.000616   -0.288845
      2          6           0        1.029291   -1.633132   -0.124787
      3          6           0        2.227752   -1.064033    0.132405
      4          6           0        3.430415   -1.748222    0.266988
      5          6           0        2.095104   -3.770243   -0.188662
      6          6           0        3.342166   -3.152540    0.097494
      7          6           0        2.082414    0.276076    0.206975
      8          6           0        3.168939    1.112523    0.415256
      9          6           0        4.427159    0.480456    0.619123
     10          6           0        4.557173   -0.932453    0.540095
     11          6           0        0.761535    0.623390   -0.056520
     12          6           0        0.527454    1.978321   -0.331845
     13          6           0        1.577847    2.917095   -0.053730
     14          6           0        2.866300    2.480361    0.351048
     15          6           0       -0.409953   -3.423549   -0.534406
     16          6           0       -1.498319   -2.515031   -0.449182
     17          6           0       -1.310396   -1.122926   -0.138031
     18          6           0        0.027502   -0.663492   -0.144960
     19          6           0        1.349478    4.287026   -0.253983
     20          6           0       -0.638186    2.471691   -0.951207
     21          6           0       -0.834380    3.838130   -1.163127
     22          6           0        0.147267    4.746449   -0.790363
     23          6           0       -2.788396   -3.023952   -0.621971
     24          6           0       -3.910884   -2.230835   -0.406388
     25          6           0       -3.772799   -0.926281    0.065444
     26          6           0       -2.482069   -0.374448    0.231413
     27          6           0       -2.423030    0.880390    0.863507
     28          6           0       -3.530204    1.655739    1.248974
     29          6           0       -4.911544   -0.182652    0.409089
     30          6           0       -4.792750    1.087127    0.976630
     31          1           0       -5.695588    1.637135    1.240700
     32          1           0       -3.513389    1.966450    2.322726
     33          1           0       -5.907070   -0.596088    0.260434
     34          1           0       -4.896593   -2.670747   -0.541588
     35          1           0       -2.939924   -4.064630   -0.903107
     36          1           0       -0.592846   -4.479659   -0.722022
     37          1           0        2.053204   -4.849525   -0.315077
     38          1           0        4.236009   -3.765749    0.179267
     39          1           0        5.536319   -1.386610    0.669589
     40          1           0        5.312547    1.085999    0.798027
     41          1           0        3.659306    3.205172    0.520398
     42          1           0        2.126126    5.013744   -0.024216
     43          1           0       -0.004085    5.810145   -0.953248
     44          1           0       -1.752193    4.185818   -1.629880
     45          1           0       -1.400400    1.786647   -1.312183
     46          1           0       -3.521420    2.699688    0.851585
 ---------------------------------------------------------------------
 Rotational constants (GHZ):           0.2230832           0.1712658           0.1016692
 Standard basis: 6-311+G(d,p) (5D, 7F)
 There are   786 symmetry adapted cartesian basis functions of A   symmetry.
 There are   756 symmetry adapted basis functions of A   symmetry.
   756 basis functions,  1208 primitive gaussians,   786 cartesian basis functions
    98 alpha electrons       98 beta electrons
       nuclear repulsion energy      2598.6559423194 Hartrees.
 NAtoms=   46 NActive=   46 NUniq=   46 SFac= 1.00D+00 NAtFMM=   60 NAOKFM=F Big=F
 Integral buffers will be    131072 words long.
 Raffenetti 2 integral format.
 Two-electron integral symmetry is turned on.
 One-electron integrals computed using PRISM.
 NBasis=   756 RedAO= T EigKep=  1.08D-06  NBF=   756
 NBsUse=   735 1.00D-06 EigRej=  9.14D-07 NBFU=   735
 ExpMin= 4.38D-02 ExpMax= 4.56D+03 ExpMxC= 6.82D+02 IAcc=2 IRadAn=         4 AccDes= 0.00D+00
 Harris functional with IExCor=  402 and IRadAn=       4 diagonalized for initial guess.
 HarFok:  IExCor=  402 AccDes= 0.00D+00 IRadAn=         4 IDoV= 1 UseB2=F ITyADJ=14
 ICtDFT=  3500011 ScaDFX=  1.000000  1.000000  1.000000  1.000000
 FoFCou: FMM=F IPFlag=           0 FMFlag=      100000 FMFlg1=           0
         NFxFlg=           0 DoJE=T BraDBF=F KetDBF=T FulRan=T
         wScrn=  0.000000 ICntrl=       500 IOpCl=  0 I1Cent=   200000004 NGrid=           0
         NMat0=    1 NMatS0=      1 NMatT0=    0 NMatD0=    1 NMtDS0=    0 NMtDT0=    0
 Petite list used in FoFCou.
 Requested convergence on RMS density matrix=1.00D-08 within 128 cycles.
 Requested convergence on MAX density matrix=1.00D-06.
 Requested convergence on             energy=1.00D-06.
 No special actions if energy rises.
 EnCoef did     3 forward-backward iterations
 Restarting incremental Fock formation.
 SCF Done:  E(RB3LYP) =  -1152.95781988     A.U. after   24 cycles
            NFock= 24  Conv=0.59D-08     -V/T= 2.0037

 **********************************************************************

            Population analysis using the SCF Density.

 **********************************************************************

 Orbital symmetries:
       Occupied  (A) (A) (A) (A) (A) (A) (A) (A) (A) (A) (A) (A)
                 (A) (A) (A) (A) (A) (A) (A) (A) (A) (A) (A) (A)
                 (A) (A) (A) (A) (A) (A) (A) (A) (A) (A) (A) (A)
                 (A) (A) (A) (A) (A) (A) (A) (A) (A) (A) (A) (A)
                 (A) (A) (A) (A) (A) (A) (A) (A) (A) (A) (A) (A)
                 (A) (A) (A) (A) (A) (A) (A) (A) (A) (A) (A) (A)
                 (A) (A) (A) (A) (A) (A) (A) (A) (A) (A) (A) (A)
                 (A) (A) (A) (A) (A) (A) (A) (A) (A) (A) (A) (A)
                 (A) (A)
       Virtual   (A) (A) (A) (A) (A) (A) (A) (A) (A) (A) (A) (A)
                 (A) (A) (A) (A) (A) (A) (A) (A) (A) (A) (A) (A)
                 (A) (A) (A) (A) (A) (A) (A) (A) (A) (A) (A) (A)
                 (A) (A) (A) (A) (A) (A) (A) (A) (A) (A) (A) (A)
                 (A) (A) (A) (A) (A) (A) (A) (A) (A) (A) (A) (A)
                 (A) (A) (A) (A) (A) (A) (A) (A) (A) (A) (A) (A)
                 (A) (A) (A) (A) (A) (A) (A) (A) (A) (A) (A) (A)
                 (A) (A) (A) (A) (A) (A) (A) (A) (A) (A) (A) (A)
                 (A) (A) (A) (A) (A) (A) (A) (A) (A) (A) (A) (A)
                 (A) (A) (A) (A) (A) (A) (A) (A) (A) (A) (A) (A)
                 (A) (A) (A) (A) (A) (A) (A) (A) (A) (A) (A) (A)
                 (A) (A) (A) (A) (A) (A) (A) (A) (A) (A) (A) (A)
                 (A) (A) (A) (A) (A) (A) (A) (A) (A) (A) (A) (A)
                 (A) (A) (A) (A) (A) (A) (A) (A) (A) (A) (A) (A)
                 (A) (A) (A) (A) (A) (A) (A) (A) (A) (A) (A) (A)
                 (A) (A) (A) (A) (A) (A) (A) (A) (A) (A) (A) (A)
                 (A) (A) (A) (A) (A) (A) (A) (A) (A) (A) (A) (A)
                 (A) (A) (A) (A) (A) (A) (A) (A) (A) (A) (A) (A)
                 (A) (A) (A) (A) (A) (A) (A) (A) (A) (A) (A) (A)
                 (A) (A) (A) (A) (A) (A) (A) (A) (A) (A) (A) (A)
                 (A) (A) (A) (A) (A) (A) (A) (A) (A) (A) (A) (A)
                 (A) (A) (A) (A) (A) (A) (A) (A) (A) (A) (A) (A)
                 (A) (A) (A) (A) (A) (A) (A) (A) (A) (A) (A) (A)
                 (A) (A) (A) (A) (A) (A) (A) (A) (A) (A) (A) (A)
                 (A) (A) (A) (A) (A) (A) (A) (A) (A) (A) (A) (A)
                 (A) (A) (A) (A) (A) (A) (A) (A) (A) (A) (A) (A)
                 (A) (A) (A) (A) (A) (A) (A) (A) (A) (A) (A) (A)
                 (A) (A) (A) (A) (A) (A) (A) (A) (A) (A) (A) (A)
                 (A) (A) (A) (A) (A) (A) (A) (A) (A) (A) (A) (A)
                 (A) (A) (A) (A) (A) (A) (A) (A) (A) (A) (A) (A)
                 (A) (A) (A) (A) (A) (A) (A) (A) (A) (A) (A) (A)
                 (A) (A) (A) (A) (A) (A) (A) (A) (A) (A) (A) (A)
                 (A) (A) (A) (A) (A) (A) (A) (A) (A) (A) (A) (A)
                 (A) (A) (A) (A) (A) (A) (A) (A) (A) (A) (A) (A)
                 (A) (A) (A) (A) (A) (A) (A) (A) (A) (A) (A) (A)
                 (A) (A) (A) (A) (A) (A) (A) (A) (A) (A) (A) (A)
                 (A) (A) (A) (A) (A) (A) (A) (A) (A) (A) (A) (A)
                 (A) (A) (A) (A) (A) (A) (A) (A) (A) (A) (A) (A)
                 (A) (A) (A) (A) (A) (A) (A) (A) (A) (A) (A) (A)
                 (A) (A) (A) (A) (A) (A) (A) (A) (A) (A) (A) (A)
                 (A) (A) (A) (A) (A) (A) (A) (A) (A) (A) (A) (A)
                 (A) (A) (A) (A) (A) (A) (A) (A) (A) (A) (A) (A)
                 (A) (A) (A) (A) (A) (A) (A) (A) (A) (A) (A) (A)
                 (A) (A) (A) (A) (A) (A) (A) (A) (A) (A) (A) (A)
                 (A) (A) (A) (A) (A) (A) (A) (A) (A) (A) (A) (A)
                 (A) (A) (A) (A) (A) (A) (A) (A) (A) (A) (A) (A)
                 (A) (A) (A) (A) (A) (A) (A) (A) (A) (A) (A) (A)
                 (A) (A) (A) (A) (A) (A) (A) (A) (A) (A) (A) (A)
                 (A) (A) (A) (A) (A) (A) (A) (A) (A) (A) (A) (A)
                 (A) (A) (A) (A) (A) (A) (A) (A) (A) (A) (A) (A)
                 (A) (A) (A) (A) (A) (A) (A) (A) (A) (A) (A) (A)
                 (A) (A) (A) (A) (A) (A) (A) (A) (A) (A) (A) (A)
                 (A) (A) (A) (A) (A) (A) (A) (A) (A) (A) (A) (A)
                 (A)
 The electronic state is 1-A.
 Alpha  occ. eigenvalues --  -10.20190 -10.20143 -10.20133 -10.19727 -10.19301
 Alpha  occ. eigenvalues --  -10.19259 -10.19208 -10.19166 -10.19080 -10.19007
 Alpha  occ. eigenvalues --  -10.18849 -10.18661 -10.18561 -10.18556 -10.18537
 Alpha  occ. eigenvalues --  -10.18496 -10.18455 -10.18382 -10.18196 -10.17998
 Alpha  occ. eigenvalues --  -10.17953 -10.17676 -10.17403 -10.17232 -10.17161
 Alpha  occ. eigenvalues --  -10.17100 -10.15961 -10.15416 -10.15337 -10.14339
 Alpha  occ. eigenvalues --   -0.92766  -0.89508  -0.87537  -0.85883  -0.83865
 Alpha  occ. eigenvalues --   -0.83709  -0.80848  -0.79292  -0.77635  -0.76933
 Alpha  occ. eigenvalues --   -0.75869  -0.74144  -0.72037  -0.71680  -0.70468
 Alpha  occ. eigenvalues --   -0.67055  -0.65344  -0.63952  -0.63098  -0.61957
 Alpha  occ. eigenvalues --   -0.60096  -0.59230  -0.58537  -0.56125  -0.55354
 Alpha  occ. eigenvalues --   -0.53445  -0.52491  -0.51536  -0.50653  -0.49400
 Alpha  occ. eigenvalues --   -0.48471  -0.47727  -0.47107  -0.45823  -0.45631
 Alpha  occ. eigenvalues --   -0.44621  -0.44119  -0.43738  -0.43440  -0.43210
 Alpha  occ. eigenvalues --   -0.42550  -0.42062  -0.41594  -0.40741  -0.40324
 Alpha  occ. eigenvalues --   -0.40077  -0.39932  -0.39537  -0.38713  -0.38435
 Alpha  occ. eigenvalues --   -0.36774  -0.35917  -0.35537  -0.34758  -0.34367
 Alpha  occ. eigenvalues --   -0.34085  -0.33428  -0.32756  -0.32468  -0.29995
 Alpha  occ. eigenvalues --   -0.28879  -0.27398  -0.26594  -0.24524  -0.22273
 Alpha  occ. eigenvalues --   -0.21301  -0.19640  -0.15610
 Alpha virt. eigenvalues --   -0.11007  -0.08913  -0.05480  -0.03583  -0.01786
 Alpha virt. eigenvalues --   -0.00473   0.00030   0.00371   0.00493   0.00774
 Alpha virt. eigenvalues --    0.01440   0.01582   0.02079   0.02459   0.02723
 Alpha virt. eigenvalues --    0.02990   0.03237   0.03484   0.03970   0.04205
 Alpha virt. eigenvalues --    0.04465   0.04685   0.05152   0.05606   0.05934
 Alpha virt. eigenvalues --    0.06302   0.06636   0.07096   0.07226   0.07644
 Alpha virt. eigenvalues --    0.08263   0.08495   0.08654   0.08887   0.08971
 Alpha virt. eigenvalues --    0.09800   0.10116   0.10306   0.10550   0.11194
 Alpha virt. eigenvalues --    0.11346   0.11598   0.11990   0.12430   0.12764
 Alpha virt. eigenvalues --    0.12924   0.13294   0.13401   0.13858   0.14080
 Alpha virt. eigenvalues --    0.14711   0.14749   0.15138   0.15506   0.15577
 Alpha virt. eigenvalues --    0.16004   0.16219   0.16499   0.16745   0.16892
 Alpha virt. eigenvalues --    0.17177   0.17283   0.17486   0.17509   0.17691
 Alpha virt. eigenvalues --    0.18007   0.18307   0.18615   0.19221   0.19276
 Alpha virt. eigenvalues --    0.19402   0.19646   0.19788   0.20042   0.20345
 Alpha virt. eigenvalues --    0.20442   0.20613   0.20645   0.20909   0.21037
 Alpha virt. eigenvalues --    0.21330   0.21484   0.21968   0.22243   0.22429
 Alpha virt. eigenvalues --    0.22847   0.22894   0.22953   0.23271   0.23386
 Alpha virt. eigenvalues --    0.23679   0.23790   0.24214   0.24484   0.24633
 Alpha virt. eigenvalues --    0.24700   0.24799   0.25264   0.25518   0.25653
 Alpha virt. eigenvalues --    0.25884   0.26129   0.26560   0.26614   0.26972
 Alpha virt. eigenvalues --    0.27227   0.27587   0.27739   0.28128   0.28407
 Alpha virt. eigenvalues --    0.28466   0.28809   0.29176   0.29329   0.29520
 Alpha virt. eigenvalues --    0.29623   0.30141   0.30313   0.30611   0.30915
 Alpha virt. eigenvalues --    0.31408   0.31454   0.31873   0.32250   0.32586
 Alpha virt. eigenvalues --    0.32767   0.32980   0.33367   0.33718   0.34313
 Alpha virt. eigenvalues --    0.34588   0.34752   0.35440   0.35580   0.36167
 Alpha virt. eigenvalues --    0.36565   0.36905   0.37467   0.37880   0.38264
 Alpha virt. eigenvalues --    0.38928   0.39582   0.39849   0.40318   0.40662
 Alpha virt. eigenvalues --    0.41165   0.41972   0.42267   0.43010   0.43795
 Alpha virt. eigenvalues --    0.44822   0.44945   0.45730   0.45815   0.46123
 Alpha virt. eigenvalues --    0.47186   0.47502   0.48532   0.49485   0.50763
 Alpha virt. eigenvalues --    0.50793   0.50936   0.51460   0.52188   0.52757
 Alpha virt. eigenvalues --    0.52887   0.53442   0.53683   0.54089   0.54476
 Alpha virt. eigenvalues --    0.55171   0.55518   0.55574   0.55871   0.56204
 Alpha virt. eigenvalues --    0.56460   0.56913   0.57644   0.58185   0.58423
 Alpha virt. eigenvalues --    0.58491   0.58841   0.59125   0.59437   0.59921
 Alpha virt. eigenvalues --    0.60269   0.60602   0.60845   0.61145   0.61390
 Alpha virt. eigenvalues --    0.62306   0.62615   0.62857   0.63609   0.64001
 Alpha virt. eigenvalues --    0.64658   0.64787   0.65194   0.65876   0.66103
 Alpha virt. eigenvalues --    0.66392   0.66897   0.67037   0.67353   0.67840
 Alpha virt. eigenvalues --    0.68768   0.69064   0.69191   0.69650   0.70004
 Alpha virt. eigenvalues --    0.70531   0.70822   0.70885   0.71752   0.71890
 Alpha virt. eigenvalues --    0.72318   0.72469   0.72887   0.72940   0.73534
 Alpha virt. eigenvalues --    0.73723   0.74052   0.74098   0.75045   0.75364
 Alpha virt. eigenvalues --    0.75621   0.75909   0.76437   0.76515   0.77292
 Alpha virt. eigenvalues --    0.77408   0.77639   0.78303   0.79037   0.79492
 Alpha virt. eigenvalues --    0.80050   0.80391   0.81460   0.81970   0.82834
 Alpha virt. eigenvalues --    0.83325   0.83950   0.84153   0.84615   0.85176
 Alpha virt. eigenvalues --    0.85564   0.87051   0.87248   0.88273   0.88988
 Alpha virt. eigenvalues --    0.89347   0.89918   0.90331   0.90643   0.91330
 Alpha virt. eigenvalues --    0.91857   0.92404   0.92739   0.92997   0.93438
 Alpha virt. eigenvalues --    0.93610   0.93753   0.95100   0.95491   0.95587
 Alpha virt. eigenvalues --    0.96110   0.96355   0.96987   0.97606   0.97748
 Alpha virt. eigenvalues --    0.97962   0.98465   0.98825   0.99682   1.00113
 Alpha virt. eigenvalues --    1.00531   1.00787   1.01201   1.02124   1.02467
 Alpha virt. eigenvalues --    1.03027   1.03848   1.04050   1.04327   1.04912
 Alpha virt. eigenvalues --    1.05768   1.05877   1.06055   1.06720   1.06875
 Alpha virt. eigenvalues --    1.07650   1.08138   1.09230   1.09517   1.10783
 Alpha virt. eigenvalues --    1.11318   1.12399   1.12695   1.13124   1.14755
 Alpha virt. eigenvalues --    1.14903   1.15786   1.16477   1.17751   1.18471
 Alpha virt. eigenvalues --    1.18783   1.20127   1.20484   1.22738   1.23803
 Alpha virt. eigenvalues --    1.24695   1.25962   1.27700   1.29493   1.30117
 Alpha virt. eigenvalues --    1.31434   1.32460   1.32939   1.34119   1.35777
 Alpha virt. eigenvalues --    1.36899   1.37185   1.37697   1.39329   1.40523
 Alpha virt. eigenvalues --    1.40908   1.42238   1.42822   1.44893   1.46019
 Alpha virt. eigenvalues --    1.46725   1.47698   1.47953   1.48634   1.49256
 Alpha virt. eigenvalues --    1.49478   1.49964   1.50568   1.51127   1.51654
 Alpha virt. eigenvalues --    1.51822   1.52258   1.53418   1.53939   1.54658
 Alpha virt. eigenvalues --    1.55198   1.56434   1.56565   1.57632   1.58122
 Alpha virt. eigenvalues --    1.58714   1.59727   1.60272   1.60574   1.61341
 Alpha virt. eigenvalues --    1.61560   1.62474   1.63242   1.64003   1.64593
 Alpha virt. eigenvalues --    1.66520   1.67166   1.67282   1.68251   1.68709
 Alpha virt. eigenvalues --    1.69240   1.70179   1.71587   1.71873   1.71909
 Alpha virt. eigenvalues --    1.72853   1.73448   1.74050   1.74349   1.75088
 Alpha virt. eigenvalues --    1.75662   1.76261   1.76788   1.77488   1.77527
 Alpha virt. eigenvalues --    1.78175   1.79066   1.81354   1.82307   1.82663
 Alpha virt. eigenvalues --    1.83812   1.84277   1.85208   1.85568   1.85748
 Alpha virt. eigenvalues --    1.86458   1.87056   1.87456   1.88259   1.89240
 Alpha virt. eigenvalues --    1.89461   1.90508   1.90658   1.91085   1.91623
 Alpha virt. eigenvalues --    1.91953   1.92459   1.93143   1.94002   1.94652
 Alpha virt. eigenvalues --    1.95189   1.95583   1.95992   1.96609   1.97324
 Alpha virt. eigenvalues --    1.97641   1.98096   1.98875   1.99989   2.00278
 Alpha virt. eigenvalues --    2.00766   2.01935   2.02797   2.03623   2.04280
 Alpha virt. eigenvalues --    2.04407   2.05488   2.06457   2.07147   2.07621
 Alpha virt. eigenvalues --    2.08267   2.09034   2.10078   2.10398   2.11743
 Alpha virt. eigenvalues --    2.12615   2.13399   2.14282   2.15145   2.16668
 Alpha virt. eigenvalues --    2.17857   2.18906   2.19271   2.20800   2.21356
 Alpha virt. eigenvalues --    2.21643   2.22169   2.23436   2.23987   2.25420
 Alpha virt. eigenvalues --    2.26320   2.26952   2.27722   2.30177   2.31238
 Alpha virt. eigenvalues --    2.32448   2.33966   2.34602   2.35938   2.38376
 Alpha virt. eigenvalues --    2.39296   2.40012   2.41924   2.42703   2.43319
 Alpha virt. eigenvalues --    2.43524   2.44051   2.45159   2.45923   2.47916
 Alpha virt. eigenvalues --    2.49340   2.50198   2.50448   2.51866   2.56095
 Alpha virt. eigenvalues --    2.56912   2.57692   2.58787   2.59359   2.59734
 Alpha virt. eigenvalues --    2.61412   2.63005   2.63611   2.64947   2.65609
 Alpha virt. eigenvalues --    2.66363   2.66865   2.68318   2.69308   2.69665
 Alpha virt. eigenvalues --    2.70454   2.71654   2.72295   2.72860   2.73441
 Alpha virt. eigenvalues --    2.73522   2.73914   2.74609   2.75028   2.75345
 Alpha virt. eigenvalues --    2.75640   2.76071   2.76441   2.76862   2.77035
 Alpha virt. eigenvalues --    2.77803   2.78094   2.78558   2.79595   2.79777
 Alpha virt. eigenvalues --    2.79867   2.81043   2.81828   2.82163   2.83448
 Alpha virt. eigenvalues --    2.84627   2.85013   2.85450   2.85991   2.87561
 Alpha virt. eigenvalues --    2.87758   2.88771   2.90066   2.90303   2.91170
 Alpha virt. eigenvalues --    2.92605   2.92965   2.94747   2.95802   2.96718
 Alpha virt. eigenvalues --    2.97898   2.98422   2.99850   3.00544   3.03437
 Alpha virt. eigenvalues --    3.03736   3.06132   3.07385   3.08892   3.09939
 Alpha virt. eigenvalues --    3.13240   3.13910   3.16210   3.17277   3.17991
 Alpha virt. eigenvalues --    3.19306   3.20851   3.22031   3.23077   3.24388
 Alpha virt. eigenvalues --    3.24507   3.24801   3.26907   3.29026   3.32699
 Alpha virt. eigenvalues --    3.35070   3.37346   3.38219   3.38815   3.40353
 Alpha virt. eigenvalues --    3.41286   3.42233   3.43035   3.43921   3.44646
 Alpha virt. eigenvalues --    3.45935   3.47217   3.48467   3.48651   3.49910
 Alpha virt. eigenvalues --    3.51707   3.52837   3.54637   3.55772   3.57923
 Alpha virt. eigenvalues --    3.59770   3.62054   3.63548   3.65230   3.66514
 Alpha virt. eigenvalues --    3.67473   3.70658   3.72698   3.75272   3.83170
 Alpha virt. eigenvalues --    3.86668   3.89697   3.91950   4.01659   4.04109
 Alpha virt. eigenvalues --    4.04586   4.06673   4.07846   4.08470   4.09838
 Alpha virt. eigenvalues --    4.13367   4.17658   4.20302   4.22523   4.25703
 Alpha virt. eigenvalues --    4.30416   4.36225   4.49875   4.64472   4.76851
 Alpha virt. eigenvalues --    4.77982   4.78946   4.81096   4.82749   4.85262
 Alpha virt. eigenvalues --    4.85608   4.90434  23.42302  23.60761  23.69795
 Alpha virt. eigenvalues --   23.80821  23.86143  23.89421  23.91354  23.93075
 Alpha virt. eigenvalues --   23.94571  23.96228  23.99820  24.00506  24.00741
 Alpha virt. eigenvalues --   24.02303  24.03801  24.05011  24.05260  24.06308
 Alpha virt. eigenvalues --   24.06808  24.07186  24.08610  24.09830  24.10188
 Alpha virt. eigenvalues --   24.10803  24.13356  24.13966  24.15823  24.19077
 Alpha virt. eigenvalues --   24.22859  24.35076
          Condensed to atoms (all electrons):
               1          2          3          4          5          6
     1  C    9.639143   0.254915   0.333368   1.076856  -0.453093  -1.658962
     2  C    0.254915   7.817929  -0.090331   0.208970   0.142209   1.569542
     3  C    0.333368  -0.090331   7.901598   0.724631   0.463404  -1.079654
     4  C    1.076856   0.208970   0.724631  11.610235  -1.456081  -2.904437
     5  C   -0.453093   0.142209   0.463404  -1.456081   8.887949   1.584216
     6  C   -1.658962   1.569542  -1.079654  -2.904437   1.584216  12.452200
     7  C    0.270799  -0.455531   0.293886   0.712209  -0.653398  -1.779252
     8  C   -0.337689   0.526016  -0.135274   0.110871  -0.223778   0.934728
     9  C    0.009629  -0.921249   1.584844  -1.574064   0.061333  -0.839173
    10  C    0.198683  -1.192741  -0.597326  -1.910087  -0.422684  -1.298672
    11  C   -0.285431   0.532888  -0.723174   0.355619  -0.249460   0.647346
    12  C   -0.073650  -0.258661  -0.127456   0.012422  -0.116414  -0.281923
    13  C    0.136175  -0.254642  -0.214302  -0.400933  -0.081886  -0.100286
    14  C   -0.071994   0.056738  -0.923634  -0.275524  -0.075952   0.412302
    15  C    1.935032   0.008921  -0.189060  -0.186091  -0.124328  -0.050759
    16  C   -1.819008  -0.374877   0.123387  -0.305970  -0.212659  -0.608325
    17  C   -0.149059   0.555998  -0.175254  -0.236885   0.006792   0.332246
    18  C    0.563465  -0.140748  -0.404394   0.557798  -0.530349  -0.769176
    19  C    0.067706  -0.030395   0.110789  -0.135112  -0.005319   0.000597
    20  C    0.129672   0.070357  -0.549530   0.008502   0.051732   0.059881
    21  C   -0.073286   0.164320  -0.091465   0.024384   0.005361  -0.013119
    22  C   -0.001785  -0.033512  -0.059569  -0.013264  -0.003760   0.006347
    23  C   -1.969367  -0.713062   0.077238  -0.154107  -0.226476  -0.272987
    24  C    0.325692  -0.128509   0.080698  -0.007346  -0.097259  -0.001412
    25  C   -0.374639  -0.505362   0.006689  -0.110445   0.020014   0.021544
    26  C   -1.372533   0.029858  -0.244558   0.000943  -0.138036  -0.255919
    27  C   -0.211313  -0.469944  -0.124198  -0.098947   0.031531  -0.062221
    28  C    0.018396  -0.181308   0.068056  -0.033381   0.003999  -0.017442
    29  C   -0.134805  -0.212139  -0.013782  -0.013909   0.007994  -0.002804
    30  C    0.007096   0.030782   0.005830   0.000996  -0.005555   0.002618
    31  H    0.000070  -0.000070   0.000046   0.000000   0.000003  -0.000001
    32  H    0.000794  -0.000749   0.000753   0.000039   0.000028   0.000004
    33  H    0.000180  -0.000115  -0.000016  -0.000002   0.000020   0.000002
    34  H   -0.000710   0.000921  -0.000154   0.000019  -0.000055  -0.000002
    35  H    0.052581   0.003645   0.000741   0.000322   0.008288   0.001348
    36  H   -0.050028   0.033401  -0.008788   0.005242  -0.007691   0.000600
    37  H   -0.112703   0.015387   0.001981  -0.027637   0.375646   0.020837
    38  H    0.019441   0.001499   0.027130  -0.095377  -0.000342   0.377295
    39  H    0.004016  -0.013809   0.029750  -0.092578   0.004943   0.011532
    40  H    0.001567  -0.004999  -0.009473  -0.037421  -0.001331   0.002132
    41  H   -0.000145   0.003884  -0.010122   0.011027   0.000177   0.000241
    42  H    0.000032  -0.000081   0.001732  -0.000303   0.000006  -0.000049
    43  H    0.000003   0.000059   0.000132   0.000056   0.000002   0.000003
    44  H    0.000009  -0.000521  -0.000281   0.000082  -0.000003   0.000012
    45  H   -0.000581  -0.004361   0.005076  -0.000562   0.000138  -0.000278
    46  H   -0.000533   0.000879   0.000463  -0.000018  -0.000014  -0.000013
               7          8          9         10         11         12
     1  C    0.270799  -0.337689   0.009629   0.198683  -0.285431  -0.073650
     2  C   -0.455531   0.526016  -0.921249  -1.192741   0.532888  -0.258661
     3  C    0.293886  -0.135274   1.584844  -0.597326  -0.723174  -0.127456
     4  C    0.712209   0.110871  -1.574064  -1.910087   0.355619   0.012422
     5  C   -0.653398  -0.223778   0.061333  -0.422684  -0.249460  -0.116414
     6  C   -1.779252   0.934728  -0.839173  -1.298672   0.647346  -0.281923
     7  C    7.762702  -0.229396   0.754603   1.123758  -0.241025   0.484373
     8  C   -0.229396  11.479397  -1.162866  -2.298243   0.098876  -1.479524
     9  C    0.754603  -1.162866  12.776950   2.814618  -2.041634  -0.850595
    10  C    1.123758  -2.298243   2.814618  11.968240  -1.215451  -0.091412
    11  C   -0.241025   0.098876  -2.041634  -1.215451   9.191533   2.047806
    12  C    0.484373  -1.479524  -0.850595  -0.091412   2.047806  10.194755
    13  C   -0.516964   0.005264  -0.540831  -0.138296  -0.197877   0.032637
    14  C    0.005941   1.166089  -1.970239  -0.290385   1.170677   0.140945
    15  C   -0.145553  -0.047725  -0.103870   0.016915  -0.109539  -0.035023
    16  C   -0.178890   0.172943  -0.054496  -0.273052  -0.439740  -0.306856
    17  C   -0.247179  -0.354258  -0.350839  -0.151855   0.387990   0.133640
    18  C    0.167985  -0.665501  -0.528334   0.275750  -0.607245   0.226562
    19  C   -0.706744  -0.231697  -0.163591  -0.179932  -1.179901  -1.833489
    20  C   -0.635689  -1.353060  -0.554691  -0.343788  -1.547723  -1.114743
    21  C    0.219376   0.179527   0.053754  -0.007351  -0.295270  -1.423153
    22  C   -0.130563  -0.574661  -0.205578  -0.008156  -0.075492   0.659137
    23  C    0.045708   0.094313   0.003736  -0.032200   0.323080   0.026244
    24  C   -0.039979   0.026357  -0.002888   0.004916   0.164850  -0.023096
    25  C   -0.089450  -0.072636  -0.027222  -0.019194  -0.414797  -0.294652
    26  C    0.364663   0.071539  -0.003897  -0.002518   0.479082   0.545029
    27  C    0.000116  -0.226625  -0.016855   0.015336  -0.528702  -0.146378
    28  C   -0.210808   0.125470   0.026834   0.018926   0.327572  -0.126844
    29  C   -0.018546  -0.016507  -0.003921  -0.001034  -0.104226  -0.141514
    30  C    0.028125  -0.008016  -0.000499  -0.001768  -0.091568   0.006505
    31  H   -0.000110   0.000057   0.000002   0.000001   0.001730   0.000609
    32  H   -0.001376   0.001065   0.000082   0.000030   0.004917  -0.000263
    33  H    0.000003  -0.000009  -0.000000  -0.000000  -0.000763  -0.000241
    34  H    0.000025  -0.000011  -0.000000   0.000001  -0.000287   0.000055
    35  H   -0.000520  -0.000024  -0.000004   0.000045  -0.000045  -0.000296
    36  H    0.003349  -0.000099   0.000239  -0.000407   0.001181   0.000212
    37  H   -0.003448   0.003899  -0.001543   0.005836   0.001290  -0.000678
    38  H   -0.013679   0.008987  -0.001143  -0.001918   0.000832  -0.000223
    39  H   -0.000179  -0.001285   0.013119   0.382080   0.002190   0.000148
    40  H    0.013461  -0.080713   0.361687  -0.013111  -0.006180   0.005252
    41  H    0.024491  -0.048751   0.026663   0.007269  -0.014837  -0.011925
    42  H    0.002994   0.036700   0.006978   0.000247  -0.007163  -0.001626
    43  H    0.002284   0.002971   0.000290  -0.000003   0.003755   0.009986
    44  H    0.002630  -0.002848  -0.000221   0.000001   0.000014   0.062061
    45  H    0.000366   0.013594   0.001748   0.000574   0.032729   0.025778
    46  H    0.000776   0.002034   0.000157   0.000011   0.018442   0.008506
              13         14         15         16         17         18
     1  C    0.136175  -0.071994   1.935032  -1.819008  -0.149059   0.563465
     2  C   -0.254642   0.056738   0.008921  -0.374877   0.555998  -0.140748
     3  C   -0.214302  -0.923634  -0.189060   0.123387  -0.175254  -0.404394
     4  C   -0.400933  -0.275524  -0.186091  -0.305970  -0.236885   0.557798
     5  C   -0.081886  -0.075952  -0.124328  -0.212659   0.006792  -0.530349
[...]
 9,-0.00000916,-0.00000837,-0.00005824,-0.00000182,0.00009619,-0.000072
 72,0.00005109,-0.00009196,-0.00006812,-0.00004295,-0.00002837,0.000007
 76,0.00005867,0.00007247,0.00005106,0.00005606,0.00004210,0.00003355,0
 .00003341,-0.00003469,0.00000771,-0.00004565,0.00000201,0.00001349,-0.
 00001411,-0.00003015,-0.00001526,-0.00000257,-0.00000048,0.00000434,-0
 .00000873,-0.00000576,0.00000336,-0.00000271,-0.00000281,-0.00000212,-
 0.00000091,-0.00000388,-0.00000059,-0.00000104,-0.00000446,-0.00000317
 ,-0.00000026,-0.00000013,-0.00000580,-0.00000005,0.00000269,-0.0000025
 4,-0.00000112,0.00000458,-0.00000528,0.00000097,-0.00000351,-0.0000084
 2,-0.00002270,0.00083760,-0.00024683,0.00050337,0.22367577,-0.00005662
 ,0.00003753,-0.00000632,-0.00001269,-0.00001253,0.00000426,0.00003230,
 0.00005942,-0.00000228,0.00013285,-0.00007876,0.00001338,0.00001715,-0
 .00003726,0.00000112,-0.00004296,0.00001954,-0.00000608,0.00017153,-0.
 00012645,0.00005780,0.00001995,-0.00069085,-0.00015345,-0.00010999,0.0
 0014774,-0.00004445,-0.00012804,-0.00009804,0.00000605,0.00003969,0.00
 028006,-0.00019783,0.00038452,-0.00045827,-0.00001810,0.00301327,-0.00
 352099,0.00325751,-0.00128902,-0.00001013,0.00004676,0.00001258,-0.000
 04958,0.00000051,-0.00001430,0.00003529,0.00000456,-0.00001785,-0.0000
 4214,-0.00001340,0.00001041,0.00001309,0.00000423,-0.02470660,-0.01556
 907,0.00297860,0.00217687,0.00063135,0.00128466,0.00884718,0.00942944,
 -0.00113669,-0.13548556,-0.17568765,0.02450891,0.00003171,-0.00003836,
 0.00000094,0.00001963,0.00003423,0.00000858,-0.00003041,0.00000381,-0.
 00000688,0.00003097,-0.00000043,-0.00000843,-0.00003084,0.00000883,0.0
 0003366,0.00001003,0.00000507,-0.00000303,0.00000810,0.00000268,0.0000
 0303,-0.00000507,0.00000782,0.00000650,0.00000231,0.00000256,-0.000001
 95,-0.00000266,0.00000097,0.00000025,-0.00000166,0.00000180,-0.0000029
 4,-0.00000262,0.00000411,0.00000095,-0.00000312,-0.00000244,-0.0000007
 7,-0.00000392,-0.00000074,-0.00000044,-0.00000509,-0.00000100,-0.00000
 087,-0.00000139,-0.00000606,0.00000069,-0.00001811,-0.00001653,0.00000
 510,0.00001474,-0.00000572,0.00000011,0.00005439,-0.00001186,0.0000822
 9,0.00039281,0.00063717,-0.00140792,0.14657498,0.18438659,-0.00002323,
 -0.00004095,0.00000596,0.00003420,0.00005622,0.00001157,-0.00000257,-0
 .00005331,-0.00000592,-0.00003865,0.00000574,-0.00001326,-0.00000585,0
 .00003234,0.00000003,0.00003469,0.00000247,-0.00000337,-0.00000644,0.0
 0002862,0.00013724,0.00004881,0.00007100,-0.00077719,0.00002591,-0.000
 04869,-0.00008514,0.00003014,0.00003757,0.00006086,0.00008616,-0.00013
 710,-0.00061408,-0.00028466,0.00009908,-0.00071895,-0.00103347,0.00304
 390,0.00829828,0.00044459,0.00020073,0.00026332,0.00001554,0.00003225,
 0.00000046,0.00000463,-0.00002508,-0.00000418,-0.00000604,0.00001080,-
 0.00000171,-0.00001117,-0.00000013,0.00001850,0.00657341,0.00464797,0.
 00305098,-0.00145653,0.00145426,0.00430807,-0.00380986,-0.00354768,0.0
 0295426,0.01972904,0.02489299,-0.04049283,-0.00004662,0.00003874,-0.00
 000738,-0.00000733,-0.00006003,-0.00000330,0.00004601,-0.00001243,0.00
 003333,-0.00005601,0.00000919,-0.00002212,0.00003591,0.00004684,-0.000
 07733,0.00004290,0.00000749,0.00003437,0.00000664,-0.00000296,-0.00000
 358,-0.00000234,-0.00001679,-0.00001578,0.00000940,-0.00000331,-0.0000
 0025,0.00001323,0.00000288,-0.00000136,-0.00000387,0.00000108,0.000000
 41,-0.00000144,-0.00000046,-0.00000187,0.00000150,-0.00000083,0.000001
 60,0.00000139,0.00000024,0.00000182,0.00000083,0.00000156,-0.00000365,
 0.00000090,0.00000048,0.00000215,0.00000286,0.00000365,0.00001783,-0.0
 0000256,0.00000167,-0.00000122,-0.00002858,0.00003008,0.00022939,0.000
 27746,-0.00140538,-0.00487486,-0.02084757,-0.02846300,0.03025670,-0.00
 003294,0.00003212,-0.00000509,-0.00003040,0.00002437,-0.00000081,0.000
 12811,-0.00005908,-0.00000123,0.00006643,-0.00006151,-0.00000220,0.000
 01813,-0.00004685,0.00000024,-0.00004666,-0.00000225,-0.00000588,-0.00
 016259,-0.00038466,0.00014549,-0.00024471,-0.00012092,-0.00000269,0.00
 004000,0.00010525,-0.00001989,-0.00011240,-0.00001457,-0.00000713,0.00
 088813,-0.00054370,0.00019055,-0.00371664,-0.00291415,-0.00013910,-0.0
 0069642,-0.00075203,0.00009253,0.00021025,0.00044100,0.00002655,0.0000
 1072,-0.00004743,0.00000295,-0.00003111,0.00005926,0.00001204,0.000015
 51,-0.00007714,-0.00000542,-0.00001980,0.00004966,-0.00002638,-0.00550
 912,0.00070369,-0.00110588,0.00807147,-0.02401164,0.00734384,-0.067784
 96,0.04721589,-0.01697642,-0.00068809,0.02880426,-0.00869348,0.0000487
 5,-0.00008701,0.00000231,0.00003916,0.00010158,0.00001858,-0.00010580,
 -0.00006063,-0.00001423,0.00008149,-0.00001102,0.00001586,-0.00006138,
 -0.00011649,0.00001327,-0.00004052,0.00003273,-0.00002209,0.00002505,0
 .00003004,-0.00000738,-0.00003636,0.00006914,-0.00005027,-0.00001262,0
 .00002045,0.00001526,0.00003634,0.00000676,-0.00001858,0.00000437,0.00
 000446,0.00000246,0.00000148,-0.00000070,0.00000508,0.00000032,0.00000
 330,-0.00000115,0.00000108,0.00000072,-0.00000135,0.00000121,-0.000000
 20,0.00000053,-0.00000485,-0.00000067,-0.00000011,-0.00000059,0.000001
 18,0.00000153,0.00000156,-0.00000716,-0.00000059,0.00003870,-0.0000813
 6,0.00001078,-0.00026884,0.00145836,-0.00024400,0.00094844,-0.00050091
 ,0.00045472,0.06796709,-0.00004508,0.00006690,-0.00000494,-0.00008419,
 -0.00005847,-0.00002537,0.00010368,-0.00008794,-0.00000779,0.00006473,
 -0.00004767,0.00002740,0.00000421,-0.00009936,-0.00000303,-0.00007854,
 0.00002629,-0.00000399,-0.00037082,-0.00022516,-0.00021576,-0.00010528
 ,-0.00008477,0.00005471,0.00001608,0.00014939,0.00002421,-0.00013776,-
 0.00002956,-0.00002008,0.00098241,-0.00058067,0.00020957,-0.00381725,0
 .00044370,0.00236570,-0.00031233,0.00020837,-0.00029259,0.00007848,0.0
 0016410,-0.00022808,0.00002083,-0.00008870,0.00000301,-0.00010838,0.00
 007442,-0.00000182,0.00009889,-0.00013692,-0.00003953,-0.00002812,0.00
 006316,0.00007452,0.00173645,0.00184885,0.00115259,0.00601718,-0.01511
 401,0.00621499,0.04636627,-0.29861618,0.08086913,-0.00092854,-0.004898
 92,0.00216119,0.00009467,-0.00014162,0.00000552,0.00007502,0.00015103,
 0.00001890,-0.00013462,-0.00007485,-0.00000199,0.00007206,0.00006819,0
 .00011951,-0.00010086,-0.00011226,-0.00006814,-0.00003267,0.00002960,0
 .00002022,0.00005033,0.00004165,0.00001264,-0.00002589,0.00009383,-0.0
 0007001,-0.00000755,0.00002390,0.00000913,-0.00000937,-0.00001062,-0.0
 0000803,0.00000229,0.00000772,-0.00000174,-0.00000428,0.00000445,0.000
 00521,-0.00000398,-0.00000126,0.00000027,-0.00000512,0.00000048,-0.000
 00145,-0.00000493,-0.00000206,0.00000102,-0.00000884,-0.00000981,0.000
 00156,-0.00000364,-0.00001063,-0.00000414,0.00000868,-0.00000483,0.000
 00053,0.00001152,-0.00000399,0.00000942,-0.00009448,-0.00036029,0.0001
 0354,0.00044775,0.00043583,-0.00084350,-0.04982125,0.31642470,-0.00001
 735,0.00000482,0.00001059,0.00002900,0.00002253,-0.00005060,0.00001046
 ,0.00004089,-0.00004641,0.00002179,-0.00005844,0.00008460,0.00002178,0
 .00001862,0.00000023,-0.00000125,-0.00001791,0.00001362,0.00007780,-0.
 00014826,-0.00090957,-0.00010504,-0.00007663,0.00014059,0.00004956,0.0
 0007512,0.00012132,-0.00008330,0.00002400,-0.00003501,0.00025396,0.000
 33317,0.00010367,-0.00003367,0.00144874,0.00879417,-0.00011181,-0.0006
 1117,-0.00057998,0.00003956,0.00009617,-0.00071553,0.00002462,0.000014
 98,-0.00000445,-0.00007894,-0.00010146,-0.00004276,0.00013775,-0.00004
 054,-0.00004103,-0.00022896,-0.00007124,0.00017935,-0.00149106,0.00111
 498,0.00434107,-0.00069781,0.00441996,0.00302736,-0.01782608,0.0812740
 1,-0.06210090,0.00071106,0.00436380,0.00164197,0.00000459,0.00006248,0
 .00000810,-0.00001100,-0.00005067,-0.00002956,-0.00000987,0.00013586,0
 .00000664,-0.00001999,0.00018738,0.00004562,-0.00010440,0.00028097,-0.
 00001594,-0.00000842,-0.00016209,-0.00005985,-0.00009640,-0.00008914,-
 0.00008137,0.00014947,-0.00011757,0.00015189,0.00001320,-0.00001271,0.
 00002189,-0.00000835,-0.00000197,0.00003110,-0.00002354,-0.00000697,0.
 00000076,-0.00000551,0.00000020,-0.00000285,0.00000033,-0.00000435,0.0
 0000290,0.00000037,0.00000054,0.00000767,0.00000024,-0.00000073,0.0000
 0164,0.00000046,0.00000037,0.00000430,0.00000282,-0.00000014,-0.000015
 53,0.00000016,0.00000104,-0.00000013,0.00000188,-0.00000645,0.00003757
 ,-0.00001059,0.00033430,0.00007986,0.00023263,-0.00082058,-0.00218713,
 0.01841528,-0.09002388,0.05289415,0.00027170,-0.00006686,0.00000637,0.
 00005100,-0.00028071,-0.00005834,-0.00023512,0.00005751,-0.00000339,-0
 .00018775,0.00001974,-0.00001577,-0.00001203,0.00013924,0.00001377,0.0
 0013638,-0.00003220,0.00001313,0.00001570,0.00044473,0.00001494,0.0002
 7795,0.00018300,0.00002040,0.00001995,-0.00017072,0.00000135,0.0001550
 5,0.00007856,0.00001526,0.00048150,-0.00076675,0.00049025,-0.00117522,
 0.00020231,-0.00011647,0.00158253,0.00040172,-0.00035224,-0.00022310,-
 0.00057295,0.00000068,0.00001743,0.00032233,0.00001431,0.00021913,-0.0
 0004396,0.00017292,-0.00051392,-0.00036882,0.00016197,-0.00011105,0.00
 042779,-0.00035247,0.00040817,-0.00041897,0.00025974,-0.30268765,0.077
 59396,-0.05494306,-0.01833660,0.00916794,-0.00469991,-0.00109330,-0.00
 418750,0.00009873,-0.00061035,0.00040544,-0.00013960,-0.00003576,-0.00
 070203,0.00012004,0.00030087,-0.00014366,0.00038541,-0.00306885,-0.001
 16515,-0.00034772,-0.00038149,0.00091579,0.00141313,0.00103786,0.00080
 077,0.00151530,0.00019065,0.00000993,0.00006660,-0.00006944,-0.0000341
 8,-0.00062758,0.00015310,-0.00007888,-0.00008841,-0.00027393,-0.000210
 82,-0.00007437,0.00003135,-0.00000010,-0.00002954,0.00003557,0.0000061
 9,-0.00000405,0.00003429,0.00000623,-0.00004420,0.00000827,0.00002253,
 0.00001225,0.00000300,0.00000402,-0.00000253,0.00000729,0.00000464,-0.
 00000186,0.00000699,0.00000609,-0.00000280,-0.00001186,0.00000315,0.00
 000393,0.00000626,0.00003532,-0.00008476,-0.00006865,0.00009817,0.0000
 9223,-0.00091061,0.00046919,-0.00024785,0.00094122,0.00006201,0.000666
 46,0.32396109,-0.00010898,0.00005364,0.00000513,0.00010376,-0.00026341
 ,-0.00007256,-0.00010074,0.00014536,0.00009147,0.00016039,-0.00013210,
 0.00002223,-0.00000258,-0.00006709,0.00000219,-0.00004200,0.00005208,-
 0.00000437,-0.00010568,0.00024112,-0.00023893,0.00011212,-0.00010195,-
 0.00001476,-0.00003962,0.00022322,0.00000678,-0.00018401,-0.00011301,-
 0.00002375,0.00059718,0.00099429,-0.00088735,0.02876434,-0.00600820,0.
 00548217,-0.00087938,-0.00474634,0.00261944,0.00159573,0.00025596,-0.0
 0001432,0.00002913,-0.00007582,-0.00000608,-0.00014515,-0.00001500,0.0
 0000056,-0.00040451,-0.00040348,0.00009301,-0.00028012,-0.00021027,0.0
 0001781,-0.00024327,-0.00075130,-0.00010627,0.07778426,-0.08066079,0.0
 2226706,-0.02105766,0.00966761,-0.00357152,-0.00309495,-0.00160918,0.0
 0275811,0.00021529,-0.00016691,0.00003373,0.00005256,0.00027011,0.0000
 4932,-0.00027060,0.00034646,-0.00034266,0.00009758,0.00055552,0.000354
 32,0.00046788,0.00077230,-0.00045856,-0.00019078,-0.00058251,-0.000611
 02,-0.00012315,-0.00002555,-0.00003482,0.00004952,-0.00032782,0.000306
 79,-0.00003747,-0.00002539,0.00003740,0.00004454,0.00009095,0.00007731
 ,-0.00002240,-0.00002398,0.00001764,0.00000147,-0.00000151,0.00000195,
 0.00000176,-0.00000614,-0.00000745,0.00000194,0.00000167,0.00000167,-0
 .00000125,0.00000930,0.00000240,-0.00000323,0.00000102,-0.00000092,-0.
 00001451,-0.00000185,0.00000058,0.00000179,0.00001189,0.00000052,0.000
 13088,-0.00044244,0.00010332,0.00010089,0.00004147,-0.00033647,-0.0010
 0142,0.00027782,-0.00009734,0.00052167,0.00043127,-0.00175084,-0.08250
 853,0.08255858,-0.00007440,-0.00020581,0.00004064,0.00011012,0.0004902
 5,-0.00001879,0.00024236,-0.00016266,0.00011374,-0.00014555,-0.0000177
 1,-0.00000764,-0.00000449,0.00018331,-0.00000158,0.00016217,-0.0000222
 7,0.00001302,0.00021117,-0.00053528,-0.00007058,-0.00007463,0.00002547
 ,-0.00016698,0.00000848,-0.00023671,0.00002003,0.00016500,0.00012622,-
 0.00000100,0.00055201,-0.00012265,-0.00222489,-0.00835206,-0.00038489,
 0.00236082,-0.00019225,0.00230436,0.00376903,-0.00062848,0.00000804,0.
 00010420,0.00007773,0.00021181,-0.00001386,0.00009309,-0.00018207,-0.0
 0006089,-0.00026706,0.00047252,-0.00005647,0.00011707,-0.00014183,0.00
 002746,0.00046010,0.00027748,-0.00089590,-0.05727671,0.02389398,-0.046
 76383,0.00421665,-0.00038344,0.00502373,0.00016167,0.00240826,0.007608
 51,-0.00045935,0.00042589,-0.00006670,-0.00020426,-0.00063938,-0.00009
 531,0.00081488,-0.00045193,0.00044177,-0.00009656,-0.00036277,-0.00051
 227,0.00256192,0.00056025,-0.00200259,0.00073459,-0.00008212,0.0002136
 1,0.00013753,0.00020541,0.00008546,-0.00011506,-0.00013980,-0.00016561
 ,0.00006031,0.00001952,-0.00005485,-0.00009628,0.00001376,0.00003554,-
 0.00002905,0.00002017,-0.00002133,-0.00002581,-0.00000367,-0.00003253,
 -0.00000188,-0.00000753,0.00003211,0.00000159,-0.00000311,-0.00000727,
 -0.00000233,0.00000179,-0.00000240,0.00000719,-0.00000169,0.00000107,0
 .00001030,0.00000095,0.00000200,-0.00000502,0.00000056,0.00001022,-0.0
 0003710,0.00020640,0.00024295,0.00002714,-0.00024106,-0.00100013,0.000
 20100,-0.00000663,0.00020309,0.00043138,-0.00170613,-0.00469935,0.0566
 8934,-0.02542884,0.03876637,0.00008691,-0.00014260,0.00000896,-0.00008
 375,0.00005451,-0.00001062,0.00011070,-0.00015589,0.00003314,-0.000115
 60,0.00006794,-0.00002015,-0.00003919,0.00004375,-0.00000618,0.0000601
 5,0.00001422,0.00000763,0.00006998,-0.00010218,-0.00002239,-0.00001272
 ,0.00013409,0.00000156,-0.00009317,-0.00017332,0.00000125,0.00017689,0
 .00001451,0.00001458,-0.00002641,0.00015245,-0.00005731,-0.00011973,-0
 .00032996,0.00014697,-0.00006970,0.00004970,-0.00002647,-0.00005353,-0
 .00004653,-0.00000770,-0.00004366,0.00018544,-0.00001765,0.00029883,-0
 .00018789,-0.00000193,-0.00013087,-0.00032935,-0.00006824,0.00001259,0
 .00014970,0.00002983,-0.00006742,-0.00004032,0.00001229,-0.00024531,0.
 00050979,0.00064591,0.00017418,0.00024283,0.00008118,-0.00011847,0.000
 05811,-0.00012978,0.00000223,0.00027731,0.00004023,-0.00027498,-0.0002
 4523,-0.00020348,-0.00009602,0.00092834,0.00062426,0.00085750,0.000115
 88,0.00215136,-0.00173293,-0.00533501,-0.00187703,-0.25334305,-0.07615
 767,0.02877676,-0.00154255,0.00331228,-0.00083873,-0.01964863,-0.00732
 690,0.00206891,0.00102128,0.00031315,-0.00082850,-0.00795443,-0.003526
 44,0.00270401,-0.00021008,-0.00041183,-0.00113070,0.00003084,0.0000007
 0,-0.00003347,-0.00002398,-0.00000872,0.00004296,-0.00000568,-0.000010
 85,-0.00001037,-0.00000138,0.00000152,0.00000022,-0.00000020,-0.000000
 43,0.00000008,0.00000073,0.00000029,0.00000215,-0.00000002,-0.00000256
 ,0.00000304,0.00000067,0.00000118,-0.00000567,0.00000180,-0.00000040,0
 .00000899,-0.00001465,0.00000229,0.00000174,0.00002178,-0.00003977,0.0
 0010812,-0.00034762,0.00002730,-0.00016646,0.28348866,-0.00070337,0.00
 026515,-0.00008359,0.00028194,0.00114892,0.00010026,0.00044866,-0.0001
 5213,-0.00002423,0.00014793,0.00025993,0.00001409,0.00008123,-0.000194
 58,0.00000996,-0.00024550,-0.00002302,-0.00004432,0.00001856,-0.000288
 86,0.00002078,-0.00007793,0.00001471,-0.00002752,0.00004328,-0.0000052
 9,0.00000604,-0.00000524,0.00000946,0.00000293,-0.00018121,0.00015979,
 0.00002567,-0.00013920,-0.00041991,0.00008771,-0.00008301,-0.00001128,
 -0.00008372,0.00004844,-0.00002227,0.00000207,0.00009799,-0.00081288,0
 .00003477,-0.00070308,0.00040845,-0.00013383,-0.00038839,0.00218984,-0
 .00035747,0.00039471,-0.00129946,0.00004931,-0.00003545,0.00011916,-0.
 00003881,0.00019652,0.00013343,0.00010977,0.00003237,0.00026651,-0.000
 07075,0.00018799,-0.00005393,0.00009071,0.00064173,-0.00071957,-0.0000
 2283,0.00023470,0.00069651,-0.00012901,0.00179836,-0.00440354,0.001233
 54,-0.00332882,-0.00472638,-0.00695530,-0.02147952,-0.00761350,0.00761
 209,-0.08519424,-0.07354746,0.01596170,0.00269514,0.00149054,0.0029935
 6,0.01484605,0.00681403,-0.00424837,-0.00085716,0.00046935,-0.00008066
 ,0.00359416,0.00201927,-0.00090559,-0.00004462,0.00024360,0.00088612,-
 0.00008339,0.00000025,-0.00000453,-0.00000855,-0.00000605,-0.00000166,
 -0.00000634,-0.00003657,0.00006753,0.00000524,-0.00000178,0.00000267,-
 0.00000434,0.00000203,0.00000080,0.00000428,0.00000041,0.00000193,-0.0
 0000222,-0.00000124,0.00000239,-0.00000439,0.00001105,0.00000593,-0.00
 000548,0.00001353,-0.00000083,-0.00003629,0.00000211,-0.00000087,0.000
 03742,0.00004275,-0.00008120,-0.00013552,-0.00023959,-0.00038645,0.087
 91656,0.07779850,0.00002523,0.00000242,-0.00001282,0.00001434,-0.00015
 652,0.00002113,-0.00009229,0.00009236,-0.00000469,0.00003243,-0.000060
 95,0.00000611,-0.00000409,-0.00001648,0.00000421,-0.00000707,-0.000005
 25,-0.00000512,-0.00002968,0.00007862,-0.00001087,0.00001640,-0.000038
 72,-0.00000067,0.00002435,0.00006822,-0.00000143,-0.00007416,-0.000012
 61,-0.00000644,0.00006478,0.00001171,0.00000362,-0.00008986,-0.0000429
 4,0.00003667,-0.00004372,0.00002866,-0.00001344,0.00000648,0.00002090,
 -0.00000714,-0.00007920,-0.00002602,-0.00002748,-0.00004374,-0.0001812
 0,0.00006540,-0.00007068,-0.00035549,-0.00020073,-0.00016033,0.0002174
 1,-0.00010995,-0.00007988,0.00007867,-0.00006765,0.00022661,-0.0000688
 2,-0.00009931,-0.00006561,-0.00022729,0.00004595,0.00012310,0.00005540
 ,0.00001882,0.00028274,-0.00036981,-0.00000371,0.00024879,0.00051735,0
 .00031582,-0.00124275,0.00015464,0.00058688,0.00226911,-0.00161384,-0.
 00097759,-0.00718064,-0.00575390,-0.00358524,0.02864390,0.01511965,-0.
 02753546,-0.00075277,0.00277115,-0.00121407,-0.01899898,-0.00615120,-0
 .00139054,0.00102064,-0.00016265,0.00035266,0.02832584,0.01214064,-0.0
 0808181,-0.00036368,-0.00026982,-0.00098742,0.00004293,0.00000430,-0.0
 0002315,-0.00000556,-0.00000494,0.00000264,-0.00000296,-0.00001650,0.0
 0003046,0.00000610,0.00000266,0.00000185,-0.00000041,0.00000857,0.0000
 0133,-0.00000219,0.00000789,-0.00000003,-0.00000690,0.00000419,-0.0000
 0015,-0.00001173,0.00000801,0.00000666,-0.00001555,0.00002734,0.000002
 65,-0.00003454,-0.00000840,0.00002623,0.00015010,0.00010752,-0.0001346
 8,-0.00001160,-0.00034409,-0.00017263,-0.03205331,-0.01564085,0.043145
 12\\0.00000151,-0.00000217,-0.00000098,0.00000937,-0.00000632,-0.00002
 064,0.00000009,0.00001021,-0.00003348,-0.00000420,-0.00000371,0.000002
 56,-0.00000403,0.00000380,0.00000299,0.00000250,0.00000074,0.00000797,
 -0.00000629,-0.00000352,-0.00000934,0.00000093,-0.00000184,-0.00000044
 ,-0.00000099,-0.00000051,0.00000723,-0.00000153,0.00000032,0.00000671,
 0.00000445,0.00000188,0.00000702,0.00000800,-0.00000454,0.00000302,-0.
 00000540,0.00000732,0.00000450,0.00000123,-0.00000189,0.00000847,-0.00
 000135,0.00000218,-0.00000043,-0.00000067,0.00000529,-0.00000013,0.000
 00894,-0.00001056,0.00000875,-0.00001300,0.00000335,0.00000535,0.00000
 085,-0.00000391,0.00000325,-0.00000208,-0.00000159,0.00000297,0.000000
 95,-0.00000022,0.00000208,0.00000050,0.00000015,0.00000534,-0.00000038
 ,-0.00000513,-0.00000520,-0.00000270,0.00000035,0.00000033,0.00002034,
 -0.00001300,0.00000397,-0.00002052,0.00000376,-0.00002279,0.00000222,0
 .00001610,0.00001109,0.00000112,-0.00001373,0.00001747,0.00000426,0.00
 001229,0.,-0.00000938,-0.00000027,-0.00000791,0.00000203,0.00000064,0.
 00000407,0.00000081,0.00000269,0.00000026,0.00000360,0.00000049,-0.000
 00116,0.00000040,0.00000031,-0.00000089,-0.00000020,0.00000215,-0.0000
 0224,0.00000019,-0.00000075,-0.00000357,0.00000023,0.00000039,-0.00000
 640,-0.00000042,0.00000024,-0.00000564,-0.00000132,-0.00000029,-0.0000
 0279,-0.00000095,-0.00000050,-0.00000127,-0.00000046,-0.00000149,0.000
 00185,-0.00000017,-0.00000029,0.00000336,0.00000037,-0.00000011,0.0000
 0390,0.00000174,0.00000054,0.00000444,-0.00000029,0.00000109,-0.000000
 70,-0.00000029,0.00000005,-0.00000295\\\@


 NATURE REVEALS EVERY SECRET ONCE.
                    - RALPH WALDO EMERSON
 Job cpu time:       0 days 23 hours 13 minutes 43.8 seconds.
 Elapsed time:       0 days  1 hours  9 minutes 54.3 seconds.
 File lengths (MBytes):  RWF=   2289 Int=      0 D2E=      0 Chk=     57 Scr=      1
 Normal termination of Gaussian 16 at Wed Jun 12 17:45:46 2019.
