 Entering Gaussian System, Link 0=/share/apps/gaussian16/g16/g16
 Initial command:
 /share/apps/gaussian16/g16/l1.exe "/home/am2145//scratch/4440/Gau-32403.inp" -scrdir="/home/am2145//scratch/4440/"
 Entering Link 1 = /share/apps/gaussian16/g16/l1.exe PID=     32404.
  
 Copyright (c) 1988,1990,1992,1993,1995,1998,2003,2009,2016,
            Gaussian, Inc.  All Rights Reserved.
  
 This is part of the Gaussian(R) 16 program.  It is based on
 the Gaussian(R) 09 system (copyright 2009, Gaussian, Inc.),
 the Gaussian(R) 03 system (copyright 2003, Gaussian, Inc.),
 the Gaussian(R) 98 system (copyright 1998, Gaussian, Inc.),
 the Gaussian(R) 94 system (copyright 1995, Gaussian, Inc.),
 the Gaussian 92(TM) system (copyright 1992, Gaussian, Inc.),
 the Gaussian 90(TM) system (copyright 1990, Gaussian, Inc.),
 the Gaussian 88(TM) system (copyright 1988, Gaussian, Inc.),
 the Gaussian 86(TM) system (copyright 1986, Carnegie Mellon
 University), and the Gaussian 82(TM) system (copyright 1983,
 Carnegie Mellon University). Gaussian is a federally registered
 trademark of Gaussian, Inc.
  
 This software contains proprietary and confidential information,
 including trade secrets, belonging to Gaussian, Inc.
  
 This software is provided under written license and may be
 used, copied, transmitted, or stored only in accord with that
 written license.
  
 The following legend is applicable only to US Government
 contracts under FAR:
  
                    RESTRICTED RIGHTS LEGEND
  
 Use, reproduction and disclosure by the US Government is
 subject to restrictions as set forth in subparagraphs (a)
 and (c) of the Commercial Computer Software - Restricted
 Rights clause in FAR 52.227-19.
  
 Gaussian, Inc.
 340 Quinnipiac St., Bldg. 40, Wallingford CT 06492
  
  
 ---------------------------------------------------------------
 Warning -- This program may not be used in any manner that
 competes with the business of Gaussian, Inc. or will provide
 assistance to any competitor of Gaussian, Inc.  The licensee
 of this program is prohibited from giving any competitor of
 Gaussian, Inc. access to this program.  By using this program,
 the user acknowledges that Gaussian, Inc. is engaged in the
 business of creating and licensing software in the field of
 computational chemistry and represents and warrants to the
 licensee that it is not a competitor of Gaussian, Inc. and that
 it will not use this program in any manner prohibited above.
 ---------------------------------------------------------------
  

 Cite this work as:
 Gaussian 16, Revision A.03,
 M. J. Frisch, G. W. Trucks, H. B. Schlegel, G. E. Scuseria, 
 M. A. Robb, J. R. Cheeseman, G. Scalmani, V. Barone, 
 G. A. Petersson, H. Nakatsuji, X. Li, M. Caricato, A. V. Marenich, 
 J. Bloino, B. G. Janesko, R. Gomperts, B. Mennucci, H. P. Hratchian, 
 J. V. Ortiz, A. F. Izmaylov, J. L. Sonnenberg, D. Williams-Young, 
 F. Ding, F. Lipparini, F. Egidi, J. Goings, B. Peng, A. Petrone, 
 T. Henderson, D. Ranasinghe, V. G. Zakrzewski, J. Gao, N. Rega, 
 G. Zheng, W. Liang, M. Hada, M. Ehara, K. Toyota, R. Fukuda, 
 J. Hasegawa, M. Ishida, T. Nakajima, Y. Honda, O. Kitao, H. Nakai, 
 T. Vreven, K. Throssell, J. A. Montgomery, Jr., J. E. Peralta, 
 F. Ogliaro, M. J. Bearpark, J. J. Heyd, E. N. Brothers, K. N. Kudin, 
 V. N. Staroverov, T. A. Keith, R. Kobayashi, J. Normand, 
 K. Raghavachari, A. P. Rendell, J. C. Burant, S. S. Iyengar, 
 J. Tomasi, M. Cossi, J. M. Millam, M. Klene, C. Adamo, R. Cammi, 
 J. W. Ochterski, R. L. Martin, K. Morokuma, O. Farkas, 
 J. B. Foresman, and D. J. Fox, Gaussian, Inc., Wallingford CT, 2016.
 
 ******************************************
 Gaussian 16:  ES64L-G16RevA.03 25-Dec-2016
                10-Jun-2019 
 ******************************************
 %nprocshared=20
 Will use up to   20 processors via shared memory.
 %mem=100GB
 %chk=7-path-2b.chk
 -------------------------------------------
 # opt freq b3lyp/6-311+g(d,p) int=grid=fine
 -------------------------------------------
 1/18=20,19=15,26=3,38=1/1,3;
 2/9=110,12=2,17=6,18=5,40=1/2;
 3/5=4,6=6,7=111,11=2,25=1,30=1,71=1,74=-5,75=-4/1,2,3;
 4//1;
 5/5=2,38=5/2;
 6/7=2,8=2,9=2,10=2,28=1/1;
 7//1,2,3,16;
 1/18=20,19=15,26=3/3(2);
 2/9=110/2;
 99//99;
 2/9=110/2;
 3/5=4,6=6,7=111,11=2,25=1,30=1,71=1,74=-5,75=-4/1,2,3;
 4/5=5,16=3,69=1/1;
 5/5=2,38=5/2;
 7//1,2,3,16;
 1/18=20,19=15,26=3/3(-5);
 2/9=110/2;
 6/7=2,8=2,9=2,10=2,19=2,28=1/1;
 99/9=1/99;
 ---------
 7-path-2b
 ---------
 Symbolic Z-matrix:
 Charge =  0 Multiplicity = 2
 C                     3.84097  -0.63454   0.03635 
 C                    -1.77094   2.81602   0.13196 
 C                    -3.05141   2.30605  -0.20716 
 C                    -3.26025   0.92336  -0.32642 
 C                    -2.10948   0.1552   -0.21068 
 C                    -0.80283   0.58143  -0.00017 
 C                    -0.6452    1.94038   0.28113 
 C                     0.02016  -0.6532    0.0434 
 C                    -2.16145  -1.19293  -0.1743 
 C                    -0.91918  -1.68549   0.02999 
 C                    -4.48169   0.21411  -0.4941 
 C                    -3.32257  -1.9516   -0.26829 
 C                    -4.51265  -1.20633  -0.46326 
 C                    -0.70179  -3.04023   0.19607 
 C                    -3.13651  -3.34951  -0.12989 
 C                    -1.84391  -3.88639   0.11376 
 C                     1.38994  -1.01433   0.06474 
 C                     1.65712  -2.38561   0.40664 
 C                     0.63318  -3.37002   0.45741 
 C                     2.53004  -0.18737  -0.27094 
 C                     2.9647   -2.79445   0.6756 
 C                     4.03474  -1.91577   0.54889 
 C                     0.54826   2.48082   0.77358 
 C                    -1.60574   4.1882    0.37953 
 C                    -0.38263   4.6993    0.81787 
 C                     0.69021   3.84208   1.02944 
 C                     2.4504    1.02203  -0.99796 
 C                     3.56843   1.81633  -1.27323 
 C                     4.96033   0.17641  -0.22041 
 C                     4.82378   1.40531  -0.85779 
 H                    -5.46526  -1.72165  -0.55744 
 H                    -3.99131  -4.01876  -0.18566 
 H                    -1.7293   -4.96053   0.2393 
 H                     0.88372  -4.40814   0.66649 
 H                    -5.41436   0.76282  -0.60262 
 H                    -3.90169   2.97911  -0.29081 
 H                    -2.44234   4.87359   0.2578 
 H                    -0.27678   5.76295   1.0148 
 H                     1.64131   4.22049   1.39149 
 H                     3.44842   2.74652  -1.82206 
 H                     5.69817   2.0153   -1.06519 
 H                     5.95933  -0.16215   0.04674 
 H                     5.03518  -2.27596   0.77904 
 H                     3.17258  -3.81645   0.98731 
 H                     1.49862   1.34761  -1.40943 
 

 GradGradGradGradGradGradGradGradGradGradGradGradGradGradGradGradGradGrad
 Berny optimization.
 Initialization pass.
                           ----------------------------
                           !    Initial Parameters    !
                           ! (Angstroms and Degrees)  !
 --------------------------                            --------------------------
 ! Name  Definition              Value          Derivative Info.                !
 --------------------------------------------------------------------------------
 ! R1    R(1,20)                 1.4188         estimate D2E/DX2                !
 ! R2    R(1,22)                 1.3935         estimate D2E/DX2                !
 ! R3    R(1,29)                 1.4059         estimate D2E/DX2                !
 ! R4    R(2,3)                  1.4194         estimate D2E/DX2                !
 ! R5    R(2,7)                  1.434          estimate D2E/DX2                !
 ! R6    R(2,24)                 1.4041         estimate D2E/DX2                !
 ! R7    R(3,4)                  1.4034         estimate D2E/DX2                !
 ! R8    R(3,36)                 1.0877         estimate D2E/DX2                !
 ! R9    R(4,5)                  1.3884         estimate D2E/DX2                !
 ! R10   R(4,11)                 1.4223         estimate D2E/DX2                !
 ! R11   R(5,6)                  1.3904         estimate D2E/DX2                !
 ! R12   R(5,9)                  1.3496         estimate D2E/DX2                !
 ! R13   R(6,7)                  1.3967         estimate D2E/DX2                !
 ! R14   R(6,8)                  1.4844         estimate D2E/DX2                !
 ! R15   R(7,23)                 1.3996         estimate D2E/DX2                !
 ! R16   R(8,10)                 1.3958         estimate D2E/DX2                !
 ! R17   R(8,17)                 1.4167         estimate D2E/DX2                !
 ! R18   R(9,10)                 1.3519         estimate D2E/DX2                !
 ! R19   R(9,12)                 1.3902         estimate D2E/DX2                !
 ! R20   R(10,14)                1.3821         estimate D2E/DX2                !
 ! R21   R(11,13)                1.4211         estimate D2E/DX2                !
 ! R22   R(11,35)                1.0875         estimate D2E/DX2                !
 ! R23   R(12,13)                1.4176         estimate D2E/DX2                !
 ! R24   R(12,15)                1.417          estimate D2E/DX2                !
 ! R25   R(13,31)                1.0871         estimate D2E/DX2                !
 ! R26   R(14,16)                1.4238         estimate D2E/DX2                !
 ! R27   R(14,19)                1.3997         estimate D2E/DX2                !
 ! R28   R(15,16)                1.4207         estimate D2E/DX2                !
 ! R29   R(15,32)                1.0871         estimate D2E/DX2                !
 ! R30   R(16,33)                1.0875         estimate D2E/DX2                !
 ! R31   R(17,18)                1.4383         estimate D2E/DX2                !
 ! R32   R(17,20)                1.4479         estimate D2E/DX2                !
 ! R33   R(18,19)                1.4213         estimate D2E/DX2                !
 ! R34   R(18,21)                1.3962         estimate D2E/DX2                !
 ! R35   R(19,34)                1.0882         estimate D2E/DX2                !
 ! R36   R(20,27)                1.4133         estimate D2E/DX2                !
 ! R37   R(21,22)                1.3904         estimate D2E/DX2                !
 ! R38   R(21,44)                1.0885         estimate D2E/DX2                !
 ! R39   R(22,43)                1.0879         estimate D2E/DX2                !
 ! R40   R(23,26)                1.3924         estimate D2E/DX2                !
 ! R41   R(24,25)                1.3962         estimate D2E/DX2                !
 ! R42   R(24,37)                1.0883         estimate D2E/DX2                !
 ! R43   R(25,26)                1.3895         estimate D2E/DX2                !
 ! R44   R(25,38)                1.0869         estimate D2E/DX2                !
 ! R45   R(26,39)                1.0858         estimate D2E/DX2                !
 ! R46   R(27,28)                1.3988         estimate D2E/DX2                !
 ! R47   R(27,45)                1.0868         estimate D2E/DX2                !
 ! R48   R(28,30)                1.3847         estimate D2E/DX2                !
 ! R49   R(28,40)                1.0867         estimate D2E/DX2                !
 ! R50   R(29,30)                1.3911         estimate D2E/DX2                !
 ! R51   R(29,42)                1.0881         estimate D2E/DX2                !
 ! R52   R(30,41)                1.0861         estimate D2E/DX2                !
 ! A1    A(20,1,22)            119.8637         estimate D2E/DX2                !
 ! A2    A(20,1,29)            120.9515         estimate D2E/DX2                !
 ! A3    A(22,1,29)            119.1315         estimate D2E/DX2                !
 ! A4    A(3,2,7)              120.9086         estimate D2E/DX2                !
 ! A5    A(3,2,24)             119.9597         estimate D2E/DX2                !
 ! A6    A(7,2,24)             119.0815         estimate D2E/DX2                !
 ! A7    A(2,3,4)              120.565          estimate D2E/DX2                !
 ! A8    A(2,3,36)             120.085          estimate D2E/DX2                !
 ! A9    A(4,3,36)             119.1306         estimate D2E/DX2                !
 ! A10   A(3,4,5)              114.4977         estimate D2E/DX2                !
 ! A11   A(3,4,11)             128.982          estimate D2E/DX2                !
 ! A12   A(5,4,11)             116.4683         estimate D2E/DX2                !
 ! A13   A(4,5,6)              128.4554         estimate D2E/DX2                !
 ! A14   A(4,5,9)              121.5322         estimate D2E/DX2                !
 ! A15   A(6,5,9)              109.774          estimate D2E/DX2                !
 ! A16   A(5,6,7)              115.7734         estimate D2E/DX2                !
 ! A17   A(5,6,8)              105.6935         estimate D2E/DX2                !
 ! A18   A(7,6,8)              137.797          estimate D2E/DX2                !
 ! A19   A(2,7,6)              118.9855         estimate D2E/DX2                !
 ! A20   A(2,7,23)             118.049          estimate D2E/DX2                !
 ! A21   A(6,7,23)             122.8746         estimate D2E/DX2                !
 ! A22   A(6,8,10)             103.9887         estimate D2E/DX2                !
 ! A23   A(6,8,17)             138.4594         estimate D2E/DX2                !
 ! A24   A(10,8,17)            117.536          estimate D2E/DX2                !
 ! A25   A(5,9,10)             109.4289         estimate D2E/DX2                !
 ! A26   A(5,9,12)             125.1325         estimate D2E/DX2                !
 ! A27   A(10,9,12)            125.3721         estimate D2E/DX2                !
 ! A28   A(8,10,9)             110.5123         estimate D2E/DX2                !
 ! A29   A(8,10,14)            128.1661         estimate D2E/DX2                !
 ! A30   A(9,10,14)            121.3215         estimate D2E/DX2                !
 ! A31   A(4,11,13)            120.9682         estimate D2E/DX2                !
 ! A32   A(4,11,35)            119.7778         estimate D2E/DX2                !
 ! A33   A(13,11,35)           119.1953         estimate D2E/DX2                !
 ! A34   A(9,12,13)            115.0591         estimate D2E/DX2                !
 ! A35   A(9,12,15)            114.9675         estimate D2E/DX2                !
 ! A36   A(13,12,15)           129.9621         estimate D2E/DX2                !
 ! A37   A(11,13,12)           120.6742         estimate D2E/DX2                !
 ! A38   A(11,13,31)           119.4061         estimate D2E/DX2                !
 ! A39   A(12,13,31)           119.8882         estimate D2E/DX2                !
 ! A40   A(10,14,16)           116.7064         estimate D2E/DX2                !
 ! A41   A(10,14,19)           113.791          estimate D2E/DX2                !
 ! A42   A(16,14,19)           129.4815         estimate D2E/DX2                !
 ! A43   A(12,15,16)           120.5983         estimate D2E/DX2                !
 ! A44   A(12,15,32)           119.94           estimate D2E/DX2                !
 ! A45   A(16,15,32)           119.4447         estimate D2E/DX2                !
 ! A46   A(14,16,15)           121.0083         estimate D2E/DX2                !
 ! A47   A(14,16,33)           119.7213         estimate D2E/DX2                !
 ! A48   A(15,16,33)           119.2704         estimate D2E/DX2                !
 ! A49   A(8,17,18)            115.2272         estimate D2E/DX2                !
 ! A50   A(8,17,20)            127.7518         estimate D2E/DX2                !
 ! A51   A(18,17,20)           116.9606         estimate D2E/DX2                !
 ! A52   A(17,18,19)           122.3443         estimate D2E/DX2                !
 ! A53   A(17,18,21)           119.9311         estimate D2E/DX2                !
 ! A54   A(19,18,21)           117.7114         estimate D2E/DX2                !
 ! A55   A(14,19,18)           121.1475         estimate D2E/DX2                !
 ! A56   A(14,19,34)           118.7002         estimate D2E/DX2                !
 ! A57   A(18,19,34)           120.1149         estimate D2E/DX2                !
 ! A58   A(1,20,17)            119.8242         estimate D2E/DX2                !
 ! A59   A(1,20,27)            115.6693         estimate D2E/DX2                !
 ! A60   A(17,20,27)           124.3066         estimate D2E/DX2                !
 ! A61   A(18,21,22)           121.2091         estimate D2E/DX2                !
 ! A62   A(18,21,44)           120.5949         estimate D2E/DX2                !
 ! A63   A(22,21,44)           118.1954         estimate D2E/DX2                !
 ! A64   A(1,22,21)            120.5021         estimate D2E/DX2                !
 ! A65   A(1,22,43)            120.6699         estimate D2E/DX2                !
 ! A66   A(21,22,43)           118.6336         estimate D2E/DX2                !
 ! A67   A(7,23,26)            121.9447         estimate D2E/DX2                !
 ! A68   A(2,24,25)            121.076          estimate D2E/DX2                !
 ! A69   A(2,24,37)            120.3503         estimate D2E/DX2                !
 ! A70   A(25,24,37)           118.5537         estimate D2E/DX2                !
 ! A71   A(24,25,26)           119.8924         estimate D2E/DX2                !
 ! A72   A(24,25,38)           120.0289         estimate D2E/DX2                !
 ! A73   A(26,25,38)           120.0642         estimate D2E/DX2                !
 ! A74   A(23,26,25)           119.7669         estimate D2E/DX2                !
 ! A75   A(23,26,39)           119.4275         estimate D2E/DX2                !
 ! A76   A(25,26,39)           120.8056         estimate D2E/DX2                !
 ! A77   A(20,27,28)           122.8259         estimate D2E/DX2                !
 ! A78   A(20,27,45)           120.0289         estimate D2E/DX2                !
 ! A79   A(28,27,45)           117.0871         estimate D2E/DX2                !
 ! A80   A(27,28,30)           119.8024         estimate D2E/DX2                !
 ! A81   A(27,28,40)           119.814          estimate D2E/DX2                !
 ! A82   A(30,28,40)           120.3796         estimate D2E/DX2                !
 ! A83   A(1,29,30)            121.0041         estimate D2E/DX2                !
 ! A84   A(1,29,42)            120.4424         estimate D2E/DX2                !
 ! A85   A(30,29,42)           118.5213         estimate D2E/DX2                !
 ! A86   A(28,30,29)           119.2538         estimate D2E/DX2                !
 ! A87   A(28,30,41)           120.3879         estimate D2E/DX2                !
 ! A88   A(29,30,41)           120.3058         estimate D2E/DX2                !
 ! D1    D(22,1,20,17)           5.7533         estimate D2E/DX2                !
 ! D2    D(22,1,20,27)        -169.329          estimate D2E/DX2                !
 ! D3    D(29,1,20,17)        -176.9242         estimate D2E/DX2                !
 ! D4    D(29,1,20,27)           7.9935         estimate D2E/DX2                !
 ! D5    D(20,1,22,21)           4.4731         estimate D2E/DX2                !
 ! D6    D(20,1,22,43)         179.338          estimate D2E/DX2                !
 ! D7    D(29,1,22,21)        -172.8982         estimate D2E/DX2                !
 ! D8    D(29,1,22,43)           1.9667         estimate D2E/DX2                !
 ! D9    D(20,1,29,30)          -3.9906         estimate D2E/DX2                !
 ! D10   D(20,1,29,42)         178.1049         estimate D2E/DX2                !
 ! D11   D(22,1,29,30)         173.3512         estimate D2E/DX2                !
 ! D12   D(22,1,29,42)          -4.5533         estimate D2E/DX2                !
 ! D13   D(7,2,3,4)              3.7894         estimate D2E/DX2                !
 ! D14   D(7,2,3,36)           178.3624         estimate D2E/DX2                !
 ! D15   D(24,2,3,4)          -173.6113         estimate D2E/DX2                !
 ! D16   D(24,2,3,36)            0.9617         estimate D2E/DX2                !
 ! D17   D(3,2,7,6)              4.2704         estimate D2E/DX2                !
 ! D18   D(3,2,7,23)          -172.3652         estimate D2E/DX2                !
 ! D19   D(24,2,7,6)          -178.3064         estimate D2E/DX2                !
 ! D20   D(24,2,7,23)            5.0579         estimate D2E/DX2                !
 ! D21   D(3,2,24,25)          174.8559         estimate D2E/DX2                !
 ! D22   D(3,2,24,37)           -3.494          estimate D2E/DX2                !
 ! D23   D(7,2,24,25)           -2.5923         estimate D2E/DX2                !
 ! D24   D(7,2,24,37)          179.0578         estimate D2E/DX2                !
 ! D25   D(2,3,4,5)             -5.6701         estimate D2E/DX2                !
 ! D26   D(2,3,4,11)           171.5859         estimate D2E/DX2                !
 ! D27   D(36,3,4,5)           179.7056         estimate D2E/DX2                !
 ! D28   D(36,3,4,11)           -3.0384         estimate D2E/DX2                !
 ! D29   D(3,4,5,6)             -0.2457         estimate D2E/DX2                !
 ! D30   D(3,4,5,9)            173.5473         estimate D2E/DX2                !
 ! D31   D(11,4,5,6)          -177.8631         estimate D2E/DX2                !
 ! D32   D(11,4,5,9)            -4.0701         estimate D2E/DX2                !
 ! D33   D(3,4,11,13)         -173.6464         estimate D2E/DX2                !
 ! D34   D(3,4,11,35)            3.545          estimate D2E/DX2                !
 ! D35   D(5,4,11,13)            3.5642         estimate D2E/DX2                !
 ! D36   D(5,4,11,35)         -179.2444         estimate D2E/DX2                !
 ! D37   D(4,5,6,7)              7.9617         estimate D2E/DX2                !
 ! D38   D(4,5,6,8)            179.8994         estimate D2E/DX2                !
 ! D39   D(9,5,6,7)           -166.4183         estimate D2E/DX2                !
 ! D40   D(9,5,6,8)              5.5194         estimate D2E/DX2                !
 ! D41   D(4,5,9,10)          -175.9903         estimate D2E/DX2                !
 ! D42   D(4,5,9,12)             1.1728         estimate D2E/DX2                !
 ! D43   D(6,5,9,10)            -1.1524         estimate D2E/DX2                !
 ! D44   D(6,5,9,12)           176.0107         estimate D2E/DX2                !
 ! D45   D(5,6,7,2)             -9.461          estimate D2E/DX2                !
 ! D46   D(5,6,7,23)           167.0035         estimate D2E/DX2                !
 ! D47   D(8,6,7,2)           -177.8658         estimate D2E/DX2                !
 ! D48   D(8,6,7,23)            -1.4013         estimate D2E/DX2                !
 ! D49   D(5,6,8,10)            -7.5868         estimate D2E/DX2                !
 ! D50   D(5,6,8,17)           170.8295         estimate D2E/DX2                !
 ! D51   D(7,6,8,10)           161.5766         estimate D2E/DX2                !
 ! D52   D(7,6,8,17)           -20.0071         estimate D2E/DX2                !
 ! D53   D(2,7,23,26)           -4.4371         estimate D2E/DX2                !
 ! D54   D(6,7,23,26)          179.0672         estimate D2E/DX2                !
 ! D55   D(6,8,10,9)             7.2061         estimate D2E/DX2                !
 ! D56   D(6,8,10,14)         -172.6406         estimate D2E/DX2                !
 ! D57   D(17,8,10,9)         -171.6096         estimate D2E/DX2                !
 ! D58   D(17,8,10,14)           8.5437         estimate D2E/DX2                !
 ! D59   D(6,8,17,18)          166.7468         estimate D2E/DX2                !
 ! D60   D(6,8,17,20)          -16.1911         estimate D2E/DX2                !
 ! D61   D(10,8,17,18)         -14.9863         estimate D2E/DX2                !
 ! D62   D(10,8,17,20)         162.0758         estimate D2E/DX2                !
 ! D63   D(5,9,10,8)            -4.1162         estimate D2E/DX2                !
 ! D64   D(5,9,10,14)          175.7427         estimate D2E/DX2                !
 ! D65   D(12,9,10,8)          178.7291         estimate D2E/DX2                !
 ! D66   D(12,9,10,14)          -1.4119         estimate D2E/DX2                !
 ! D67   D(5,9,12,13)            2.2902         estimate D2E/DX2                !
 ! D68   D(5,9,12,15)         -176.6088         estimate D2E/DX2                !
 ! D69   D(10,9,12,13)         179.0087         estimate D2E/DX2                !
 ! D70   D(10,9,12,15)           0.1098         estimate D2E/DX2                !
 ! D71   D(8,10,14,16)        -178.9248         estimate D2E/DX2                !
 ! D72   D(8,10,14,19)           2.5849         estimate D2E/DX2                !
 ! D73   D(9,10,14,16)           1.2432         estimate D2E/DX2                !
 ! D74   D(9,10,14,19)        -177.2471         estimate D2E/DX2                !
 ! D75   D(4,11,13,12)          -0.2017         estimate D2E/DX2                !
 ! D76   D(4,11,13,31)         177.7547         estimate D2E/DX2                !
 ! D77   D(35,11,13,12)       -177.4092         estimate D2E/DX2                !
 ! D78   D(35,11,13,31)          0.5472         estimate D2E/DX2                !
 ! D79   D(9,12,13,11)          -2.6634         estimate D2E/DX2                !
 ! D80   D(9,12,13,31)         179.39           estimate D2E/DX2                !
 ! D81   D(15,12,13,11)        176.0343         estimate D2E/DX2                !
 ! D82   D(15,12,13,31)         -1.9122         estimate D2E/DX2                !
 ! D83   D(9,12,15,16)           1.2444         estimate D2E/DX2                !
 ! D84   D(9,12,15,32)         179.7334         estimate D2E/DX2                !
 ! D85   D(13,12,15,16)       -177.4543         estimate D2E/DX2                !
 ! D86   D(13,12,15,32)          1.0347         estimate D2E/DX2                !
 ! D87   D(10,14,16,15)          0.1016         estimate D2E/DX2                !
 ! D88   D(10,14,16,33)       -179.8645         estimate D2E/DX2                !
 ! D89   D(19,14,16,15)        178.3117         estimate D2E/DX2                !
 ! D90   D(19,14,16,33)         -1.6545         estimate D2E/DX2                !
 ! D91   D(10,14,19,18)         -6.1933         estimate D2E/DX2                !
 ! D92   D(10,14,19,34)        176.0302         estimate D2E/DX2                !
 ! D93   D(16,14,19,18)        175.5542         estimate D2E/DX2                !
 ! D94   D(16,14,19,34)         -2.2224         estimate D2E/DX2                !
 ! D95   D(12,15,16,14)         -1.3717         estimate D2E/DX2                !
 ! D96   D(12,15,16,33)        178.5946         estimate D2E/DX2                !
 ! D97   D(32,15,16,14)       -179.8681         estimate D2E/DX2                !
 ! D98   D(32,15,16,33)          0.0982         estimate D2E/DX2                !
 ! D99   D(8,17,18,19)          12.0319         estimate D2E/DX2                !
 ! D100  D(8,17,18,21)        -169.3211         estimate D2E/DX2                !
 ! D101  D(20,17,18,19)       -165.3622         estimate D2E/DX2                !
 ! D102  D(20,17,18,21)         13.2847         estimate D2E/DX2                !
 ! D103  D(8,17,20,1)          168.6204         estimate D2E/DX2                !
 ! D104  D(8,17,20,27)         -16.7467         estimate D2E/DX2                !
 ! D105  D(18,17,20,1)         -14.3614         estimate D2E/DX2                !
 ! D106  D(18,17,20,27)        160.2715         estimate D2E/DX2                !
 ! D107  D(17,18,19,14)         -1.1248         estimate D2E/DX2                !
 ! D108  D(17,18,19,34)        176.6206         estimate D2E/DX2                !
 ! D109  D(21,18,19,14)       -179.8003         estimate D2E/DX2                !
 ! D110  D(21,18,19,34)         -2.0549         estimate D2E/DX2                !
 ! D111  D(17,18,21,22)         -3.5671         estimate D2E/DX2                !
 ! D112  D(17,18,21,44)        176.7023         estimate D2E/DX2                !
 ! D113  D(19,18,21,22)        175.1417         estimate D2E/DX2                !
 ! D114  D(19,18,21,44)         -4.5889         estimate D2E/DX2                !
 ! D115  D(1,20,27,28)          -7.001          estimate D2E/DX2                !
 ! D116  D(1,20,27,45)         170.1444         estimate D2E/DX2                !
 ! D117  D(17,20,27,28)        178.1646         estimate D2E/DX2                !
 ! D118  D(17,20,27,45)         -4.69           estimate D2E/DX2                !
 ! D119  D(18,21,22,1)          -5.6525         estimate D2E/DX2                !
 ! D120  D(18,21,22,43)        179.3795         estimate D2E/DX2                !
 ! D121  D(44,21,22,1)         174.0844         estimate D2E/DX2                !
 ! D122  D(44,21,22,43)         -0.8836         estimate D2E/DX2                !
 ! D123  D(7,23,26,25)           1.1925         estimate D2E/DX2                !
 ! D124  D(7,23,26,39)        -178.727          estimate D2E/DX2                !
 ! D125  D(2,24,25,26)          -0.7131         estimate D2E/DX2                !
 ! D126  D(2,24,25,38)        -179.3271         estimate D2E/DX2                !
 ! D127  D(37,24,25,26)        177.6657         estimate D2E/DX2                !
 ! D128  D(37,24,25,38)         -0.9482         estimate D2E/DX2                !
 ! D129  D(24,25,26,23)          1.465          estimate D2E/DX2                !
 ! D130  D(24,25,26,39)       -178.6166         estimate D2E/DX2                !
 ! D131  D(38,25,26,23)       -179.9215         estimate D2E/DX2                !
 ! D132  D(38,25,26,39)         -0.0032         estimate D2E/DX2                !
 ! D133  D(20,27,28,30)          1.7825         estimate D2E/DX2                !
 ! D134  D(20,27,28,40)       -178.9387         estimate D2E/DX2                !
 ! D135  D(45,27,28,30)       -175.4417         estimate D2E/DX2                !
 ! D136  D(45,27,28,40)          3.8371         estimate D2E/DX2                !
 ! D137  D(27,28,30,29)          2.7147         estimate D2E/DX2                !
 ! D138  D(27,28,30,41)       -179.9128         estimate D2E/DX2                !
 ! D139  D(40,28,30,29)       -176.5599         estimate D2E/DX2                !
 ! D140  D(40,28,30,41)          0.8126         estimate D2E/DX2                !
 ! D141  D(1,29,30,28)          -1.6144         estimate D2E/DX2                !
 ! D142  D(1,29,30,41)        -178.9891         estimate D2E/DX2                !
 ! D143  D(42,29,30,28)        176.3296         estimate D2E/DX2                !
 ! D144  D(42,29,30,41)         -1.0451         estimate D2E/DX2                !
 --------------------------------------------------------------------------------
 Trust Radius=3.00D-01 FncErr=1.00D-07 GrdErr=1.00D-06 EigMax=2.50D+02 EigMin=1.00D-04
 Number of steps in this run=    270 maximum allowed number of steps=    270.
 GradGradGradGradGradGradGradGradGradGradGradGradGradGradGradGradGradGrad

                          Input orientation:                          
 ---------------------------------------------------------------------
 Center     Atomic      Atomic             Coordinates (Angstroms)
 Number     Number       Type             X           Y           Z
 ---------------------------------------------------------------------
      1          6           0        3.840970   -0.634540    0.036350
      2          6           0       -1.770940    2.816020    0.131960
      3          6           0       -3.051410    2.306050   -0.207160
      4          6           0       -3.260250    0.923360   -0.326420
      5          6           0       -2.109480    0.155200   -0.210680
      6          6           0       -0.802830    0.581430   -0.000170
      7          6           0       -0.645200    1.940380    0.281130
      8          6           0        0.020160   -0.653200    0.043400
      9          6           0       -2.161450   -1.192930   -0.174300
     10          6           0       -0.919180   -1.685490    0.029990
     11          6           0       -4.481690    0.214110   -0.494100
     12          6           0       -3.322570   -1.951600   -0.268290
     13          6           0       -4.512650   -1.206330   -0.463260
     14          6           0       -0.701790   -3.040230    0.196070
     15          6           0       -3.136510   -3.349510   -0.129890
     16          6           0       -1.843910   -3.886390    0.113760
     17          6           0        1.389940   -1.014330    0.064740
     18          6           0        1.657120   -2.385610    0.406640
     19          6           0        0.633180   -3.370020    0.457410
     20          6           0        2.530040   -0.187370   -0.270940
     21          6           0        2.964700   -2.794450    0.675600
     22          6           0        4.034740   -1.915770    0.548890
     23          6           0        0.548260    2.480820    0.773580
     24          6           0       -1.605740    4.188200    0.379530
     25          6           0       -0.382630    4.699300    0.817870
     26          6           0        0.690210    3.842080    1.029440
     27          6           0        2.450400    1.022030   -0.997960
     28          6           0        3.568430    1.816330   -1.273230
     29          6           0        4.960330    0.176410   -0.220410
     30          6           0        4.823780    1.405310   -0.857790
     31          1           0       -5.465260   -1.721650   -0.557440
     32          1           0       -3.991310   -4.018760   -0.185660
     33          1           0       -1.729300   -4.960530    0.239300
     34          1           0        0.883720   -4.408140    0.666490
     35          1           0       -5.414360    0.762820   -0.602620
     36          1           0       -3.901690    2.979110   -0.290810
     37          1           0       -2.442340    4.873590    0.257800
     38          1           0       -0.276780    5.762950    1.014800
     39          1           0        1.641310    4.220490    1.391490
     40          1           0        3.448420    2.746520   -1.822060
     41          1           0        5.698170    2.015300   -1.065190
     42          1           0        5.959330   -0.162150    0.046740
     43          1           0        5.035180   -2.275960    0.779040
     44          1           0        3.172580   -3.816450    0.987310
     45          1           0        1.498620    1.347610   -1.409430
 ---------------------------------------------------------------------
                    Distance matrix (angstroms):
                    1          2          3          4          5
     1  C    0.000000
     2  C    6.588554   0.000000
     3  C    7.497417   1.419393   0.000000
     4  C    7.279147   2.451595   1.403449   0.000000
     5  C    6.007709   2.704066   2.348063   1.388430   0.000000
     6  C    4.800499   2.438870   2.841350   2.502452   1.390439
     7  C    5.178402   1.433976   2.482335   2.870877   2.360691
     8  C    3.820862   3.905300   4.272527   3.658333   2.292037
     9  C    6.032016   4.039551   3.610536   2.389390   1.349622
    10  C    4.874789   4.582520   4.531560   3.523313   2.205193
    11  C    8.382616   3.809206   2.550343   1.422346   2.389807
    12  C    7.289977   5.029707   4.266714   2.876223   2.431771
    13  C    8.388058   4.904137   3.812823   2.474431   2.773587
    14  C    5.142910   5.953390   5.853718   4.746447   3.515368
    15  C    7.488920   6.320372   5.656728   4.279177   3.652986
    16  C    6.549686   6.702832   6.317227   5.033237   4.063279
    17  C    2.480442   4.966615   5.551976   5.052912   3.699946
    18  C    2.823572   6.235704   6.675229   5.972201   4.585202
    19  C    4.236751   6.644757   6.799678   5.848615   4.516160
    20  C    1.418776   5.261284   6.113411   5.896122   4.652540
    21  C    2.416961   7.362011   7.936495   7.319574   5.935759
    22  C    1.393483   7.501306   8.283049   7.876783   6.528193
    23  C    4.592485   2.429552   3.734973   4.259158   3.666178
    24  C    7.283079   1.404087   2.444720   3.727593   4.106969
    25  C    6.848315   2.438159   3.728367   4.883423   4.968780
    26  C    5.563600   2.813455   4.229455   5.095431   4.792624
    27  C    2.397437   4.723858   5.704734   5.750846   4.707835
    28  C    2.792139   5.610955   6.722991   6.951598   6.010576
    29  C    1.405892   7.238902   8.289965   8.255126   7.069849
    30  C    2.434418   6.816160   7.953192   8.115798   7.074717
    31  H    9.388307   5.891835   4.708687   3.451307   3.860579
    32  H    8.535036   7.193410   6.394302   4.997881   4.578630
    33  H    7.055727   7.777402   7.399357   6.106063   5.149535
    34  H    4.835541   7.715013   7.831274   6.825192   5.527454
    35  H    9.382006   4.246145   2.849821   2.177671   3.383053
    36  H    8.550689   2.178400   1.087650   2.153792   3.345580
    37  H    8.358739   2.167996   2.679443   4.076102   4.753259
    38  H    7.670796   3.419988   4.598034   5.841369   6.025566
    39  H    5.499657   3.899026   5.314356   6.152038   5.758642
    40  H    3.878060   5.573575   6.711908   7.111055   6.340484
    41  H    3.418221   7.606703   8.796357   9.054910   8.071528
    42  H    2.170417   8.284554   9.346117   9.290761   8.079150
    43  H    2.161478   8.524684   9.346676   8.959456   7.611587
    44  H    3.387569   8.316229   8.811913   8.097715   6.716349
    45  H    3.392020   3.901555   4.802794   4.898953   3.984624
                    6          7          8          9         10
     6  C    0.000000
     7  C    1.396683   0.000000
     8  C    1.484427   2.688099   0.000000
     9  C    2.241545   3.510564   2.257903   0.000000
    10  C    2.270104   3.644869   1.395766   1.351882   0.000000
    11  C    3.730000   4.277808   4.616036   2.732315   4.071195
    12  C    3.582906   4.755805   3.599561   1.390185   2.436405
    13  C    4.144068   5.041138   4.594456   2.368928   3.658677
    14  C    3.628380   4.981658   2.498486   2.383338   1.382086
    15  C    4.573312   5.861612   4.155079   2.367182   2.776883
    16  C    4.588926   5.951148   3.732724   2.727368   2.388745
    17  C    2.712730   3.594291   1.416745   3.563904   2.404932
    18  C    3.875587   4.902104   2.410980   4.042456   2.696174
    19  C    4.229121   5.464950   2.815725   3.598435   2.330268
    20  C    3.431092   3.861897   2.572023   4.799017   3.772538
    21  C    5.103676   5.967043   3.695260   5.437335   4.090370
    22  C    5.471705   6.069879   4.238686   6.279990   4.986342
    23  C    2.455975   1.399618   3.261002   4.662343   4.479335
    24  C    3.714516   2.446429   5.118172   5.438024   5.924000
    25  C    4.219314   2.822884   5.423219   6.234338   6.455555
    26  C    3.731100   2.441260   4.650676   5.910354   5.843207
    27  C    3.431212   3.473065   3.129999   5.182048   4.443131
    28  C    4.717369   4.492895   4.519105   6.564664   5.839501
    29  C    5.781571   5.897889   5.016286   7.252377   6.172359
    30  C    5.750916   5.611879   5.303242   7.484080   6.582005
    31  H    5.230008   6.111190   5.620714   3.367715   4.584018
    32  H    5.600229   6.850233   5.241312   3.366576   3.863759
    33  H    5.623968   6.985670   4.653179   3.814791   3.380236
    34  H    5.308926   6.541392   3.903018   4.507501   3.326921
    35  H    4.654252   4.991247   5.653005   3.819665   5.157622
    36  H    3.928902   3.465660   5.355957   4.521938   5.545879
    37  H    4.601867   3.440055   6.054361   6.088372   6.737466
    38  H    5.306133   3.909737   6.496058   7.304123   7.540675
    39  H    4.599271   3.414664   5.310210   6.798367   6.579543
    40  H    5.106861   4.672365   5.176003   7.050179   6.492205
    41  H    6.741903   6.485101   6.371002   8.535810   7.660587
    42  H    6.803082   6.935084   5.959436   8.188921   7.045193
    43  H    6.546312   7.091696   5.322118   7.339843   6.030268
    44  H    6.010021   6.943718   4.564523   6.056738   4.711683
    45  H    2.805302   2.793803   2.880937   4.623419   4.137316
                   11         12         13         14         15
    11  C    0.000000
    12  C    2.466749   0.000000
    13  C    1.421112   1.417650   0.000000
    14  C    5.035346   2.875627   4.280252   0.000000
    15  C    3.826427   1.417013   2.568680   2.475836   0.000000
    16  C    4.913398   2.464916   3.825944   1.423798   1.420711
    17  C    6.024733   4.816340   5.929268   2.914936   5.097028
    18  C    6.727174   5.043928   6.341411   2.457097   4.918928
    19  C    6.317694   4.264565   5.657628   1.399716   3.815220
    20  C    7.026759   6.112737   7.118620   4.336085   6.490671
    21  C    8.115932   6.413352   7.728512   3.705874   6.179132
    22  C    8.840464   7.402640   8.636297   4.880943   7.344602
    23  C    5.660864   5.976217   6.382606   5.690179   6.956043
    24  C    4.982741   6.408145   6.185578   7.287042   7.708426
    25  C    6.216147   7.352378   7.319483   7.771025   8.559524
    26  C    6.498607   7.166117   7.401645   7.070952   8.228414
    27  C    6.997177   6.534683   7.330454   5.278633   7.146850
    28  C    8.244913   7.917896   8.665817   6.631727   8.541039
    29  C    9.446061   8.552026   9.576445   6.525322   8.831711
    30  C    9.388450   8.830593   9.702847   7.169754   9.300772
    31  H    2.172231   2.174306   1.087148   4.999708   2.873291
    32  H    4.272329   2.174211   2.873781   3.453141   1.087055
    33  H    5.906812   3.442356   4.725954   2.178347   2.170697
    34  H    7.176335   4.959968   6.375636   2.146233   4.232868
    35  H    1.087535   3.443173   2.170266   6.108143   4.724757
    36  H    2.832482   4.964654   4.233311   6.834389   6.376741
    37  H    5.141503   6.901796   6.463090   8.103201   8.261450
    38  H    7.123740   8.392701   8.288433   8.851380   9.619007
    39  H    7.556299   8.092569   8.411997   7.722513   9.080036
    40  H    8.429901   8.386468   8.991663   7.401592   9.131611
    41  H   10.353742   9.886612  10.723902   8.252796  10.378224
    42  H   10.461787   9.458068  10.536260   7.257835   9.639749
    43  H    9.919282   8.429359   9.687542   5.816940   8.291874
    44  H    8.776551   6.873221   8.244977   4.029804   6.424234
    45  H    6.155222   5.952383   6.599486   5.164550   6.721948
                   16         17         18         19         20
    16  C    0.000000
    17  C    4.325381   0.000000
    18  C    3.820384   1.438294   0.000000
    19  C    2.553568   2.505225   1.421300   0.000000
    20  C    5.741270   1.447885   2.460358   3.775955   0.000000
    21  C    4.962935   2.453945   1.396157   2.411405   2.807443
    22  C    6.215401   2.835835   2.427769   3.700516   2.433847
    23  C    6.833682   3.664281   5.004633   5.859992   3.483922
    24  C    8.082473   6.011615   7.339071   7.883243   6.055857
    25  C    8.737573   6.029492   7.384148   8.140991   5.792124
    26  C    8.184710   5.000499   6.333002   7.234975   4.616539
    27  C    6.615860   2.529954   3.770173   4.970965   1.413347
    28  C    7.983620   3.814265   4.912369   6.205565   2.469343
    29  C    7.931941   3.774501   4.227095   5.635675   2.457885
    30  C    8.567619   4.300811   5.098784   6.488039   2.853466
    31  H    4.272094   6.919623   7.217935   6.398282   8.146221
    32  H    2.172211   6.168237   5.909548   4.713842   7.564048
    33  H    1.087507   5.033152   4.257471   2.856327   6.417584
    34  H    2.831554   3.483720   2.180894   1.088199   4.626450
    35  H    5.905630   7.064144   7.806218   7.401133   8.007894
    36  H    7.178665   6.638925   7.756741   7.838133   7.168971
    37  H    8.781578   7.027890   8.338088   8.800896   7.114594
    38  H    9.817206   7.043585   8.396955   9.195099   6.703557
    39  H    8.916325   5.406181   6.679127   7.713927   4.794032
    40  H    8.703542   4.684159   5.874914   7.108700   3.443415
    41  H    9.648981   5.386673   6.153404   7.548119   3.939497
    42  H    8.646676   4.648210   4.856162   6.231128   3.444065
    43  H    7.096334   3.922972   3.400293   4.547309   3.426426
    44  H    5.092460   3.446856   2.163585   2.632232   3.894390
    45  H    6.394323   2.786350   4.154535   5.146854   2.171670
                   21         22         23         24         25
    21  C    0.000000
    22  C    1.390367   0.000000
    23  C    5.803211   5.615695   0.000000
    24  C    8.350687   8.312770   2.776714   0.000000
    25  C    8.208602   7.958936   2.406277   1.396196   0.000000
    26  C    7.024389   6.676050   1.392352   2.411134   1.389451
    27  C    4.198908   3.678797   2.980698   5.326761   4.984537
    28  C    5.041996   4.179251   3.708424   5.927008   5.319313
    29  C    3.689361   2.413660   5.075892   7.718009   7.076848
    30  C    4.842050   3.692006   4.700868   7.114363   6.384741
    31  H    8.586939   9.566172   7.456191   7.120403   8.303807
    32  H    7.115250   8.329442   7.985761   8.565312   9.488636
    33  H    5.188053   6.526145   7.800412   9.150639   9.770393
    34  H    2.633355   4.019287   6.897954   8.954151   9.196305
    35  H    9.192207   9.888696   6.355965   5.215691   6.544614
    36  H    9.023040   9.362258   4.602529   2.680045   4.070873
    37  H    9.391990   9.387902   3.864591   1.088337   2.141602
    38  H    9.157038   8.818674   3.392824   2.156279   1.086893
    39  H    7.174486   6.640193   2.145466   3.401241   2.157460
    40  H    6.097101   5.263281   3.901137   5.698243   5.045743
    41  H    5.799647   4.563504   5.488111   7.756018   6.908393
    42  H    4.036369   2.651676   6.065745   8.733074   8.028001
    43  H    2.136918   1.087927   6.539070   9.276141   8.832238
    44  H    1.088513   2.132631   6.825566   9.342171   9.229638
    45  H    4.863476   4.573464   2.636832   4.572350   4.442273
                   26         27         28         29         30
    26  C    0.000000
    27  C    3.893752   0.000000
    28  C    4.205960   1.398813   0.000000
    29  C    5.764823   2.760327   2.394818   0.000000
    30  C    5.156150   2.408212   1.384713   1.391077   0.000000
    31  H    8.447668   8.389250   9.728166  10.602318  10.757901
    32  H    9.229621   8.219795   9.611491   9.885976  10.371987
    33  H    9.163203   7.402144   8.733815   8.446931   9.201651
    34  H    8.260467   5.891657   7.050830   6.198664   7.186355
    35  H    7.029313   7.878955   9.069185  10.398276  10.261453
    36  H    4.855237   6.684255   7.623641   9.294917   8.884376
    37  H    3.387080   6.352193   6.915219   8.780188   8.128346
    38  H    2.150587   5.827953   5.966283   7.756449   6.965008
    39  H    1.085756   4.073603   4.073636   5.474367   4.807558
    40  H    4.115705   2.156166   1.086679   3.384763   2.149483
    41  H    5.727501   3.396927   2.149107   2.153968   1.086122
    42  H    6.690529   3.847892   3.372404   1.088114   2.136488
    43  H    7.508121   4.551434   4.807287   2.649268   4.034309
    44  H    8.050902   5.279558   6.082347   4.538454   5.779069
    45  H    3.581060   1.086828   2.126585   3.843034   3.371101
                   31         32         33         34         35
    31  H    0.000000
    32  H    2.754535   0.000000
    33  H    5.008247   2.486807   0.000000
    34  H    7.001770   4.964242   2.704718   0.000000
    35  H    2.485402   5.006240   6.858953   8.247138   0.000000
    36  H    4.961148   6.999234   8.248526   8.853702   2.701358
    37  H    7.300675   9.037137   9.859954   9.868141   5.145061
    38  H    9.241834  10.531889  10.849158  10.243005   7.349291
    39  H    9.466292  10.104407   9.847826   8.692113   8.106444
    40  H   10.050746  10.188052   9.510868   7.997483   9.163567
    41  H   11.783241  11.448558  10.272838   8.212078  11.192453
    42  H   11.546356  10.674394   9.065129   6.646378  11.429701
    43  H   10.599655   9.243675   7.297700   4.668349  10.969779
    44  H    9.021459   7.262101   5.088896   2.385771   9.860686
    45  H    7.657798   7.773987   7.275329   6.149488   6.984427
                   36         37         38         39         40
    36  H    0.000000
    37  H    2.453514   0.000000
    38  H    4.753352   2.460419   0.000000
    39  H    5.924188   4.288122   2.490010   0.000000
    40  H    7.511521   6.599341   5.569896   3.970534   0.000000
    41  H    9.679148   8.728575   7.353317   5.230321   2.483729
    42  H   10.354766   9.797514   8.656386   6.297712   4.272873
    43  H   10.422475  10.358623   9.638287   7.355087   5.874422
    44  H    9.892347  10.371900  10.181539   8.191493   7.144314
    45  H    5.751213   5.544669   5.340802   4.014842   2.434940
                   41         42         43         44         45
    41  H    0.000000
    42  H    2.458837   0.000000
    43  H    4.717590   2.420436   0.000000
    44  H    6.678373   4.690901   2.426059   0.000000
    45  H    4.266208   4.929274   5.516060   5.934140   0.000000
 Stoichiometry    C30H15(2)
 Framework group  C1[X(C30H15)]
 Deg. of freedom   129
 Full point group                 C1      NOp   1
 Largest Abelian subgroup         C1      NOp   1
 Largest concise Abelian subgroup C1      NOp   1
                         Standard orientation:                         
 ---------------------------------------------------------------------
 Center     Atomic      Atomic             Coordinates (Angstroms)
 Number     Number       Type             X           Y           Z
 ---------------------------------------------------------------------
      1          6           0       -3.786654   -0.889015   -0.032517
      2          6           0        1.577910    2.934956   -0.120485
      3          6           0        2.890784    2.511356    0.213581
      4          6           0        3.193246    1.145441    0.325213
      5          6           0        2.097009    0.301540    0.207590
      6          6           0        0.763983    0.639162    0.001742
      7          6           0        0.513867    1.985694   -0.272146
      8          6           0        0.026588   -0.648246   -0.046762
      9          6           0        2.240274   -1.039750    0.164056
     10          6           0        1.033849   -1.614449   -0.040502
     11          6           0        4.460372    0.519891    0.486908
     12          6           0        3.450410   -1.718324    0.251916
     13          6           0        4.587594   -0.894996    0.448574
     14          6           0        0.908537   -2.979956   -0.213268
     15          6           0        3.359347   -3.124916    0.106545
     16          6           0        2.105629   -3.747048   -0.137511
     17          6           0       -1.315569   -1.101407   -0.067448
     18          6           0       -1.489821   -2.485900   -0.416026
     19          6           0       -0.401547   -3.398265   -0.473851
     20          6           0       -2.508420   -0.355465    0.274674
     21          6           0       -2.767230   -2.981177   -0.684693
     22          6           0       -3.894155   -2.177813   -0.551397
     23          6           0       -0.714605    2.446381   -0.759542
     24          6           0        1.319418    4.294002   -0.360560
     25          6           0        0.063476    4.723128   -0.793946
     26          6           0       -0.949178    3.796152   -1.008007
     27          6           0       -2.509437    0.852830    1.007867
     28          6           0       -3.678186    1.567995    1.289368
     29          6           0       -4.957901   -0.157234    0.230564
     30          6           0       -4.903661    1.074835    0.874114
     31          1           0        5.573187   -1.344940    0.538285
     32          1           0        4.257718   -3.734876    0.157223
     33          1           0        2.063906   -4.825836   -0.268460
     34          1           0       -0.581516   -4.449917   -0.687897
     35          1           0        5.353889    1.130083    0.596566
     36          1           0        3.693607    3.240144    0.299174
     37          1           0        2.107840    5.033969   -0.236798
     38          1           0       -0.114752    5.778130   -0.985107
     39          1           0       -1.924564    4.110971   -1.366304
     40          1           0       -3.620370    2.501376    1.842836
     41          1           0       -5.816973    1.623001    1.086329
     42          1           0       -5.932208   -0.561458   -0.036499
     43          1           0       -4.868349   -2.603903   -0.781571
     44          1           0       -2.905958   -4.013328   -1.001363
     45          1           0       -1.581041    1.240163    1.419267
 ---------------------------------------------------------------------
 Rotational constants (GHZ):           0.2281096           0.1694534           0.1014581
 Standard basis: 6-311+G(d,p) (5D, 7F)
 There are   780 symmetry adapted cartesian basis functions of A   symmetry.
 There are   750 symmetry adapted basis functions of A   symmetry.
   750 basis functions,  1200 primitive gaussians,   780 cartesian basis functions
    98 alpha electrons       97 beta electrons
       nuclear repulsion energy      2574.6263244203 Hartrees.
 NAtoms=   45 NActive=   45 NUniq=   45 SFac= 1.00D+00 NAtFMM=   60 NAOKFM=F Big=F
 Integral buffers will be    131072 words long.
 Raffenetti 2 integral format.
 Two-electron integral symmetry is turned on.
 One-electron integrals computed using PRISM.
 NBasis=   750 RedAO= T EigKep=  1.09D-06  NBF=   750
 NBsUse=   729 1.00D-06 EigRej=  8.85D-07 NBFU=   729
 ExpMin= 4.38D-02 ExpMax= 4.56D+03 ExpMxC= 6.82D+02 IAcc=2 IRadAn=         4 AccDes= 0.00D+00
 Harris functional with IExCor=  402 and IRadAn=       4 diagonalized for initial guess.
 HarFok:  IExCor=  402 AccDes= 0.00D+00 IRadAn=         4 IDoV= 1 UseB2=F ITyADJ=14
 ICtDFT=  3500011 ScaDFX=  1.000000  1.000000  1.000000  1.000000
 FoFCou: FMM=F IPFlag=           0 FMFlag=      100000 FMFlg1=           0
         NFxFlg=           0 DoJE=T BraDBF=F KetDBF=T FulRan=T
         wScrn=  0.000000 ICntrl=       500 IOpCl=  0 I1Cent=   200000004 NGrid=           0
         NMat0=    1 NMatS0=      1 NMatT0=    0 NMatD0=    1 NMtDS0=    0 NMtDT0=    0
 Petite list used in FoFCou.
 Initial guess <Sx>= 0.0000 <Sy>= 0.0000 <Sz>= 0.5000 <S**2>= 0.7500 S= 0.5000
 Requested convergence on RMS density matrix=1.00D-08 within 128 cycles.
 Requested convergence on MAX density matrix=1.00D-06.
 Requested convergence on             energy=1.00D-06.
 No special actions if energy rises.
 Restarting incremental Fock formation.
 SCF Done:  E(UB3LYP) =  -1152.42102464     A.U. after   26 cycles
            NFock= 26  Conv=0.52D-08     -V/T= 2.0039
 <Sx>= 0.0000 <Sy>= 0.0000 <Sz>= 0.5000 <S**2>= 0.7658 S= 0.5079
 <L.S>=  0.00000000000    
 Annihilation of the first spin contaminant:
 S**2 before annihilation     0.7658,   after     0.7501

 **********************************************************************

            Population analysis using the SCF density.

 **********************************************************************

 Orbital symmetries:
 Alpha Orbitals:
       Occupied  (A) (A) (A) (A) (A) (A) (A) (A) (A) (A) (A) (A)
                 (A) (A) (A) (A) (A) (A) (A) (A) (A) (A) (A) (A)
                 (A) (A) (A) (A) (A) (A) (A) (A) (A) (A) (A) (A)
                 (A) (A) (A) (A) (A) (A) (A) (A) (A) (A) (A) (A)
                 (A) (A) (A) (A) (A) (A) (A) (A) (A) (A) (A) (A)
                 (A) (A) (A) (A) (A) (A) (A) (A) (A) (A) (A) (A)
                 (A) (A) (A) (A) (A) (A) (A) (A) (A) (A) (A) (A)
                 (A) (A) (A) (A) (A) (A) (A) (A) (A) (A) (A) (A)
                 (A) (A)
       Virtual   (A) (A) (A) (A) (A) (A) (A) (A) (A) (A) (A) (A)
                 (A) (A) (A) (A) (A) (A) (A) (A) (A) (A) (A) (A)
                 (A) (A) (A) (A) (A) (A) (A) (A) (A) (A) (A) (A)
                 (A) (A) (A) (A) (A) (A) (A) (A) (A) (A) (A) (A)
                 (A) (A) (A) (A) (A) (A) (A) (A) (A) (A) (A) (A)
                 (A) (A) (A) (A) (A) (A) (A) (A) (A) (A) (A) (A)
                 (A) (A) (A) (A) (A) (A) (A) (A) (A) (A) (A) (A)
                 (A) (A) (A) (A) (A) (A) (A) (A) (A) (A) (A) (A)
                 (A) (A) (A) (A) (A) (A) (A) (A) (A) (A) (A) (A)
                 (A) (A) (A) (A) (A) (A) (A) (A) (A) (A) (A) (A)
                 (A) (A) (A) (A) (A) (A) (A) (A) (A) (A) (A) (A)
                 (A) (A) (A) (A) (A) (A) (A) (A) (A) (A) (A) (A)
                 (A) (A) (A) (A) (A) (A) (A) (A) (A) (A) (A) (A)
                 (A) (A) (A) (A) (A) (A) (A) (A) (A) (A) (A) (A)
                 (A) (A) (A) (A) (A) (A) (A) (A) (A) (A) (A) (A)
                 (A) (A) (A) (A) (A) (A) (A) (A) (A) (A) (A) (A)
                 (A) (A) (A) (A) (A) (A) (A) (A) (A) (A) (A) (A)
                 (A) (A) (A) (A) (A) (A) (A) (A) (A) (A) (A) (A)
                 (A) (A) (A) (A) (A) (A) (A) (A) (A) (A) (A) (A)
                 (A) (A) (A) (A) (A) (A) (A) (A) (A) (A) (A) (A)
                 (A) (A) (A) (A) (A) (A) (A) (A) (A) (A) (A) (A)
                 (A) (A) (A) (A) (A) (A) (A) (A) (A) (A) (A) (A)
                 (A) (A) (A) (A) (A) (A) (A) (A) (A) (A) (A) (A)
                 (A) (A) (A) (A) (A) (A) (A) (A) (A) (A) (A) (A)
                 (A) (A) (A) (A) (A) (A) (A) (A) (A) (A) (A) (A)
                 (A) (A) (A) (A) (A) (A) (A) (A) (A) (A) (A) (A)
                 (A) (A) (A) (A) (A) (A) (A) (A) (A) (A) (A) (A)
                 (A) (A) (A) (A) (A) (A) (A) (A) (A) (A) (A) (A)
                 (A) (A) (A) (A) (A) (A) (A) (A) (A) (A) (A) (A)
                 (A) (A) (A) (A) (A) (A) (A) (A) (A) (A) (A) (A)
                 (A) (A) (A) (A) (A) (A) (A) (A) (A) (A) (A) (A)
                 (A) (A) (A) (A) (A) (A) (A) (A) (A) (A) (A) (A)
                 (A) (A) (A) (A) (A) (A) (A) (A) (A) (A) (A) (A)
                 (A) (A) (A) (A) (A) (A) (A) (A) (A) (A) (A) (A)
                 (A) (A) (A) (A) (A) (A) (A) (A) (A) (A) (A) (A)
                 (A) (A) (A) (A) (A) (A) (A) (A) (A) (A) (A) (A)
                 (A) (A) (A) (A) (A) (A) (A) (A) (A) (A) (A) (A)
                 (A) (A) (A) (A) (A) (A) (A) (A) (A) (A) (A) (A)
                 (A) (A) (A) (A) (A) (A) (A) (A) (A) (A) (A) (A)
                 (A) (A) (A) (A) (A) (A) (A) (A) (A) (A) (A) (A)
                 (A) (A) (A) (A) (A) (A) (A) (A) (A) (A) (A) (A)
                 (A) (A) (A) (A) (A) (A) (A) (A) (A) (A) (A) (A)
                 (A) (A) (A) (A) (A) (A) (A) (A) (A) (A) (A) (A)
                 (A) (A) (A) (A) (A) (A) (A) (A) (A) (A) (A) (A)
                 (A) (A) (A) (A) (A) (A) (A) (A) (A) (A) (A) (A)
                 (A) (A) (A) (A) (A) (A) (A) (A) (A) (A) (A) (A)
                 (A) (A) (A) (A) (A) (A) (A) (A) (A) (A) (A) (A)
                 (A) (A) (A) (A) (A) (A) (A) (A) (A) (A) (A) (A)
                 (A) (A) (A) (A) (A) (A) (A) (A) (A) (A) (A) (A)
                 (A) (A) (A) (A) (A) (A) (A) (A) (A) (A) (A) (A)
                 (A) (A) (A) (A) (A) (A) (A) (A) (A) (A) (A) (A)
                 (A) (A) (A) (A) (A) (A) (A) (A) (A) (A) (A) (A)
                 (A) (A) (A) (A) (A) (A) (A)
 Beta  Orbitals:
       Occupied  (A) (A) (A) (A) (A) (A) (A) (A) (A) (A) (A) (A)
                 (A) (A) (A) (A) (A) (A) (A) (A) (A) (A) (A) (A)
                 (A) (A) (A) (A) (A) (A) (A) (A) (A) (A) (A) (A)
                 (A) (A) (A) (A) (A) (A) (A) (A) (A) (A) (A) (A)
                 (A) (A) (A) (A) (A) (A) (A) (A) (A) (A) (A) (A)
                 (A) (A) (A) (A) (A) (A) (A) (A) (A) (A) (A) (A)
                 (A) (A) (A) (A) (A) (A) (A) (A) (A) (A) (A) (A)
                 (A) (A) (A) (A) (A) (A) (A) (A) (A) (A) (A) (A)
                 (A)
       Virtual   (A) (A) (A) (A) (A) (A) (A) (A) (A) (A) (A) (A)
                 (A) (A) (A) (A) (A) (A) (A) (A) (A) (A) (A) (A)
                 (A) (A) (A) (A) (A) (A) (A) (A) (A) (A) (A) (A)
                 (A) (A) (A) (A) (A) (A) (A) (A) (A) (A) (A) (A)
                 (A) (A) (A) (A) (A) (A) (A) (A) (A) (A) (A) (A)
                 (A) (A) (A) (A) (A) (A) (A) (A) (A) (A) (A) (A)
                 (A) (A) (A) (A) (A) (A) (A) (A) (A) (A) (A) (A)
                 (A) (A) (A) (A) (A) (A) (A) (A) (A) (A) (A) (A)
                 (A) (A) (A) (A) (A) (A) (A) (A) (A) (A) (A) (A)
                 (A) (A) (A) (A) (A) (A) (A) (A) (A) (A) (A) (A)
                 (A) (A) (A) (A) (A) (A) (A) (A) (A) (A) (A) (A)
                 (A) (A) (A) (A) (A) (A) (A) (A) (A) (A) (A) (A)
                 (A) (A) (A) (A) (A) (A) (A) (A) (A) (A) (A) (A)
                 (A) (A) (A) (A) (A) (A) (A) (A) (A) (A) (A) (A)
                 (A) (A) (A) (A) (A) (A) (A) (A) (A) (A) (A) (A)
                 (A) (A) (A) (A) (A) (A) (A) (A) (A) (A) (A) (A)
                 (A) (A) (A) (A) (A) (A) (A) (A) (A) (A) (A) (A)
                 (A) (A) (A) (A) (A) (A) (A) (A) (A) (A) (A) (A)
                 (A) (A) (A) (A) (A) (A) (A) (A) (A) (A) (A) (A)
                 (A) (A) (A) (A) (A) (A) (A) (A) (A) (A) (A) (A)
                 (A) (A) (A) (A) (A) (A) (A) (A) (A) (A) (A) (A)
                 (A) (A) (A) (A) (A) (A) (A) (A) (A) (A) (A) (A)
                 (A) (A) (A) (A) (A) (A) (A) (A) (A) (A) (A) (A)
                 (A) (A) (A) (A) (A) (A) (A) (A) (A) (A) (A) (A)
                 (A) (A) (A) (A) (A) (A) (A) (A) (A) (A) (A) (A)
                 (A) (A) (A) (A) (A) (A) (A) (A) (A) (A) (A) (A)
                 (A) (A) (A) (A) (A) (A) (A) (A) (A) (A) (A) (A)
                 (A) (A) (A) (A) (A) (A) (A) (A) (A) (A) (A) (A)
                 (A) (A) (A) (A) (A) (A) (A) (A) (A) (A) (A) (A)
                 (A) (A) (A) (A) (A) (A) (A) (A) (A) (A) (A) (A)
                 (A) (A) (A) (A) (A) (A) (A) (A) (A) (A) (A) (A)
                 (A) (A) (A) (A) (A) (A) (A) (A) (A) (A) (A) (A)
                 (A) (A) (A) (A) (A) (A) (A) (A) (A) (A) (A) (A)
                 (A) (A) (A) (A) (A) (A) (A) (A) (A) (A) (A) (A)
                 (A) (A) (A) (A) (A) (A) (A) (A) (A) (A) (A) (A)
                 (A) (A) (A) (A) (A) (A) (A) (A) (A) (A) (A) (A)
                 (A) (A) (A) (A) (A) (A) (A) (A) (A) (A) (A) (A)
                 (A) (A) (A) (A) (A) (A) (A) (A) (A) (A) (A) (A)
                 (A) (A) (A) (A) (A) (A) (A) (A) (A) (A) (A) (A)
                 (A) (A) (A) (A) (A) (A) (A) (A) (A) (A) (A) (A)
                 (A) (A) (A) (A) (A) (A) (A) (A) (A) (A) (A) (A)
                 (A) (A) (A) (A) (A) (A) (A) (A) (A) (A) (A) (A)
                 (A) (A) (A) (A) (A) (A) (A) (A) (A) (A) (A) (A)
                 (A) (A) (A) (A) (A) (A) (A) (A) (A) (A) (A) (A)
                 (A) (A) (A) (A) (A) (A) (A) (A) (A) (A) (A) (A)
                 (A) (A) (A) (A) (A) (A) (A) (A) (A) (A) (A) (A)
                 (A) (A) (A) (A) (A) (A) (A) (A) (A) (A) (A) (A)
                 (A) (A) (A) (A) (A) (A) (A) (A) (A) (A) (A) (A)
                 (A) (A) (A) (A) (A) (A) (A) (A) (A) (A) (A) (A)
                 (A) (A) (A) (A) (A) (A) (A) (A) (A) (A) (A) (A)
                 (A) (A) (A) (A) (A) (A) (A) (A) (A) (A) (A) (A)
                 (A) (A) (A) (A) (A) (A) (A) (A) (A) (A) (A) (A)
                 (A) (A) (A) (A) (A) (A) (A) (A)
 The electronic state is 2-A.
 Alpha  occ. eigenvalues --  -10.20548 -10.20422 -10.19920 -10.19832 -10.19506
 Alpha  occ. eigenvalues --  -10.19422 -10.19354 -10.19310 -10.19293 -10.19293
 Alpha  occ. eigenvalues --  -10.19281 -10.19200 -10.18974 -10.18969 -10.18867
 Alpha  occ. eigenvalues --  -10.18724 -10.18661 -10.18649 -10.18648 -10.18600
 Alpha  occ. eigenvalues --  -10.18492 -10.18191 -10.18037 -10.18000 -10.17921
 Alpha  occ. eigenvalues --  -10.17804 -10.17796 -10.15989 -10.15941 -10.15758
 Alpha  occ. eigenvalues --   -0.93215  -0.89319  -0.88423  -0.85983  -0.84352
 Alpha  occ. eigenvalues --   -0.83511  -0.80894  -0.79389  -0.78184  -0.77310
 Alpha  occ. eigenvalues --   -0.75773  -0.74614  -0.72697  -0.71181  -0.71129
 Alpha  occ. eigenvalues --   -0.67529  -0.65045  -0.64217  -0.63619  -0.61881
 Alpha  occ. eigenvalues --   -0.60713  -0.59596  -0.58604  -0.56920  -0.56169
 Alpha  occ. eigenvalues --   -0.53290  -0.52238  -0.51680  -0.51256  -0.49606
 Alpha  occ. eigenvalues --   -0.48781  -0.48080  -0.47259  -0.46338  -0.45788
 Alpha  occ. eigenvalues --   -0.44602  -0.44287  -0.44082  -0.43428  -0.42958
 Alpha  occ. eigenvalues --   -0.42711  -0.41402  -0.41067  -0.40691  -0.40463
 Alpha  occ. eigenvalues --   -0.40166  -0.40044  -0.39423  -0.39189  -0.37114
 Alpha  occ. eigenvalues --   -0.36875  -0.36483  -0.34996  -0.34688  -0.34554
 Alpha  occ. eigenvalues --   -0.34084  -0.33437  -0.33215  -0.31434  -0.30033
 Alpha  occ. eigenvalues --   -0.28297  -0.27971  -0.26162  -0.25870  -0.24211
 Alpha  occ. eigenvalues --   -0.22217  -0.20889  -0.20173
 Alpha virt. eigenvalues --   -0.10567  -0.05890  -0.05574  -0.02832  -0.01490
 Alpha virt. eigenvalues --   -0.00264   0.00105   0.00232   0.00561   0.00634
 Alpha virt. eigenvalues --    0.01488   0.01641   0.01758   0.02395   0.02806
 Alpha virt. eigenvalues --    0.03099   0.03587   0.03766   0.03936   0.04384
 Alpha virt. eigenvalues --    0.04700   0.05141   0.05535   0.05727   0.06097
 Alpha virt. eigenvalues --    0.06640   0.06709   0.07228   0.07443   0.07795
 Alpha virt. eigenvalues --    0.08320   0.08430   0.08677   0.09154   0.09359
 Alpha virt. eigenvalues --    0.09805   0.10087   0.10352   0.10665   0.11109
 Alpha virt. eigenvalues --    0.11423   0.11558   0.12065   0.12528   0.12835
 Alpha virt. eigenvalues --    0.13140   0.13482   0.13736   0.14137   0.14199
 Alpha virt. eigenvalues --    0.14934   0.15106   0.15150   0.15576   0.15911
 Alpha virt. eigenvalues --    0.15971   0.16322   0.16373   0.16581   0.16668
 Alpha virt. eigenvalues --    0.16901   0.17364   0.17424   0.17627   0.17979
 Alpha virt. eigenvalues --    0.18138   0.18572   0.18795   0.19186   0.19322
 Alpha virt. eigenvalues --    0.19544   0.19755   0.19887   0.19906   0.20171
 Alpha virt. eigenvalues --    0.20422   0.20526   0.20733   0.20815   0.21117
 Alpha virt. eigenvalues --    0.21374   0.21695   0.21895   0.22128   0.22217
 Alpha virt. eigenvalues --    0.22594   0.22818   0.22954   0.23215   0.23447
 Alpha virt. eigenvalues --    0.23580   0.23743   0.24347   0.24447   0.24589
 Alpha virt. eigenvalues --    0.24753   0.25011   0.25139   0.25414   0.25662
 Alpha virt. eigenvalues --    0.25879   0.26044   0.26331   0.26582   0.26604
 Alpha virt. eigenvalues --    0.27127   0.27481   0.27626   0.27852   0.28262
 Alpha virt. eigenvalues --    0.28655   0.28778   0.29085   0.29183   0.29688
 Alpha virt. eigenvalues --    0.29906   0.30161   0.30503   0.30675   0.30934
 Alpha virt. eigenvalues --    0.31147   0.31566   0.31714   0.31863   0.32004
 Alpha virt. eigenvalues --    0.32823   0.33034   0.33377   0.33506   0.33942
 Alpha virt. eigenvalues --    0.34664   0.35049   0.35593   0.35855   0.36138
 Alpha virt. eigenvalues --    0.36274   0.36931   0.37410   0.37996   0.38719
 Alpha virt. eigenvalues --    0.39360   0.39491   0.40224   0.40951   0.41552
 Alpha virt. eigenvalues --    0.41920   0.42562   0.42976   0.43733   0.44457
 Alpha virt. eigenvalues --    0.45118   0.45379   0.45593   0.46125   0.46927
 Alpha virt. eigenvalues --    0.47986   0.48376   0.49189   0.50233   0.50809
 Alpha virt. eigenvalues --    0.51723   0.52200   0.52534   0.52799   0.53084
 Alpha virt. eigenvalues --    0.53687   0.53870   0.54257   0.54465   0.54868
 Alpha virt. eigenvalues --    0.55059   0.55381   0.55629   0.56237   0.56778
 Alpha virt. eigenvalues --    0.57031   0.57289   0.57834   0.58384   0.58787
 Alpha virt. eigenvalues --    0.59098   0.59537   0.59710   0.59973   0.60095
 Alpha virt. eigenvalues --    0.60512   0.60995   0.61480   0.61845   0.62479
 Alpha virt. eigenvalues --    0.63029   0.63155   0.63441   0.64071   0.64330
 Alpha virt. eigenvalues --    0.64621   0.64916   0.65222   0.65661   0.66178
 Alpha virt. eigenvalues --    0.66943   0.67164   0.67954   0.68303   0.68846
 Alpha virt. eigenvalues --    0.69134   0.69599   0.69748   0.69936   0.70398
 Alpha virt. eigenvalues --    0.70915   0.71374   0.71799   0.72009   0.72231
 Alpha virt. eigenvalues --    0.72386   0.72653   0.73157   0.73603   0.73869
 Alpha virt. eigenvalues --    0.74404   0.74754   0.75098   0.75879   0.76254
 Alpha virt. eigenvalues --    0.76344   0.76677   0.77014   0.77480   0.77818
 Alpha virt. eigenvalues --    0.78522   0.78919   0.79131   0.79304   0.80692
 Alpha virt. eigenvalues --    0.81716   0.82167   0.82527   0.83131   0.83891
 Alpha virt. eigenvalues --    0.84084   0.84406   0.85096   0.85641   0.86753
 Alpha virt. eigenvalues --    0.87050   0.87728   0.88064   0.89237   0.89788
 Alpha virt. eigenvalues --    0.90192   0.90711   0.91093   0.91601   0.92237
 Alpha virt. eigenvalues --    0.92355   0.92654   0.93036   0.93415   0.93762
 Alpha virt. eigenvalues --    0.94607   0.94943   0.95184   0.95568   0.96229
 Alpha virt. eigenvalues --    0.96447   0.96932   0.97566   0.97790   0.98246
 Alpha virt. eigenvalues --    0.98464   0.99132   0.99367   1.00008   1.00997
 Alpha virt. eigenvalues --    1.01208   1.01676   1.01921   1.02252   1.03094
 Alpha virt. eigenvalues --    1.03409   1.04037   1.04471   1.04693   1.05115
 Alpha virt. eigenvalues --    1.06002   1.06671   1.06967   1.07571   1.08262
 Alpha virt. eigenvalues --    1.09025   1.09839   1.10077   1.10451   1.11130
 Alpha virt. eigenvalues --    1.11956   1.12861   1.13502   1.14404   1.15172
 Alpha virt. eigenvalues --    1.16092   1.16844   1.17525   1.18800   1.19146
 Alpha virt. eigenvalues --    1.19946   1.21888   1.22693   1.23652   1.24213
 Alpha virt. eigenvalues --    1.24529   1.26969   1.27899   1.29380   1.31071
 Alpha virt. eigenvalues --    1.32528   1.33371   1.34249   1.35443   1.36291
 Alpha virt. eigenvalues --    1.36324   1.37279   1.38966   1.41075   1.43064
 Alpha virt. eigenvalues --    1.43323   1.44651   1.46770   1.47375   1.47960
 Alpha virt. eigenvalues --    1.48079   1.48935   1.49279   1.49598   1.50684
 Alpha virt. eigenvalues --    1.50796   1.50899   1.51416   1.52373   1.52732
 Alpha virt. eigenvalues --    1.53759   1.54104   1.55240   1.55672   1.56789
 Alpha virt. eigenvalues --    1.57441   1.57563   1.57865   1.58892   1.59304
 Alpha virt. eigenvalues --    1.59670   1.60665   1.61398   1.62909   1.63028
 Alpha virt. eigenvalues --    1.63615   1.64195   1.65499   1.66607   1.66785
 Alpha virt. eigenvalues --    1.67592   1.68072   1.68764   1.69574   1.70593
 Alpha virt. eigenvalues --    1.71629   1.72046   1.72793   1.73501   1.73942
 Alpha virt. eigenvalues --    1.74259   1.74903   1.75402   1.75697   1.76193
 Alpha virt. eigenvalues --    1.76869   1.77693   1.78494   1.79282   1.80446
 Alpha virt. eigenvalues --    1.81929   1.82529   1.83202   1.84027   1.84991
 Alpha virt. eigenvalues --    1.85546   1.86053   1.86274   1.87462   1.87859
 Alpha virt. eigenvalues --    1.88081   1.89146   1.89813   1.89991   1.90721
 Alpha virt. eigenvalues --    1.90805   1.91262   1.92260   1.92448   1.92977
 Alpha virt. eigenvalues --    1.93740   1.93817   1.94623   1.95018   1.95656
 Alpha virt. eigenvalues --    1.95885   1.97118   1.97512   1.98041   1.98834
 Alpha virt. eigenvalues --    1.99641   2.00176   2.00912   2.01100   2.01565
 Alpha virt. eigenvalues --    2.03304   2.04257   2.05327   2.05526   2.06050
 Alpha virt. eigenvalues --    2.06379   2.07393   2.07619   2.08744   2.09751
 Alpha virt. eigenvalues --    2.10949   2.11692   2.13116   2.13430   2.14605
 Alpha virt. eigenvalues --    2.15577   2.16466   2.17861   2.19026   2.19998
 Alpha virt. eigenvalues --    2.20661   2.21093   2.22144   2.22607   2.23563
 Alpha virt. eigenvalues --    2.24570   2.25656   2.26562   2.27383   2.28609
 Alpha virt. eigenvalues --    2.30932   2.32896   2.33815   2.35343   2.36035
 Alpha virt. eigenvalues --    2.38565   2.38952   2.40152   2.42119   2.42275
 Alpha virt. eigenvalues --    2.42885   2.43541   2.44074   2.45280   2.46481
 Alpha virt. eigenvalues --    2.47577   2.48842   2.50533   2.52324   2.54581
 Alpha virt. eigenvalues --    2.56896   2.57148   2.57741   2.59070   2.59975
 Alpha virt. eigenvalues --    2.62254   2.62973   2.64110   2.65303   2.67131
 Alpha virt. eigenvalues --    2.67272   2.68692   2.69030   2.69772   2.70310
 Alpha virt. eigenvalues --    2.70524   2.71810   2.72642   2.72728   2.73561
 Alpha virt. eigenvalues --    2.73754   2.74369   2.74711   2.75231   2.75566
 Alpha virt. eigenvalues --    2.75835   2.76150   2.76410   2.76668   2.77211
 Alpha virt. eigenvalues --    2.77511   2.77721   2.78387   2.78830   2.79673
 Alpha virt. eigenvalues --    2.79982   2.80768   2.81489   2.82557   2.83041
 Alpha virt. eigenvalues --    2.84100   2.84497   2.85003   2.86769   2.87324
 Alpha virt. eigenvalues --    2.87674   2.88443   2.88999   2.90744   2.91558
 Alpha virt. eigenvalues --    2.91745   2.92636   2.93381   2.93742   2.94416
 Alpha virt. eigenvalues --    2.96417   2.97471   2.98173   3.01093   3.02227
 Alpha virt. eigenvalues --    3.02860   3.05329   3.06944   3.08129   3.10220
 Alpha virt. eigenvalues --    3.12137   3.12943   3.14795   3.16187   3.16849
 Alpha virt. eigenvalues --    3.17667   3.21041   3.21666   3.22878   3.23405
 Alpha virt. eigenvalues --    3.24093   3.24727   3.26438   3.29472   3.33482
 Alpha virt. eigenvalues --    3.34817   3.36949   3.37580   3.38284   3.40162
 Alpha virt. eigenvalues --    3.41157   3.42223   3.42641   3.43308   3.45330
 Alpha virt. eigenvalues --    3.46014   3.47446   3.48916   3.49709   3.50583
 Alpha virt. eigenvalues --    3.51808   3.52517   3.54406   3.55832   3.56917
 Alpha virt. eigenvalues --    3.60399   3.63800   3.64381   3.64923   3.66138
 Alpha virt. eigenvalues --    3.67977   3.71175   3.75583   3.79423   3.85713
 Alpha virt. eigenvalues --    3.87434   3.93174   3.95088   4.03056   4.03965
 Alpha virt. eigenvalues --    4.06314   4.07614   4.07963   4.10338   4.11977
 Alpha virt. eigenvalues --    4.13369   4.18203   4.21730   4.24814   4.29652
 Alpha virt. eigenvalues --    4.35269   4.48215   4.64677   4.77079   4.77849
 Alpha virt. eigenvalues --    4.78976   4.81674   4.82994   4.84376   4.85530
 Alpha virt. eigenvalues --    4.90163  23.40743  23.60410  23.66827  23.79655
 Alpha virt. eigenvalues --   23.85303  23.89002  23.90134  23.91290  23.94860
 Alpha virt. eigenvalues --   23.97235  23.97976  23.99569  23.99965  24.01029
 Alpha virt. eigenvalues --   24.03147  24.03825  24.05749  24.05857  24.06665
 Alpha virt. eigenvalues --   24.06773  24.08002  24.09446  24.09764  24.10444
 Alpha virt. eigenvalues --   24.13558  24.16097  24.16658  24.18922  24.22510
 Alpha virt. eigenvalues --   24.34699
  Beta  occ. eigenvalues --  -10.20421 -10.19835 -10.19787 -10.19520 -10.19431
  Beta  occ. eigenvalues --  -10.19345 -10.19309 -10.19297 -10.19293 -10.19284
  Beta  occ. eigenvalues --  -10.19196 -10.18972 -10.18956 -10.18909 -10.18861
  Beta  occ. eigenvalues --  -10.18747 -10.18670 -10.18598 -10.18595 -10.18574
  Beta  occ. eigenvalues --  -10.18505 -10.18188 -10.18042 -10.17982 -10.17922
  Beta  occ. eigenvalues --  -10.17792 -10.17777 -10.16012 -10.15941 -10.15747
  Beta  occ. eigenvalues --   -0.93176  -0.89244  -0.88108  -0.85867  -0.84250
  Beta  occ. eigenvalues --   -0.83455  -0.80744  -0.79337  -0.78078  -0.76865
  Beta  occ. eigenvalues --   -0.75556  -0.74569  -0.72653  -0.71166  -0.70700
  Beta  occ. eigenvalues --   -0.67444  -0.64958  -0.64110  -0.63378  -0.61812
  Beta  occ. eigenvalues --   -0.60468  -0.59520  -0.58078  -0.56704  -0.56023
  Beta  occ. eigenvalues --   -0.53090  -0.52170  -0.51646  -0.51139  -0.49407
  Beta  occ. eigenvalues --   -0.48629  -0.47944  -0.47102  -0.46174  -0.45695
  Beta  occ. eigenvalues --   -0.44481  -0.44222  -0.43973  -0.43332  -0.42905
  Beta  occ. eigenvalues --   -0.42633  -0.41299  -0.40930  -0.40648  -0.40321
  Beta  occ. eigenvalues --   -0.40093  -0.39690  -0.39306  -0.38766  -0.37010
  Beta  occ. eigenvalues --   -0.36756  -0.36328  -0.34906  -0.34629  -0.34503
  Beta  occ. eigenvalues --   -0.34025  -0.33306  -0.33186  -0.31310  -0.29844
  Beta  occ. eigenvalues --   -0.28220  -0.27616  -0.25922  -0.24606  -0.22292
  Beta  occ. eigenvalues --   -0.20717  -0.20045
  Beta virt. eigenvalues --   -0.10607  -0.09797  -0.05844  -0.05381  -0.02726
  Beta virt. eigenvalues --   -0.01068  -0.00197   0.00152   0.00521   0.00575
  Beta virt. eigenvalues --    0.00638   0.01497   0.01649   0.01783   0.02454
  Beta virt. eigenvalues --    0.02819   0.03103   0.03647   0.03778   0.03963
  Beta virt. eigenvalues --    0.04413   0.04744   0.05171   0.05583   0.05785
  Beta virt. eigenvalues --    0.06103   0.06646   0.06737   0.07255   0.07445
  Beta virt. eigenvalues --    0.07829   0.08336   0.08439   0.08697   0.09184
  Beta virt. eigenvalues --    0.09390   0.09810   0.10132   0.10382   0.10665
  Beta virt. eigenvalues --    0.11240   0.11443   0.11601   0.12115   0.12549
  Beta virt. eigenvalues --    0.12879   0.13177   0.13544   0.13798   0.14172
  Beta virt. eigenvalues --    0.14201   0.14930   0.15120   0.15198   0.15614
  Beta virt. eigenvalues --    0.15940   0.16004   0.16352   0.16405   0.16599
  Beta virt. eigenvalues --    0.16680   0.16919   0.17369   0.17462   0.17661
  Beta virt. eigenvalues --    0.18033   0.18168   0.18610   0.18919   0.19286
  Beta virt. eigenvalues --    0.19333   0.19583   0.19778   0.19928   0.19949
  Beta virt. eigenvalues --    0.20219   0.20469   0.20593   0.20767   0.20831
  Beta virt. eigenvalues --    0.21161   0.21409   0.21727   0.21952   0.22197
  Beta virt. eigenvalues --    0.22223   0.22614   0.22853   0.23077   0.23303
  Beta virt. eigenvalues --    0.23492   0.23611   0.23810   0.24388   0.24490
  Beta virt. eigenvalues --    0.24661   0.24758   0.25025   0.25167   0.25493
  Beta virt. eigenvalues --    0.25702   0.25949   0.26098   0.26385   0.26619
  Beta virt. eigenvalues --    0.26651   0.27185   0.27502   0.27686   0.27878
  Beta virt. eigenvalues --    0.28299   0.28679   0.28863   0.29118   0.29290
  Beta virt. eigenvalues --    0.29798   0.29943   0.30255   0.30536   0.30766
  Beta virt. eigenvalues --    0.31114   0.31208   0.31705   0.31824   0.31916
  Beta virt. eigenvalues --    0.32152   0.32878   0.33087   0.33461   0.33597
  Beta virt. eigenvalues --    0.34006   0.34729   0.35255   0.35635   0.35962
  Beta virt. eigenvalues --    0.36177   0.36436   0.37041   0.37530   0.38238
  Beta virt. eigenvalues --    0.38921   0.39425   0.39686   0.40352   0.41003
  Beta virt. eigenvalues --    0.41748   0.42069   0.42654   0.43041   0.43821
  Beta virt. eigenvalues --    0.44545   0.45144   0.45498   0.45620   0.46159
  Beta virt. eigenvalues --    0.46959   0.48071   0.48396   0.49212   0.50345
  Beta virt. eigenvalues --    0.50937   0.51850   0.52399   0.52646   0.52910
  Beta virt. eigenvalues --    0.53470   0.53714   0.54086   0.54290   0.54523
  Beta virt. eigenvalues --    0.54905   0.55167   0.55474   0.55691   0.56317
  Beta virt. eigenvalues --    0.56884   0.57087   0.57332   0.57952   0.58461
  Beta virt. eigenvalues --    0.58893   0.59129   0.59569   0.59726   0.60079
  Beta virt. eigenvalues --    0.60182   0.60647   0.61190   0.61496   0.62105
  Beta virt. eigenvalues --    0.62592   0.63029   0.63332   0.63655   0.64209
  Beta virt. eigenvalues --    0.64437   0.64691   0.64958   0.65275   0.65759
  Beta virt. eigenvalues --    0.66299   0.67071   0.67233   0.68142   0.68367
  Beta virt. eigenvalues --    0.69158   0.69276   0.69688   0.69939   0.70155
  Beta virt. eigenvalues --    0.70471   0.70964   0.71534   0.71866   0.72076
  Beta virt. eigenvalues --    0.72308   0.72467   0.72710   0.73252   0.73736
[...]
 62228,0.00115945,-0.00049174,0.00009991,0.00010532,0.00002942,0.000087
 84,-0.00005547,0.00002111,-0.00132264,-0.00434816,0.00070174,0.0001589
 6,-0.00042981,0.00015492,0.00078401,0.00230581,-0.00002344,0.00002912,
 -0.00002044,-0.00001183,-0.00000068,0.00000171,-0.00000106,0.00000266,
 -0.00000268,0.00000534,-0.00000112,0.00000089,0.00000042,0.00027705,-0
 .00045206,0.00045751,0.00203375,0.00001255,-0.00083036,-0.28096333,0.0
 7516288,-0.07679543,0.00069647,-0.00122638,0.00016614,-0.00000642,-0.0
 0000153,-0.00000002,-0.00000461,-0.00000219,-0.00000081,-0.00000257,-0
 .00000926,0.00000107,-0.00001367,-0.00002958,-0.00000056,-0.00000449,0
 .00000260,-0.00000053,-0.00000336,0.00000267,-0.00000122,-0.00000371,0
 .00000256,-0.00000120,-0.00000210,0.00000726,-0.00000079,0.00000370,0.
 00000045,-0.00000979,-0.00012535,-0.00013301,0.00001168,0.00064369,0.0
 0064229,0.00049504,0.29796944,-0.01585373,0.00855969,-0.00525757,0.000
 00312,0.00001499,-0.00000441,0.00000251,-0.00000149,-0.00000172,-0.000
 00066,-0.00000326,-0.00000158,0.00000283,0.00000693,0.00000129,0.00001
 799,-0.00000953,0.00000159,0.00001473,-0.00003294,0.00000412,-0.000069
 64,-0.00027352,0.00010917,-0.00000487,-0.00003460,-0.00002460,-0.00009
 353,0.00001066,0.00000141,-0.00000109,-0.00000056,-0.00000115,-0.00000
 325,0.00000195,-0.00000543,-0.00000429,-0.00000176,0.00000508,-0.00003
 713,0.00003541,-0.00001552,-0.00000470,0.00000347,-0.00000088,0.000011
 88,-0.00000281,0.00000206,-0.00089075,0.00056795,-0.00014336,-0.000184
 73,0.00014642,-0.00004596,0.00011075,-0.00001220,0.00002422,-0.0034620
 1,-0.00072517,0.00231746,0.00034563,0.00009327,0.00002805,-0.00131886,
 0.00048983,-0.00210989,-0.00005490,0.00004333,-0.00000038,0.00000596,-
 0.00000794,0.00000231,-0.00001003,0.00001267,-0.00001266,0.00002872,-0
 .00000024,0.00000050,-0.00060428,-0.00131928,-0.00000846,-0.00080898,-
 0.00320905,0.00502750,0.07511278,-0.08181482,0.03382225,0.02671437,-0.
 00362561,0.00777630,0.00000095,0.00000176,0.00000072,0.00000218,0.0000
 0081,0.00000050,-0.00000201,0.00000038,-0.00000025,-0.00001224,-0.0000
 0965,0.00000501,0.00000134,-0.00000118,0.00000090,0.00000291,-0.000000
 54,0.00000056,0.00000267,-0.00000058,0.00000345,0.00000454,-0.00000595
 ,0.00000180,-0.00000170,0.00000537,0.00002308,0.00129831,-0.00021096,0
 .00065727,-0.00001860,0.00002958,-0.00210987,-0.08075981,0.08149762,0.
 00606632,-0.00015963,0.00408514,-0.00000615,0.00001866,-0.00001439,0.0
 0000116,-0.00000502,-0.00000126,0.00000003,0.00000186,0.00000143,-0.00
 000015,0.00000674,-0.00000569,-0.00000999,-0.00000756,0.00002308,0.000
 04144,-0.00003309,-0.00000454,-0.00000106,-0.00004112,0.00006972,-0.00
 000217,-0.00000011,-0.00003264,0.00002813,0.00002271,-0.00002162,-0.00
 000034,0.00000360,-0.00000427,0.00000301,0.00000312,0.00000110,0.00000
 222,0.00000191,0.00000798,0.00003065,-0.00002257,-0.00000678,0.0000010
 7,-0.00000397,-0.00000253,-0.00000422,0.00000584,-0.00000300,0.0001992
 4,0.00006756,0.00017921,0.00006515,-0.00003208,0.00006360,-0.00005916,
 0.00000188,0.00001520,-0.00072442,0.00319181,0.00413845,-0.00010562,-0
 .00015675,-0.00007982,0.00101025,-0.00107450,-0.00281903,-0.00006970,0
 .00006930,0.00003129,-0.00000327,-0.00000334,-0.00000309,0.00000393,-0
 .00001953,-0.00000036,0.00002340,-0.00000083,0.00001320,0.00006468,-0.
 00102403,-0.00040828,0.00009883,0.00520494,0.00496561,-0.07690316,0.03
 179734,-0.06279920,-0.01380671,0.00460471,-0.00094502,-0.00000185,-0.0
 0000091,0.00000071,-0.00000232,-0.00000097,0.00000192,-0.00000044,-0.0
 0000271,0.00000034,-0.00000034,-0.00000080,0.00001161,-0.00000124,0.00
 000112,0.00000128,0.00000016,0.00000093,0.00000301,-0.00000222,-0.0000
 0087,0.00000084,0.00000278,-0.00000111,0.00000129,-0.00000031,-0.00001
 089,-0.00000782,-0.00052512,0.00017616,-0.00004566,0.00091937,-0.00203
 585,-0.00328883,0.08379436,-0.04006332,0.05719827,-0.00180834,-0.00062
 268,-0.00054836,0.00000143,-0.00000162,0.00000444,-0.00002685,-0.00000
 929,-0.00000449,0.00000772,0.00003689,0.00000049,-0.00004805,-0.000002
 26,-0.00000688,0.00003001,-0.00003719,0.00001089,-0.00004356,-0.000001
 04,-0.00001007,-0.00001207,0.00005136,0.00013614,-0.00000994,0.0000283
 7,0.00000512,0.00007989,-0.00000101,-0.00002521,-0.00001043,-0.0000090
 6,-0.00000032,0.00000312,-0.00006935,0.00000101,0.00000583,0.00001999,
 0.,-0.00031901,-0.00035321,0.00018192,-0.00008512,-0.00000049,-0.00001
 734,0.00000880,0.00012540,-0.00000753,0.00028187,-0.00014400,0.0001139
 5,-0.00021982,-0.00424680,-0.00117470,-0.00077384,0.00077657,-0.000302
 65,0.00135497,-0.00007023,-0.00055709,-0.01833350,0.00940553,-0.007217
 46,-0.28678633,0.07262669,-0.07429558,0.00001873,-0.00000023,0.0000076
 0,0.00000196,-0.00000189,-0.00000177,0.00000386,-0.00000203,0.00000467
 ,0.00000317,0.00000196,0.00000153,-0.00035281,-0.00024403,0.00004366,0
 .00028062,-0.00001761,0.00009808,0.00067153,-0.00128395,0.00105904,0.0
 0006512,0.00039794,-0.00013766,-0.00000751,-0.00000264,-0.00000038,-0.
 00001948,0.00000331,-0.00000260,0.00000063,-0.00001448,0.00000320,0.00
 001593,-0.00006109,-0.00004655,-0.00000534,0.00000409,0.00000112,-0.00
 000369,0.00000371,-0.00000006,-0.00000469,0.00000267,-0.00000135,-0.00
 000152,0.00000807,0.00000015,0.00000449,0.00000001,-0.00000650,0.00002
 777,0.00000841,-0.00001285,0.00000728,0.00003066,-0.00004252,0.0004759
 9,0.00037845,-0.00020217,0.30486145,0.02693064,-0.00512058,0.00738787,
 -0.00000101,0.00002211,0.00000037,0.00000622,-0.00001875,-0.00000328,0
 .00001611,0.00001408,0.00000911,-0.00000990,0.00002807,0.00000208,-0.0
 0003832,0.00003608,-0.00000599,-0.00000017,-0.00002302,-0.00001223,0.0
 0025169,0.00016600,-0.00017030,0.00007699,-0.00002852,-0.00000045,-0.0
 0007145,-0.00020862,0.00007301,-0.00003318,-0.00003079,-0.00000199,0.0
 0000430,-0.00008483,0.00000085,-0.00000550,0.00004498,-0.00000364,-0.0
 0035555,-0.00018357,-0.00026545,-0.00007498,0.00004917,0.00001049,0.00
 002556,0.00009531,-0.00004844,-0.00062365,-0.00055863,0.00000492,-0.00
 311005,-0.00232260,0.00239505,-0.00040417,0.00075545,-0.00011508,-0.00
 115531,-0.00429469,0.00272862,-0.02081963,0.00983118,-0.00580300,0.073
 57909,-0.07985499,0.02872386,-0.00003293,0.00003428,0.00000980,0.00000
 529,-0.00001395,-0.00000197,0.00000196,0.00000570,-0.00000292,0.000018
 33,0.00000660,0.00000135,0.00165054,0.00009466,0.00025798,-0.00007140,
 0.00006237,-0.00006433,0.00193199,0.00113110,-0.00089377,-0.00030341,-
 0.00002773,-0.00007103,-0.00000130,0.00000068,0.00000033,-0.00001372,0
 .00000578,0.00000616,0.00000301,-0.00000432,0.00000048,0.00000375,-0.0
 0002724,0.00008047,0.00000105,0.00000113,-0.00000189,0.00000141,0.0000
 0070,0.00000175,0.00000078,-0.00000044,0.00000136,0.00000340,-0.000003
 01,0.00000083,-0.00000176,0.00000241,0.00000794,-0.00008056,-0.0000033
 9,-0.00000850,-0.00001000,-0.00001596,0.00001338,-0.00103178,-0.000127
 68,-0.00003078,-0.07687168,0.08045446,-0.00964538,0.00267178,-0.000183
 81,0.00001530,-0.00001081,-0.00000047,-0.00000239,-0.00001117,-0.00000
 514,0.00000098,0.00002771,0.00003080,0.00003120,-0.00000112,0.00000947
 ,0.00001769,0.00002828,-0.00000498,-0.00000077,0.00002064,0.00001415,0
 .00023191,-0.00006498,-0.00042160,0.00006064,-0.00002637,-0.00003577,-
 0.00012342,-0.00013979,0.00017417,0.00000250,-0.00002454,-0.00000453,-
 0.00001029,-0.00008626,-0.00000145,-0.00001044,0.00001361,-0.00000329,
 -0.00009026,-0.00009350,-0.00084188,-0.00005830,0.00006005,0.00005331,
 0.00009341,0.00000633,-0.00008381,0.00004256,0.00000306,-0.00048723,-0
 .00100485,0.00132687,0.00890031,0.00024099,0.00013606,0.00025557,0.000
 84346,0.00310320,0.00251407,0.00040580,0.00046379,0.00435122,-0.073665
 46,0.02811962,-0.05951553,-0.00000334,-0.00001225,-0.00002030,-0.00000
 388,0.00000215,0.00000124,0.00000552,-0.00000445,-0.00000362,-0.000006
 09,0.00000694,0.00000019,-0.00060344,-0.00022895,0.00017046,0.00010137
 ,0.00005240,0.00001489,-0.00021765,-0.00123049,-0.00138165,0.00018002,
 -0.00003520,-0.00013730,0.00000023,-0.00000073,0.00000230,-0.00000263,
 0.00000382,0.00001642,0.00000090,-0.00000195,-0.00000381,-0.00003552,0
 .00004211,0.00025252,-0.00000031,0.00000034,-0.00000672,-0.00000114,-0
 .00000090,0.00000156,-0.00000123,0.00000016,0.00000050,-0.00000098,0.0
 0000076,0.00000121,-0.00000033,-0.00000385,0.00000197,0.00002663,0.000
 02036,0.00003775,-0.00000995,0.00005502,0.00004358,0.00039182,0.000241
 57,0.00021764,0.08162735,-0.03292441,0.05123441,-0.00320022,-0.0027795
 4,-0.00207449,0.00000629,0.00002232,-0.00000018,0.00001324,0.00000114,
 0.00000109,-0.00002322,-0.00003779,-0.00001758,-0.00004517,0.00018159,
 0.00002231,-0.00027622,-0.00007118,0.00004798,-0.00004594,-0.00004092,
 -0.00000525,0.00025291,0.00141989,-0.00009286,0.00004782,-0.00016831,0
 .00001171,0.00002279,0.00002903,-0.00002453,-0.00002565,0.00001149,-0.
 00000017,-0.00004719,-0.00000731,-0.00001571,0.00000541,-0.00000306,0.
 00000342,-0.00000329,-0.00034458,0.00012451,-0.00001458,0.00005096,-0.
 00000186,0.00002478,0.00002230,-0.00003270,-0.00488197,-0.00062338,-0.
 00153264,-0.00246069,0.02717852,-0.00800607,0.00091677,0.00219310,0.00
 010082,-0.00036230,-0.00016591,0.00007588,-0.06178425,0.03877905,-0.01
 609550,0.00709711,-0.02513122,0.00707991,-0.00002607,0.00002595,0.0000
 0609,0.00000014,0.00000155,0.00000178,-0.00001193,0.00000898,-0.000005
 03,0.00002415,-0.00001001,-0.00000009,0.00014381,0.00006701,0.00016618
 ,-0.00000308,0.00000018,-0.00005658,0.00061122,-0.00077802,0.00045193,
 -0.00030381,-0.00006658,0.00019736,-0.00000442,0.00000143,-0.00000065,
 0.00000288,-0.00000506,0.00000427,-0.00002343,-0.00001280,-0.00000673,
 -0.00042478,-0.00093971,0.00001047,-0.00000388,-0.00000216,-0.00000053
 ,-0.00000058,0.00000203,0.00000107,0.00000063,0.00000361,0.00000070,0.
 00000179,-0.00000030,0.00000044,-0.00000028,0.00000647,0.00000558,0.00
 001677,-0.00000791,-0.00001027,0.00000312,-0.00010456,0.00005688,-0.00
 003252,-0.00000354,-0.00006358,0.00064208,0.00061519,0.00118012,0.0641
 6619,-0.00424100,0.00058152,0.00121329,-0.00000686,-0.00000094,-0.0000
 0794,0.00000240,0.00001232,0.00000292,-0.00000040,-0.00000399,-0.00000
 829,-0.00000358,-0.00008067,-0.00000977,0.00005712,0.00004134,0.000023
 28,0.00004571,-0.00001238,0.00000236,-0.00041613,-0.00046158,0.0000521
 9,-0.00004199,0.00011978,0.00001496,-0.00008721,0.00027263,-0.00003591
 ,0.00003987,0.00002016,0.00000098,0.00002963,0.00010633,0.00000124,-0.
 00000208,-0.00004163,0.00000076,0.00056596,0.00020934,-0.00004807,0.00
 010304,-0.00010613,0.00001449,-0.00013369,-0.00009421,0.00001786,0.001
 42582,0.00168939,0.00075495,0.00002397,-0.00657707,0.00224974,-0.00209
 750,0.00041932,-0.00103689,-0.00028222,0.00020502,-0.00034626,0.037993
 06,-0.30437938,0.07607006,0.00553880,-0.01570248,0.00656817,-0.0000217
 0,0.00001186,0.00000016,0.00000264,-0.00000122,0.00000114,-0.00000456,
 -0.00000053,-0.00000132,0.00000284,-0.00000491,-0.00000088,0.00013236,
 0.00006338,-0.00015162,-0.00017975,0.00004692,-0.00001855,0.00074078,-
 0.00059600,0.00046977,-0.00031230,-0.00034818,-0.00003889,0.00000885,0
 .00000128,0.00000144,0.00001269,0.00000149,-0.00000251,0.00000407,0.00
 001974,0.00000155,0.00030896,0.00073644,0.00002378,0.00000476,-0.00000
 280,0.00000094,0.00000435,-0.00000297,0.00000212,0.00000432,-0.0000032
 7,0.00000060,0.00000188,-0.00000722,-0.00000025,-0.00000425,0.00000082
 ,0.00000277,-0.00000129,-0.00001534,0.00001721,0.00001673,-0.00010931,
 0.00004336,-0.00005096,0.00002556,0.00001227,0.00007625,0.00050185,-0.
 00158929,-0.03927277,0.32347558,-0.00232416,0.00166779,0.00868796,0.00
 000217,0.00000746,-0.00000194,-0.00000857,-0.00000145,-0.00000536,0.00
 000304,-0.00000527,-0.00001281,-0.00004560,0.00005268,-0.00001503,-0.0
 0006522,-0.00010842,0.00009111,-0.00002654,-0.00000920,-0.00002018,-0.
 00010821,0.00049324,0.00009926,-0.00002483,-0.00003584,0.00003007,0.00
 011150,0.00011091,-0.00001915,-0.00000868,0.00000246,-0.00000461,-0.00
 000057,0.00000135,-0.00001498,-0.00000091,0.00000297,0.00000773,0.0000
 6483,-0.00025989,-0.00003898,-0.00000685,-0.00000484,-0.00000081,-0.00
 001627,0.00002336,0.00003894,-0.00110141,0.00168279,0.00278012,0.00132
 061,0.00677006,0.00100108,0.00072791,-0.00009881,-0.00172395,-0.000886
 94,-0.00072008,-0.00047058,-0.01792128,0.07594593,-0.05940687,0.000325
 50,0.00088395,0.00457521,-0.00000046,0.00000752,0.00001310,-0.00000219
 ,-0.00000049,-0.00000112,-0.00000013,-0.00000569,0.00000276,0.00001013
 ,0.00000080,-0.00000235,0.00031459,0.00010512,-0.00073020,-0.00049280,
 0.00000667,0.00006245,0.00042519,0.00028555,0.00015728,0.00027107,-0.0
 0071166,-0.00040717,-0.00000441,-0.00000084,0.00000346,-0.00000152,-0.
 00000320,-0.00000672,-0.00001428,-0.00000962,0.00001793,-0.00027776,-0
 .00030864,0.00032255,-0.00000356,0.00000047,-0.00000212,-0.00000206,0.
 00000115,0.00000674,-0.00000202,0.00000235,-0.00000152,0.,0.00000259,0
 .00000132,0.00000013,-0.00000033,-0.00000045,-0.00001325,0.00003325,0.
 00005243,0.00001254,-0.00003884,0.00000283,-0.00003104,0.00009066,0.00
 016281,0.00134536,-0.00158467,-0.00505108,0.01845705,-0.08428181,0.049
 81235,0.00176303,-0.00070332,-0.00086805,0.00005308,-0.00034628,0.0002
 0358,0.00005383,0.00011825,0.00004876,-0.00000228,-0.00014630,-0.00003
 457,-0.00034092,-0.00012961,-0.00001794,-0.00086164,-0.00044492,0.0003
 3802,-0.00186431,0.00137503,0.00140616,0.00003269,-0.00046429,0.000535
 73,0.00013224,0.00017848,0.00003626,0.00004899,0.00000444,-0.00001494,
 0.00000197,0.00002764,0.00000299,-0.00008534,-0.00006067,0.00002619,0.
 00000960,-0.00003852,-0.00000794,-0.00000302,-0.00000998,-0.00002410,-
 0.00005871,0.00003532,-0.00000498,0.00004101,0.00003432,-0.00000659,-0
 .00047113,-0.00056188,0.00101363,-0.00004628,0.00038255,-0.00006715,-0
 .00004801,0.00000725,-0.00001012,0.00145586,0.00070699,-0.00036175,0.0
 0016331,0.00005172,0.00003963,-0.00002873,-0.00028690,0.00001493,-0.00
 068309,0.00093337,0.00199019,-0.00009580,0.00016555,-0.00002213,0.0000
 6657,0.00000171,0.00005093,-0.00036668,0.00004088,-0.00019281,-0.27510
 723,0.06198606,-0.10624745,-0.01818378,0.00838304,-0.01005104,0.000303
 46,-0.00042966,0.00054871,-0.00168973,-0.00447117,0.00011377,0.0000061
 6,0.00000227,-0.00000354,0.00000356,0.00000666,-0.00000097,-0.00000167
 ,0.00000395,0.00000406,0.00000763,0.00001096,-0.00001013,0.00000454,-0
 .00000210,0.00000124,-0.00001694,-0.00000872,-0.00000386,0.00000287,0.
 00000084,-0.00005108,-0.00004761,0.00001954,0.00001160,0.00001362,-0.0
 0002088,-0.00002827,0.00070173,0.00054055,0.00108193,-0.00088282,0.000
 42602,-0.00046778,-0.00007750,0.00014272,0.00013952,0.00001767,-0.0000
 0589,-0.00000236,0.00000559,0.00001340,-0.00000006,0.29607420,-0.00132
 416,-0.00308655,0.00456499,0.00010061,-0.00001615,-0.00005997,0.000036
 20,-0.00001742,-0.00001722,-0.00006575,0.00001629,-0.00002170,0.000005
 42,-0.00015156,-0.00006806,-0.00066793,0.00030018,0.00021925,0.0009529
 8,0.00044182,-0.00012200,-0.00037451,0.00014327,0.00010171,0.00023212,
 0.00008953,0.00003835,-0.00041340,-0.00025777,-0.00020615,0.00009020,0
 .00003279,0.00001085,-0.00016006,-0.00008838,0.00002289,0.00000359,-0.
 00008572,-0.00001970,-0.00009687,0.00007556,-0.00005561,-0.00002104,0.
 00008254,-0.00001023,0.00005841,0.00000779,0.00001733,0.00177489,0.000
 45386,-0.00140398,0.00008969,-0.00032639,-0.00005862,0.00015087,0.0001
 1713,0.00007529,0.02409117,-0.00478198,0.01072037,0.00004885,0.0000338
 5,-0.00000312,0.00128217,0.00007023,0.00020749,0.00158680,-0.00160239,
 -0.00222097,-0.00001513,0.00004770,-0.00002405,0.00000134,-0.00012998,
 0.00005774,-0.00000263,-0.00032108,0.00002378,0.06103077,-0.07040209,0
 .04053493,-0.01706012,0.00909795,-0.00732406,-0.00021868,-0.00083729,-
 0.00007590,-0.00373579,-0.00002744,0.00353495,0.00000760,-0.00000397,0
 .00000087,0.00000138,0.00000267,-0.00000032,0.00000842,0.00000638,0.00
 000502,0.00000432,0.00001228,0.00000463,0.00000290,0.00000084,0.000004
 94,-0.00000472,-0.00000322,-0.00000439,-0.00001183,-0.00001011,0.00002
 095,-0.00000033,0.00000542,-0.00001850,-0.00001015,-0.00000633,-0.0000
 6652,0.00082696,-0.00051447,-0.00217624,-0.00091254,0.00028166,-0.0002
 5368,0.00014004,-0.00011631,-0.00046015,0.00008151,-0.00039084,0.00008
 440,-0.00004517,-0.00000984,0.00000851,-0.06746839,0.07186753,-0.00008
 053,0.00454586,0.00323004,0.00018240,-0.00053033,0.00018096,-0.0001055
 6,0.00011474,-0.00001507,-0.00015069,0.00004325,-0.00000256,0.00035023
 ,0.00016204,0.00007689,0.00029349,0.00058018,0.00004522,0.00034203,0.0
 0033147,-0.00020356,0.00043922,0.00102737,-0.00065450,-0.00013093,-0.0
 0015230,-0.00003653,0.00004664,-0.00030826,0.00014356,0.00012235,0.000
 04325,-0.00001323,-0.00001832,0.00012297,-0.00002434,-0.00002387,-0.00
 009514,0.00000370,0.00004078,0.00003350,-0.00000517,0.00015097,-0.0000
 5431,0.00001118,-0.00010449,-0.00012002,0.00001662,0.00091198,-0.00121
 729,-0.00193672,0.00005411,-0.00031452,0.00012854,0.00006149,-0.000110
 99,0.00009005,-0.01468291,0.00067808,-0.00116299,-0.00022345,-0.000012
 40,-0.00011125,-0.00094927,0.00000248,0.00004554,0.00241610,-0.0030315
 9,-0.00253052,-0.00007154,0.00028781,-0.00003387,-0.00006682,-0.000023
 63,0.00017085,-0.00021910,-0.00010453,-0.00013833,-0.10781938,0.042735
 63,-0.08929967,0.00649054,-0.00034220,0.00590502,0.00077801,0.00010724
 ,-0.00074986,0.00012018,0.00336147,0.00533100,-0.00000391,-0.00001225,
 0.00000349,-0.00000340,-0.00001446,0.00000364,-0.00000092,-0.00000752,
 -0.00000852,-0.00000404,-0.00001275,0.00000123,-0.00001659,0.00000058,
 -0.00000114,-0.00005212,-0.00000699,-0.00000029,-0.00002314,0.00002578
 ,-0.00001595,-0.00005700,0.00005815,0.00002333,0.00004498,0.00004606,-
 0.00009292,0.00070542,-0.00220324,-0.00288264,0.00030463,-0.00001322,0
 .00011092,0.00004885,-0.00034181,-0.00070089,-0.00002367,0.00029606,-0
 .00010573,0.00003546,0.00001387,0.00000848,0.11089178,-0.04558809,0.08
 519598\\0.00000437,0.00001963,-0.00000571,-0.00000182,-0.00001430,-0.0
 0000216,0.00001396,0.00000492,0.00000204,-0.00000707,0.00000448,-0.000
 00480,-0.00002487,-0.00001747,0.00001934,0.00002059,0.00000621,0.00001
 677,-0.00002680,0.00000805,-0.00001355,0.00002165,0.00000994,-0.000014
 80,0.00001754,0.00001408,0.00000112,-0.00002268,-0.00001623,-0.0000230
 9,0.00000700,0.00000311,-0.00000170,-0.00001619,-0.00001600,-0.0000002
 5,0.00000644,0.00000391,-0.00000418,-0.00000371,-0.00000354,0.00000379
 ,-0.00000205,0.00001448,0.00000060,0.00001081,0.00000257,0.00000095,-0
 .00001919,-0.00000456,0.00001195,-0.00002224,-0.00001109,-0.00000228,0
 .00001875,0.00001146,0.00000060,0.00002064,0.00001456,-0.00000717,0.00
 001229,0.00000240,0.00000333,-0.00000690,-0.00002170,0.00000470,0.0000
 2615,0.00000041,0.00001123,-0.00000002,0.00000953,-0.00000160,-0.00000
 570,-0.00000587,-0.00000098,-0.00000386,-0.00000373,-0.00000430,-0.000
 01498,-0.00000277,0.00000116,0.00001701,-0.00000056,0.00000333,-0.0000
 0257,-0.00001791,0.00000751,-0.00001478,0.00000877,-0.00000613,-0.0000
 0219,0.00000421,0.00000028,0.00000207,-0.00000368,-0.00000080,-0.00000
 806,-0.00000016,-0.00000304,-0.00000394,-0.00000155,-0.00000113,-0.000
 00301,-0.00000457,0.00000086,-0.00000035,0.00000035,-0.00000123,0.0000
 0424,0.00000214,0.00000265,0.00000289,-0.00000059,0.00000382,0.0000006
 2,0.00000145,-0.00000059,0.00000127,0.00000043,0.00000209,0.00000211,-
 0.00000145,-0.00000005,0.00000022,0.00000348,-0.00000182,-0.00000107,-
 0.00000125,0.00000035,0.00000348,0.00000056,-0.00000042,-0.00000003,-0
 .00000217,0.00000331\\\@


 IT PROBABLY IS NOT POSSIBLE FOR A SCIENTIST TO INTERROGATE NATURE 
 FROM A WHOLLY DISINTERESTED VIEWPOINT.
 EVEN IF HE HAS NO PARTICULAR AXE TO GRIND, HE IS LIKELY TO HAVE 
 A DISTINCTIVE WAY OF VIEWING NATURE.

                                                   -- JOHN LOSEE
 Job cpu time:       1 days 16 hours 50 minutes 17.7 seconds.
 Elapsed time:       0 days  2 hours  2 minutes 29.7 seconds.
 File lengths (MBytes):  RWF=   4319 Int=      0 D2E=      0 Chk=     63 Scr=      1
 Normal termination of Gaussian 16 at Mon Jun 10 23:03:44 2019.
