 Entering Gaussian System, Link 0=/share/apps/gaussian16/g16/g16
 Initial command:
 /share/apps/gaussian16/g16/l1.exe "/home/amen01//scratch/465/Gau-35214.inp" -scrdir="/home/amen01//scratch/465/"
 Entering Link 1 = /share/apps/gaussian16/g16/l1.exe PID=     35215.
  
 Copyright (c) 1988-2017, Gaussian, Inc.  All Rights Reserved.
  
 This is part of the Gaussian(R) 16 program.  It is based on
 the Gaussian(R) 09 system (copyright 2009, Gaussian, Inc.),
 the Gaussian(R) 03 system (copyright 2003, Gaussian, Inc.),
 the Gaussian(R) 98 system (copyright 1998, Gaussian, Inc.),
 the Gaussian(R) 94 system (copyright 1995, Gaussian, Inc.),
 the Gaussian 92(TM) system (copyright 1992, Gaussian, Inc.),
 the Gaussian 90(TM) system (copyright 1990, Gaussian, Inc.),
 the Gaussian 88(TM) system (copyright 1988, Gaussian, Inc.),
 the Gaussian 86(TM) system (copyright 1986, Carnegie Mellon
 University), and the Gaussian 82(TM) system (copyright 1983,
 Carnegie Mellon University). Gaussian is a federally registered
 trademark of Gaussian, Inc.
  
 This software contains proprietary and confidential information,
 including trade secrets, belonging to Gaussian, Inc.
  
 This software is provided under written license and may be
 used, copied, transmitted, or stored only in accord with that
 written license.
  
 The following legend is applicable only to US Government
 contracts under FAR:
  
                    RESTRICTED RIGHTS LEGEND
  
 Use, reproduction and disclosure by the US Government is
 subject to restrictions as set forth in subparagraphs (a)
 and (c) of the Commercial Computer Software - Restricted
 Rights clause in FAR 52.227-19.
  
 Gaussian, Inc.
 340 Quinnipiac St., Bldg. 40, Wallingford CT 06492
  
  
 ---------------------------------------------------------------
 Warning -- This program may not be used in any manner that
 competes with the business of Gaussian, Inc. or will provide
 assistance to any competitor of Gaussian, Inc.  The licensee
 of this program is prohibited from giving any competitor of
 Gaussian, Inc. access to this program.  By using this program,
 the user acknowledges that Gaussian, Inc. is engaged in the
 business of creating and licensing software in the field of
 computational chemistry and represents and warrants to the
 licensee that it is not a competitor of Gaussian, Inc. and that
 it will not use this program in any manner prohibited above.
 ---------------------------------------------------------------
  

 Cite this work as:
 Gaussian 16, Revision B.01,
 M. J. Frisch, G. W. Trucks, H. B. Schlegel, G. E. Scuseria, 
 M. A. Robb, J. R. Cheeseman, G. Scalmani, V. Barone, 
 G. A. Petersson, H. Nakatsuji, X. Li, M. Caricato, A. V. Marenich, 
 J. Bloino, B. G. Janesko, R. Gomperts, B. Mennucci, H. P. Hratchian, 
 J. V. Ortiz, A. F. Izmaylov, J. L. Sonnenberg, D. Williams-Young, 
 F. Ding, F. Lipparini, F. Egidi, J. Goings, B. Peng, A. Petrone, 
 T. Henderson, D. Ranasinghe, V. G. Zakrzewski, J. Gao, N. Rega, 
 G. Zheng, W. Liang, M. Hada, M. Ehara, K. Toyota, R. Fukuda, 
 J. Hasegawa, M. Ishida, T. Nakajima, Y. Honda, O. Kitao, H. Nakai, 
 T. Vreven, K. Throssell, J. A. Montgomery, Jr., J. E. Peralta, 
 F. Ogliaro, M. J. Bearpark, J. J. Heyd, E. N. Brothers, K. N. Kudin, 
 V. N. Staroverov, T. A. Keith, R. Kobayashi, J. Normand, 
 K. Raghavachari, A. P. Rendell, J. C. Burant, S. S. Iyengar, 
 J. Tomasi, M. Cossi, J. M. Millam, M. Klene, C. Adamo, R. Cammi, 
 J. W. Ochterski, R. L. Martin, K. Morokuma, O. Farkas, 
 J. B. Foresman, and D. J. Fox, Gaussian, Inc., Wallingford CT, 2016.
 
 ******************************************
 Gaussian 16:  ES64L-G16RevB.01 20-Dec-2017
                12-Jun-2019 
 ******************************************
 %nprocshared=20
 Will use up to   20 processors via shared memory.
 %mem=100GB
 %chk=7-memb-hadd-2a.chk
 -------------------------------------------
 # opt freq b3lyp/6-311+g(d,p) int=grid=fine
 -------------------------------------------
 1/18=20,19=15,26=3,38=1/1,3;
 2/9=110,12=2,17=6,18=5,40=1/2;
 3/5=4,6=6,7=111,11=2,25=1,30=1,71=1,74=-5,75=-4/1,2,3;
 4//1;
 5/5=2,38=5/2;
 6/7=2,8=2,9=2,10=2,28=1/1;
 7//1,2,3,16;
 1/18=20,19=15,26=3/3(2);
 2/9=110/2;
 99//99;
 2/9=110/2;
 3/5=4,6=6,7=111,11=2,25=1,30=1,71=1,74=-5,75=-4/1,2,3;
 4/5=5,16=3,69=1/1;
 5/5=2,38=5/2;
 7//1,2,3,16;
 1/18=20,19=15,26=3/3(-5);
 2/9=110/2;
 6/7=2,8=2,9=2,10=2,19=2,28=1/1;
 99/9=1/99;
 --------------
 7-memb-hadd-2a
 --------------
 Symbolic Z-matrix:
 Charge =  0 Multiplicity = 2
 C                    -6.98087   0.00901  -0.21921 
 C                    -5.75574   0.61606  -0.06206 
 C                    -4.60327  -0.07476   0.10846 
 C                    -4.49554  -1.45257   0.15123 
 C                    -6.95755  -1.41861  -0.18796 
 C                    -5.7356   -2.13677  -0.00025 
 C                    -3.56748   0.7911    0.20037 
 C                    -2.25559   0.39251   0.33195 
 C                    -2.06149  -1.0195    0.41778 
 C                    -3.16348  -1.92654   0.32774 
 C                    -4.04491   2.08262   0.07358 
 C                    -3.16976   3.14653  -0.02722 
 C                    -1.78273   2.82215   0.12374 
 C                    -1.34272   1.47204   0.32798 
 C                    -8.03723   0.93042  -0.38928 
 C                    -7.81458   2.34593  -0.32745 
 C                    -6.51116   2.90448  -0.10392 
 C                    -5.4848    1.97531  -0.04365 
 C                    -0.85831   3.86023   0.04017 
 C                    -3.63985   4.48253  -0.3588 
 C                    -2.6029    5.48409  -0.60173 
 C                    -1.26412   5.15875  -0.27439 
 C                    -8.88975   3.21843  -0.45895 
 C                    -8.71192   4.59194  -0.30672 
 C                    -7.46132   5.1405    0.00988 
 C                    -6.30452   4.31927   0.10191 
 C                    -5.03368   4.96245   0.48997 
 C                    -5.06964   6.33775   0.8668 
 C                    -7.39198   6.51378   0.28205 
 C                    -6.21874   7.10435   0.73211 
 H                    -6.20711   8.15638   1.00375 
 H                    -4.18961   6.80259   1.30801 
 H                    -4.66456   4.4164    1.4065 
 H                    -8.2819    7.13598   0.20339 
 H                    -9.5879    5.23358  -0.38931 
 H                    -9.89091   2.8406   -0.65444 
 H                    -9.04443   0.5473   -0.54054 
 H                    -7.88593  -1.97259  -0.30645 
 H                    -5.75523  -3.22384   0.01786 
 H                    -2.97649  -2.99655   0.37864 
 H                    -1.05515  -1.41643   0.52954 
 H                    -0.28033   1.25983   0.42748 
 H                     0.2007    3.67035   0.20089 
 H                    -0.50939   5.94426  -0.32423 
 H                    -4.21709   4.33937  -1.32056 
 H                    -2.65366   5.68894  -1.71224 
 H                    -2.88647   6.50643  -0.28788 
 

 GradGradGradGradGradGradGradGradGradGradGradGradGradGradGradGradGradGrad
 Berny optimization.
 Initialization pass.
                           ----------------------------
                           !    Initial Parameters    !
                           ! (Angstroms and Degrees)  !
 --------------------------                            --------------------------
 ! Name  Definition              Value          Derivative Info.                !
 --------------------------------------------------------------------------------
 ! R1    R(1,2)                  1.3763         estimate D2E/DX2                !
 ! R2    R(1,5)                  1.4282         estimate D2E/DX2                !
 ! R3    R(1,15)                 1.412          estimate D2E/DX2                !
 ! R4    R(2,3)                  1.3544         estimate D2E/DX2                !
 ! R5    R(2,18)                 1.3861         estimate D2E/DX2                !
 ! R6    R(3,4)                  1.3827         estimate D2E/DX2                !
 ! R7    R(3,7)                  1.3532         estimate D2E/DX2                !
 ! R8    R(4,6)                  1.4244         estimate D2E/DX2                !
 ! R9    R(4,10)                 1.4248         estimate D2E/DX2                !
 ! R10   R(5,6)                  1.4297         estimate D2E/DX2                !
 ! R11   R(5,38)                 1.0876         estimate D2E/DX2                !
 ! R12   R(6,39)                 1.0874         estimate D2E/DX2                !
 ! R13   R(7,8)                  1.3774         estimate D2E/DX2                !
 ! R14   R(7,11)                 1.3828         estimate D2E/DX2                !
 ! R15   R(8,9)                  1.4279         estimate D2E/DX2                !
 ! R16   R(8,14)                 1.4138         estimate D2E/DX2                !
 ! R17   R(9,10)                 1.4301         estimate D2E/DX2                !
 ! R18   R(9,41)                 1.0875         estimate D2E/DX2                !
 ! R19   R(10,40)                1.0874         estimate D2E/DX2                !
 ! R20   R(11,12)                1.3813         estimate D2E/DX2                !
 ! R21   R(11,18)                1.4486         estimate D2E/DX2                !
 ! R22   R(12,13)                1.4324         estimate D2E/DX2                !
 ! R23   R(12,20)                1.4546         estimate D2E/DX2                !
 ! R24   R(13,14)                1.4346         estimate D2E/DX2                !
 ! R25   R(13,19)                1.3925         estimate D2E/DX2                !
 ! R26   R(14,42)                1.0879         estimate D2E/DX2                !
 ! R27   R(15,16)                1.4342         estimate D2E/DX2                !
 ! R28   R(15,37)                1.0882         estimate D2E/DX2                !
 ! R29   R(16,17)                1.4356         estimate D2E/DX2                !
 ! R30   R(16,23)                1.3909         estimate D2E/DX2                !
 ! R31   R(17,18)                1.3858         estimate D2E/DX2                !
 ! R32   R(17,26)                1.4445         estimate D2E/DX2                !
 ! R33   R(19,22)                1.3963         estimate D2E/DX2                !
 ! R34   R(19,43)                1.0878         estimate D2E/DX2                !
 ! R35   R(20,21)                1.462          estimate D2E/DX2                !
 ! R36   R(20,27)                1.701          estimate D2E/DX2                !
 ! R37   R(20,45)                1.1308         estimate D2E/DX2                !
 ! R38   R(21,22)                1.4161         estimate D2E/DX2                !
 ! R39   R(21,46)                1.1304         estimate D2E/DX2                !
 ! R40   R(21,47)                1.1064         estimate D2E/DX2                !
 ! R41   R(22,44)                1.0905         estimate D2E/DX2                !
 ! R42   R(23,24)                1.3933         estimate D2E/DX2                !
 ! R43   R(23,36)                1.0878         estimate D2E/DX2                !
 ! R44   R(24,25)                1.4018         estimate D2E/DX2                !
 ! R45   R(24,35)                1.089          estimate D2E/DX2                !
 ! R46   R(25,26)                1.4216         estimate D2E/DX2                !
 ! R47   R(25,29)                1.4017         estimate D2E/DX2                !
 ! R48   R(26,27)                1.4762         estimate D2E/DX2                !
 ! R49   R(27,28)                1.4264         estimate D2E/DX2                !
 ! R50   R(27,33)                1.1289         estimate D2E/DX2                !
 ! R51   R(28,30)                1.3879         estimate D2E/DX2                !
 ! R52   R(28,32)                1.0887         estimate D2E/DX2                !
 ! R53   R(29,30)                1.3885         estimate D2E/DX2                !
 ! R54   R(29,34)                1.0887         estimate D2E/DX2                !
 ! R55   R(30,31)                1.0866         estimate D2E/DX2                !
 ! A1    A(2,1,5)              115.0799         estimate D2E/DX2                !
 ! A2    A(2,1,15)             113.0717         estimate D2E/DX2                !
 ! A3    A(5,1,15)             131.8477         estimate D2E/DX2                !
 ! A4    A(1,2,3)              123.1507         estimate D2E/DX2                !
 ! A5    A(1,2,18)             127.4485         estimate D2E/DX2                !
 ! A6    A(3,2,18)             109.4003         estimate D2E/DX2                !
 ! A7    A(2,3,4)              125.3407         estimate D2E/DX2                !
 ! A8    A(2,3,7)              109.4817         estimate D2E/DX2                !
 ! A9    A(4,3,7)              125.162          estimate D2E/DX2                !
 ! A10   A(3,4,6)              114.0504         estimate D2E/DX2                !
 ! A11   A(3,4,10)             114.0885         estimate D2E/DX2                !
 ! A12   A(6,4,10)             131.8587         estimate D2E/DX2                !
 ! A13   A(1,5,6)              121.2614         estimate D2E/DX2                !
 ! A14   A(1,5,38)             119.5286         estimate D2E/DX2                !
 ! A15   A(6,5,38)             119.2098         estimate D2E/DX2                !
 ! A16   A(4,6,5)              121.1149         estimate D2E/DX2                !
 ! A17   A(4,6,39)             119.614          estimate D2E/DX2                !
 ! A18   A(5,6,39)             119.2688         estimate D2E/DX2                !
 ! A19   A(3,7,8)              123.3929         estimate D2E/DX2                !
 ! A20   A(3,7,11)             109.0951         estimate D2E/DX2                !
 ! A21   A(8,7,11)             127.4372         estimate D2E/DX2                !
 ! A22   A(7,8,9)              114.9215         estimate D2E/DX2                !
 ! A23   A(7,8,14)             113.1885         estimate D2E/DX2                !
 ! A24   A(9,8,14)             131.8742         estimate D2E/DX2                !
 ! A25   A(8,9,10)             121.2429         estimate D2E/DX2                !
 ! A26   A(8,9,41)             119.5304         estimate D2E/DX2                !
 ! A27   A(10,9,41)            119.2098         estimate D2E/DX2                !
 ! A28   A(4,10,9)             121.1449         estimate D2E/DX2                !
 ! A29   A(4,10,40)            119.5959         estimate D2E/DX2                !
 ! A30   A(9,10,40)            119.2513         estimate D2E/DX2                !
 ! A31   A(7,11,12)            120.4869         estimate D2E/DX2                !
 ! A32   A(7,11,18)            106.3449         estimate D2E/DX2                !
 ! A33   A(12,11,18)           132.9142         estimate D2E/DX2                !
 ! A34   A(11,12,13)           115.5553         estimate D2E/DX2                !
 ! A35   A(11,12,20)           121.2863         estimate D2E/DX2                !
 ! A36   A(13,12,20)           123.0212         estimate D2E/DX2                !
 ! A37   A(12,13,14)           121.6754         estimate D2E/DX2                !
 ! A38   A(12,13,19)           117.8827         estimate D2E/DX2                !
 ! A39   A(14,13,19)           120.4302         estimate D2E/DX2                !
 ! A40   A(8,14,13)            121.3969         estimate D2E/DX2                !
 ! A41   A(8,14,42)            118.7729         estimate D2E/DX2                !
 ! A42   A(13,14,42)           119.742          estimate D2E/DX2                !
 ! A43   A(1,15,16)            121.513          estimate D2E/DX2                !
 ! A44   A(1,15,37)            118.6492         estimate D2E/DX2                !
 ! A45   A(16,15,37)           119.8121         estimate D2E/DX2                !
 ! A46   A(15,16,17)           122.1176         estimate D2E/DX2                !
 ! A47   A(15,16,23)           119.6717         estimate D2E/DX2                !
 ! A48   A(17,16,23)           118.1973         estimate D2E/DX2                !
 ! A49   A(16,17,18)           114.7305         estimate D2E/DX2                !
 ! A50   A(16,17,26)           122.2175         estimate D2E/DX2                !
 ! A51   A(18,17,26)           122.9937         estimate D2E/DX2                !
 ! A52   A(2,18,11)            105.5455         estimate D2E/DX2                !
 ! A53   A(2,18,17)            120.8077         estimate D2E/DX2                !
 ! A54   A(11,18,17)           133.6312         estimate D2E/DX2                !
 ! A55   A(13,19,22)           120.9191         estimate D2E/DX2                !
 ! A56   A(13,19,43)           120.4818         estimate D2E/DX2                !
 ! A57   A(22,19,43)           118.589          estimate D2E/DX2                !
 ! A58   A(12,20,21)           115.9683         estimate D2E/DX2                !
 ! A59   A(12,20,27)           114.2176         estimate D2E/DX2                !
 ! A60   A(12,20,45)           104.0385         estimate D2E/DX2                !
 ! A61   A(21,20,27)           118.0871         estimate D2E/DX2                !
 ! A62   A(21,20,45)           107.907          estimate D2E/DX2                !
 ! A63   A(27,20,45)            92.3969         estimate D2E/DX2                !
 ! A64   A(20,21,22)           118.343          estimate D2E/DX2                !
 ! A65   A(20,21,46)           104.8057         estimate D2E/DX2                !
 ! A66   A(20,21,47)           113.8348         estimate D2E/DX2                !
 ! A67   A(22,21,46)           108.1303         estimate D2E/DX2                !
 ! A68   A(22,21,47)           112.894          estimate D2E/DX2                !
 ! A69   A(46,21,47)            95.723          estimate D2E/DX2                !
 ! A70   A(19,22,21)           122.7161         estimate D2E/DX2                !
 ! A71   A(19,22,44)           118.6218         estimate D2E/DX2                !
 ! A72   A(21,22,44)           118.5722         estimate D2E/DX2                !
 ! A73   A(16,23,24)           120.6235         estimate D2E/DX2                !
 ! A74   A(16,23,36)           120.701          estimate D2E/DX2                !
 ! A75   A(24,23,36)           118.6528         estimate D2E/DX2                !
 ! A76   A(23,24,25)           121.6204         estimate D2E/DX2                !
 ! A77   A(23,24,35)           118.0269         estimate D2E/DX2                !
 ! A78   A(25,24,35)           120.2772         estimate D2E/DX2                !
 ! A79   A(24,25,26)           120.9634         estimate D2E/DX2                !
 ! A80   A(24,25,29)           118.1228         estimate D2E/DX2                !
 ! A81   A(26,25,29)           120.8722         estimate D2E/DX2                !
 ! A82   A(17,26,25)           116.1129         estimate D2E/DX2                !
 ! A83   A(17,26,27)           125.9666         estimate D2E/DX2                !
 ! A84   A(25,26,27)           117.7635         estimate D2E/DX2                !
 ! A85   A(20,27,26)           116.8274         estimate D2E/DX2                !
 ! A86   A(20,27,28)           115.1185         estimate D2E/DX2                !
 ! A87   A(20,27,33)            90.0409         estimate D2E/DX2                !
 ! A88   A(26,27,28)           117.892          estimate D2E/DX2                !
 ! A89   A(26,27,33)           106.5081         estimate D2E/DX2                !
 ! A90   A(28,27,33)           105.0772         estimate D2E/DX2                !
 ! A91   A(27,28,30)           121.8555         estimate D2E/DX2                !
 ! A92   A(27,28,32)           119.8914         estimate D2E/DX2                !
 ! A93   A(30,28,32)           118.2138         estimate D2E/DX2                !
 ! A94   A(25,29,30)           121.4299         estimate D2E/DX2                !
 ! A95   A(25,29,34)           120.3612         estimate D2E/DX2                !
 ! A96   A(30,29,34)           118.102          estimate D2E/DX2                !
 ! A97   A(28,30,29)           119.7442         estimate D2E/DX2                !
 ! A98   A(28,30,31)           120.1095         estimate D2E/DX2                !
 ! A99   A(29,30,31)           120.125          estimate D2E/DX2                !
 ! D1    D(5,1,2,3)              0.1044         estimate D2E/DX2                !
 ! D2    D(5,1,2,18)          -179.6024         estimate D2E/DX2                !
 ! D3    D(15,1,2,3)          -179.6248         estimate D2E/DX2                !
 ! D4    D(15,1,2,18)            0.6683         estimate D2E/DX2                !
 ! D5    D(2,1,5,6)              0.2311         estimate D2E/DX2                !
 ! D6    D(2,1,5,38)          -179.925          estimate D2E/DX2                !
 ! D7    D(15,1,5,6)           179.8967         estimate D2E/DX2                !
 ! D8    D(15,1,5,38)           -0.2595         estimate D2E/DX2                !
 ! D9    D(2,1,15,16)           -2.9936         estimate D2E/DX2                !
 ! D10   D(2,1,15,37)          178.854          estimate D2E/DX2                !
 ! D11   D(5,1,15,16)          177.3357         estimate D2E/DX2                !
 ! D12   D(5,1,15,37)           -0.8167         estimate D2E/DX2                !
 ! D13   D(1,2,3,4)             -0.1618         estimate D2E/DX2                !
 ! D14   D(1,2,3,7)            178.4599         estimate D2E/DX2                !
 ! D15   D(18,2,3,4)           179.5914         estimate D2E/DX2                !
 ! D16   D(18,2,3,7)            -1.7868         estimate D2E/DX2                !
 ! D17   D(1,2,18,11)         -176.9248         estimate D2E/DX2                !
 ! D18   D(1,2,18,17)            4.3243         estimate D2E/DX2                !
 ! D19   D(3,2,18,11)            3.3353         estimate D2E/DX2                !
 ! D20   D(3,2,18,17)         -175.4156         estimate D2E/DX2                !
 ! D21   D(2,3,4,6)             -0.1237         estimate D2E/DX2                !
 ! D22   D(2,3,4,10)           179.3911         estimate D2E/DX2                !
 ! D23   D(7,3,4,6)           -178.5343         estimate D2E/DX2                !
 ! D24   D(7,3,4,10)             0.9805         estimate D2E/DX2                !
 ! D25   D(2,3,7,8)           -177.7007         estimate D2E/DX2                !
 ! D26   D(2,3,7,11)            -0.6378         estimate D2E/DX2                !
 ! D27   D(4,3,7,8)              0.9241         estimate D2E/DX2                !
 ! D28   D(4,3,7,11)           177.987          estimate D2E/DX2                !
 ! D29   D(3,4,6,5)              0.4526         estimate D2E/DX2                !
 ! D30   D(3,4,6,39)           179.9            estimate D2E/DX2                !
 ! D31   D(10,4,6,5)          -178.9527         estimate D2E/DX2                !
 ! D32   D(10,4,6,39)            0.4947         estimate D2E/DX2                !
 ! D33   D(3,4,10,9)            -1.3165         estimate D2E/DX2                !
 ! D34   D(3,4,10,40)          179.7129         estimate D2E/DX2                !
 ! D35   D(6,4,10,9)           178.0886         estimate D2E/DX2                !
 ! D36   D(6,4,10,40)           -0.8819         estimate D2E/DX2                !
 ! D37   D(1,5,6,4)             -0.5284         estimate D2E/DX2                !
 ! D38   D(1,5,6,39)          -179.9777         estimate D2E/DX2                !
 ! D39   D(38,5,6,4)           179.6273         estimate D2E/DX2                !
 ! D40   D(38,5,6,39)            0.178          estimate D2E/DX2                !
 ! D41   D(3,7,8,9)             -2.3185         estimate D2E/DX2                !
 ! D42   D(3,7,8,14)           176.4099         estimate D2E/DX2                !
 ! D43   D(11,7,8,9)          -178.8224         estimate D2E/DX2                !
 ! D44   D(11,7,8,14)           -0.0939         estimate D2E/DX2                !
 ! D45   D(3,7,11,12)         -172.2603         estimate D2E/DX2                !
 ! D46   D(3,7,11,18)            2.666          estimate D2E/DX2                !
 ! D47   D(8,7,11,12)            4.6512         estimate D2E/DX2                !
 ! D48   D(8,7,11,18)          179.5775         estimate D2E/DX2                !
 ! D49   D(7,8,9,10)             1.8854         estimate D2E/DX2                !
 ! D50   D(7,8,9,41)          -179.6171         estimate D2E/DX2                !
 ! D51   D(14,8,9,10)         -176.5448         estimate D2E/DX2                !
 ! D52   D(14,8,9,41)            1.9527         estimate D2E/DX2                !
 ! D53   D(7,8,14,13)           -3.4671         estimate D2E/DX2                !
 ! D54   D(7,8,14,42)          179.9564         estimate D2E/DX2                !
 ! D55   D(9,8,14,13)          174.9842         estimate D2E/DX2                !
 ! D56   D(9,8,14,42)           -1.5923         estimate D2E/DX2                !
 ! D57   D(8,9,10,4)            -0.1043         estimate D2E/DX2                !
 ! D58   D(8,9,10,40)          178.8697         estimate D2E/DX2                !
 ! D59   D(41,9,10,4)         -178.6065         estimate D2E/DX2                !
 ! D60   D(41,9,10,40)           0.3675         estimate D2E/DX2                !
 ! D61   D(7,11,12,13)          -5.1024         estimate D2E/DX2                !
 ! D62   D(7,11,12,20)         170.7622         estimate D2E/DX2                !
 ! D63   D(18,11,12,13)       -178.4485         estimate D2E/DX2                !
 ! D64   D(18,11,12,20)         -2.5838         estimate D2E/DX2                !
 ! D65   D(7,11,18,2)           -3.6306         estimate D2E/DX2                !
 ! D66   D(7,11,18,17)         174.8871         estimate D2E/DX2                !
 ! D67   D(12,11,18,2)         170.3965         estimate D2E/DX2                !
 ! D68   D(12,11,18,17)        -11.0858         estimate D2E/DX2                !
 ! D69   D(11,12,13,14)          1.6838         estimate D2E/DX2                !
 ! D70   D(11,12,13,19)       -179.5569         estimate D2E/DX2                !
 ! D71   D(20,12,13,14)       -174.1012         estimate D2E/DX2                !
 ! D72   D(20,12,13,19)          4.6581         estimate D2E/DX2                !
 ! D73   D(11,12,20,21)       -172.525          estimate D2E/DX2                !
 ! D74   D(11,12,20,27)         44.9811         estimate D2E/DX2                !
 ! D75   D(11,12,20,45)        -54.2104         estimate D2E/DX2                !
 ! D76   D(13,12,20,21)          3.0249         estimate D2E/DX2                !
 ! D77   D(13,12,20,27)       -139.469          estimate D2E/DX2                !
 ! D78   D(13,12,20,45)        121.3395         estimate D2E/DX2                !
 ! D79   D(12,13,14,8)           2.7612         estimate D2E/DX2                !
 ! D80   D(12,13,14,42)        179.305          estimate D2E/DX2                !
 ! D81   D(19,13,14,8)        -175.9669         estimate D2E/DX2                !
 ! D82   D(19,13,14,42)          0.5769         estimate D2E/DX2                !
 ! D83   D(12,13,19,22)         -4.4241         estimate D2E/DX2                !
 ! D84   D(12,13,19,43)        176.7451         estimate D2E/DX2                !
 ! D85   D(14,13,19,22)        174.3512         estimate D2E/DX2                !
 ! D86   D(14,13,19,43)         -4.4796         estimate D2E/DX2                !
 ! D87   D(1,15,16,17)           0.6351         estimate D2E/DX2                !
 ! D88   D(1,15,16,23)        -178.008          estimate D2E/DX2                !
 ! D89   D(37,15,16,17)        178.7664         estimate D2E/DX2                !
 ! D90   D(37,15,16,23)          0.1233         estimate D2E/DX2                !
 ! D91   D(15,16,17,18)          4.1007         estimate D2E/DX2                !
 ! D92   D(15,16,17,26)       -173.201          estimate D2E/DX2                !
 ! D93   D(23,16,17,18)       -177.237          estimate D2E/DX2                !
 ! D94   D(23,16,17,26)          5.4613         estimate D2E/DX2                !
 ! D95   D(15,16,23,24)        175.378          estimate D2E/DX2                !
 ! D96   D(15,16,23,36)         -2.8665         estimate D2E/DX2                !
 ! D97   D(17,16,23,24)         -3.318          estimate D2E/DX2                !
 ! D98   D(17,16,23,36)        178.4375         estimate D2E/DX2                !
 ! D99   D(16,17,18,2)          -6.3415         estimate D2E/DX2                !
 ! D100  D(16,17,18,11)        175.3212         estimate D2E/DX2                !
 ! D101  D(26,17,18,2)         170.9367         estimate D2E/DX2                !
 ! D102  D(26,17,18,11)         -7.4006         estimate D2E/DX2                !
 ! D103  D(16,17,26,25)         -2.7803         estimate D2E/DX2                !
 ! D104  D(16,17,26,27)        172.5396         estimate D2E/DX2                !
 ! D105  D(18,17,26,25)       -179.858          estimate D2E/DX2                !
 ! D106  D(18,17,26,27)         -4.5381         estimate D2E/DX2                !
 ! D107  D(13,19,22,21)         -3.8459         estimate D2E/DX2                !
 ! D108  D(13,19,22,44)        179.6525         estimate D2E/DX2                !
 ! D109  D(43,19,22,21)        175.0066         estimate D2E/DX2                !
 ! D110  D(43,19,22,44)         -1.495          estimate D2E/DX2                !
 ! D111  D(12,20,21,22)        -10.8487         estimate D2E/DX2                !
 ! D112  D(12,20,21,46)        109.7008         estimate D2E/DX2                !
 ! D113  D(12,20,21,47)       -147.0297         estimate D2E/DX2                !
 ! D114  D(27,20,21,22)        130.1465         estimate D2E/DX2                !
 ! D115  D(27,20,21,46)       -109.3039         estimate D2E/DX2                !
 ! D116  D(27,20,21,47)         -6.0345         estimate D2E/DX2                !
 ! D117  D(45,20,21,22)       -127.0119         estimate D2E/DX2                !
 ! D118  D(45,20,21,46)         -6.4623         estimate D2E/DX2                !
 ! D119  D(45,20,21,47)         96.8071         estimate D2E/DX2                !
 ! D120  D(12,20,27,26)        -72.3202         estimate D2E/DX2                !
 ! D121  D(12,20,27,28)        142.9849         estimate D2E/DX2                !
 ! D122  D(12,20,27,33)         36.2692         estimate D2E/DX2                !
 ! D123  D(21,20,27,26)        146.0283         estimate D2E/DX2                !
 ! D124  D(21,20,27,28)          1.3334         estimate D2E/DX2                !
 ! D125  D(21,20,27,33)       -105.3823         estimate D2E/DX2                !
 ! D126  D(45,20,27,26)         34.2412         estimate D2E/DX2                !
 ! D127  D(45,20,27,28)       -110.4537         estimate D2E/DX2                !
 ! D128  D(45,20,27,33)        142.8305         estimate D2E/DX2                !
 ! D129  D(20,21,22,19)         11.7559         estimate D2E/DX2                !
 ! D130  D(20,21,22,44)       -171.7408         estimate D2E/DX2                !
 ! D131  D(46,21,22,19)       -107.0694         estimate D2E/DX2                !
 ! D132  D(46,21,22,44)         69.4338         estimate D2E/DX2                !
 ! D133  D(47,21,22,19)        148.3243         estimate D2E/DX2                !
 ! D134  D(47,21,22,44)        -35.1725         estimate D2E/DX2                !
 ! D135  D(16,23,24,25)         -1.3737         estimate D2E/DX2                !
 ! D136  D(16,23,24,35)       -178.2208         estimate D2E/DX2                !
 ! D137  D(36,23,24,25)        176.9063         estimate D2E/DX2                !
 ! D138  D(36,23,24,35)          0.0591         estimate D2E/DX2                !
 ! D139  D(23,24,25,26)          4.164          estimate D2E/DX2                !
 ! D140  D(23,24,25,29)       -173.5081         estimate D2E/DX2                !
 ! D141  D(35,24,25,26)       -179.0587         estimate D2E/DX2                !
 ! D142  D(35,24,25,29)          3.2692         estimate D2E/DX2                !
 ! D143  D(24,25,26,17)         -2.003          estimate D2E/DX2                !
 ! D144  D(24,25,26,27)       -177.7231         estimate D2E/DX2                !
 ! D145  D(29,25,26,17)        175.605          estimate D2E/DX2                !
 ! D146  D(29,25,26,27)         -0.1151         estimate D2E/DX2                !
 ! D147  D(24,25,29,30)        173.4883         estimate D2E/DX2                !
 ! D148  D(24,25,29,34)         -2.6818         estimate D2E/DX2                !
 ! D149  D(26,25,29,30)         -4.186          estimate D2E/DX2                !
 ! D150  D(26,25,29,34)        179.6439         estimate D2E/DX2                !
 ! D151  D(17,26,27,20)         46.7072         estimate D2E/DX2                !
 ! D152  D(17,26,27,28)       -169.5957         estimate D2E/DX2                !
 ! D153  D(17,26,27,33)        -51.9613         estimate D2E/DX2                !
 ! D154  D(25,26,27,20)       -138.0421         estimate D2E/DX2                !
 ! D155  D(25,26,27,28)          5.655          estimate D2E/DX2                !
 ! D156  D(25,26,27,33)        123.2894         estimate D2E/DX2                !
 ! D157  D(20,27,28,30)        136.9285         estimate D2E/DX2                !
 ! D158  D(20,27,28,32)        -45.3947         estimate D2E/DX2                !
 ! D159  D(26,27,28,30)         -7.3735         estimate D2E/DX2                !
 ! D160  D(26,27,28,32)        170.3034         estimate D2E/DX2                !
 ! D161  D(33,27,28,30)       -125.7685         estimate D2E/DX2                !
 ! D162  D(33,27,28,32)         51.9083         estimate D2E/DX2                !
 ! D163  D(27,28,30,29)          3.2801         estimate D2E/DX2                !
 ! D164  D(27,28,30,31)       -178.392          estimate D2E/DX2                !
 ! D165  D(32,28,30,29)       -174.4342         estimate D2E/DX2                !
 ! D166  D(32,28,30,31)          3.8936         estimate D2E/DX2                !
 ! D167  D(25,29,30,28)          2.6679         estimate D2E/DX2                !
 ! D168  D(25,29,30,31)       -175.6597         estimate D2E/DX2                !
 ! D169  D(34,29,30,28)        178.9217         estimate D2E/DX2                !
 ! D170  D(34,29,30,31)          0.5941         estimate D2E/DX2                !
 --------------------------------------------------------------------------------
 Trust Radius=3.00D-01 FncErr=1.00D-07 GrdErr=1.00D-06 EigMax=2.50D+02 EigMin=1.00D-04
 Number of steps in this run=    282 maximum allowed number of steps=    282.
 GradGradGradGradGradGradGradGradGradGradGradGradGradGradGradGradGradGrad

                          Input orientation:                          
 ---------------------------------------------------------------------
 Center     Atomic      Atomic             Coordinates (Angstroms)
 Number     Number       Type             X           Y           Z
 ---------------------------------------------------------------------
      1          6           0       -6.980870    0.009010   -0.219210
      2          6           0       -5.755740    0.616060   -0.062060
      3          6           0       -4.603270   -0.074760    0.108460
      4          6           0       -4.495540   -1.452570    0.151230
      5          6           0       -6.957550   -1.418610   -0.187960
      6          6           0       -5.735600   -2.136770   -0.000250
      7          6           0       -3.567480    0.791100    0.200370
      8          6           0       -2.255590    0.392510    0.331950
      9          6           0       -2.061490   -1.019500    0.417780
     10          6           0       -3.163480   -1.926540    0.327740
     11          6           0       -4.044910    2.082620    0.073580
     12          6           0       -3.169760    3.146530   -0.027220
     13          6           0       -1.782730    2.822150    0.123740
     14          6           0       -1.342720    1.472040    0.327980
     15          6           0       -8.037230    0.930420   -0.389280
     16          6           0       -7.814580    2.345930   -0.327450
     17          6           0       -6.511160    2.904480   -0.103920
     18          6           0       -5.484800    1.975310   -0.043650
     19          6           0       -0.858310    3.860230    0.040170
     20          6           0       -3.639850    4.482530   -0.358800
     21          6           0       -2.602900    5.484090   -0.601730
     22          6           0       -1.264120    5.158750   -0.274390
     23          6           0       -8.889750    3.218430   -0.458950
     24          6           0       -8.711920    4.591940   -0.306720
     25          6           0       -7.461320    5.140500    0.009880
     26          6           0       -6.304520    4.319270    0.101910
     27          6           0       -5.033680    4.962450    0.489970
     28          6           0       -5.069640    6.337750    0.866800
     29          6           0       -7.391980    6.513780    0.282050
     30          6           0       -6.218740    7.104350    0.732110
     31          1           0       -6.207110    8.156380    1.003750
     32          1           0       -4.189610    6.802590    1.308010
     33          1           0       -4.664560    4.416400    1.406500
     34          1           0       -8.281900    7.135980    0.203390
     35          1           0       -9.587900    5.233580   -0.389310
     36          1           0       -9.890910    2.840600   -0.654440
     37          1           0       -9.044430    0.547300   -0.540540
     38          1           0       -7.885930   -1.972590   -0.306450
     39          1           0       -5.755230   -3.223840    0.017860
     40          1           0       -2.976490   -2.996550    0.378640
     41          1           0       -1.055150   -1.416430    0.529540
     42          1           0       -0.280330    1.259830    0.427480
     43          1           0        0.200700    3.670350    0.200890
     44          1           0       -0.509390    5.944260   -0.324230
     45          1           0       -4.217090    4.339370   -1.320560
     46          1           0       -2.653660    5.688940   -1.712240
     47          1           0       -2.886470    6.506430   -0.287880
 ---------------------------------------------------------------------
                    Distance matrix (angstroms):
                    1          2          3          4          5
     1  C    0.000000
     2  C    1.376281   0.000000
     3  C    2.401534   1.354436   0.000000
     4  C    2.906941   2.431630   1.382677   0.000000
     5  C    1.428152   2.366449   2.726982   2.485497   0.000000
     6  C    2.490585   2.753597   2.354968   1.424368   1.429738
     7  C    3.526889   2.210880   1.353153   2.428531   4.065242
     8  C    4.772748   3.529344   2.404140   2.907638   5.065460
     9  C    5.065954   4.068512   2.729260   2.486604   4.949506
    10  C    4.314855   3.651927   2.355879   1.424846   3.862500
    11  C    3.606306   2.257462   2.228738   3.564641   4.561851
    12  C    4.940187   3.618257   3.528466   4.789703   5.934113
    13  C    5.920476   4.548204   4.043237   5.062936   6.697758
    14  C    5.850522   4.512159   3.615517   4.304051   6.336274
    15  C    1.412026   2.326175   3.612508   4.302832   2.593103
    16  C    2.483542   2.702167   4.045030   5.066928   3.863382
    17  C    2.935586   2.410244   3.544153   4.807464   4.346888
    18  C    2.476970   1.386113   2.236743   3.573090   3.702501
    19  C    7.237742   5.875365   5.432636   6.439536   8.069630
    20  C    5.585184   4.417537   4.681389   6.018118   6.771984
    21  C    7.020644   5.824891   5.950350   7.229543   8.171992
    22  C    7.694420   6.391852   6.219817   7.371077   8.699671
    23  C    3.741881   4.092905   5.435160   6.442022   5.030802
    24  C    4.899739   4.960492   6.231490   7.384015   6.262478
    25  C    5.159022   4.835777   5.947866   7.230795   6.581402
    26  C    4.374804   3.747240   4.711878   6.048882   5.782192
    27  C    5.369456   4.440407   5.069940   6.446458   6.699163
    28  C    6.699639   5.837058   6.474015   7.844152   8.052195
    29  C    6.536995   6.130155   7.156528   8.477571   7.958169
    30  C    7.199285   6.553090   7.385005   8.748012   8.604256
    31  H    8.274900   7.628638   8.433594   9.797356   9.678004
    32  H    7.501751   6.527098   6.993424   8.341427   8.802701
    33  H    5.237682   4.217811   4.675380   6.004089   6.468960
    34  H    7.257064   6.997236   8.095437   9.386290   8.665337
    35  H    5.841376   6.009495   7.298821   8.421931   7.156180
    36  H    4.083584   4.732771   6.086089   6.941933   5.192598
    37  H    2.156685   3.324027   4.531232   5.017014   2.888630
    38  H    2.180248   3.361331   3.814416   3.460439   1.087577
    39  H    3.465504   3.840732   3.354389   2.177614   2.178713
    40  H    5.042408   4.579236   3.355036   2.177866   4.319695
    41  H    6.140575   5.155245   3.816614   3.461316   5.945850
    42  H    6.846897   5.534817   4.535495   5.020102   7.220670
    43  H    8.071979   6.699030   6.092005   6.949924   8.791431
    44  H    8.781701   7.482155   7.292165   8.415970   9.788217
    45  H    5.253900   4.220699   4.655725   5.982497   6.476669
    46  H    7.294895   6.170908   6.351076   7.606984   8.447731
    47  H    7.680188   6.555926   6.812969   8.131888   8.910103
                    6          7          8          9         10
     6  C    0.000000
     7  C    3.648755   0.000000
     8  C    4.314868   1.377404   0.000000
     9  C    3.862917   2.365068   1.427870   0.000000
    10  C    2.601456   2.750456   2.490437   1.430109   0.000000
    11  C    4.546112   1.382765   2.474852   3.698050   4.112770
    12  C    5.873459   2.399589   2.923925   4.333831   5.085477
    13  C    6.342826   2.704879   2.483968   3.862958   4.949560
    14  C    5.694615   2.330133   1.413765   2.594700   3.855582
    15  C    3.854413   4.510628   5.851229   6.337429   5.694715
    16  C    4.952153   4.553455   5.928999   6.706678   6.349489
    17  C    5.101612   3.636512   4.960832   5.955615   5.893390
    18  C    4.119950   2.266719   3.615816   4.571745   4.555315
    19  C    7.730045   4.096929   3.750015   5.040039   6.235640
    20  C    6.952399   3.734242   4.372822   5.776386   6.463315
    21  C    8.261543   4.857770   5.188118   6.605241   7.489700
    22  C    8.561186   4.960568   4.905885   6.267828   7.360127
    23  C    6.231953   5.886696   7.254201   8.084172   7.738202
    24  C    7.363962   6.416291   7.728345   8.731631   8.583607
    25  C    7.479096   5.840852   7.053139   8.201838   8.277410
    26  C    6.481864   4.466438   5.645015   6.826825   6.994803
    27  C    7.150660   4.431001   5.350430   6.680034   7.140179
    28  C    8.544751   5.784975   6.599305   7.961138   8.498383
    29  C    8.812225   6.883498   7.990929   9.229456   9.440408
    30  C    9.282676   6.867973   7.804837   9.131181   9.542280
    31  H   10.352742   7.865139   8.737477  10.085946  10.553954
    32  H    9.165903   6.144259   6.766258   8.155152   8.843731
    33  H    6.787497   3.975064   4.811391   6.107581   6.606803
    34  H    9.618160   7.904636   9.044740  10.259206  10.408792
    35  H    8.325481   7.505252   8.815835   9.818312   9.646484
    36  H    6.516807   6.702008   8.078627   8.794876   8.303530
    37  H    4.294706   5.532212   6.846426   7.220436   6.438895
    38  H    2.178218   5.152073   6.140194   5.946174   4.765066
    39  H    1.087398   4.575948   5.042234   4.320042   2.914821
    40  H    2.914698   3.837622   3.465199   2.178872   1.087418
    41  H    4.765100   3.360557   2.179991   1.087550   2.178530
    42  H    6.440483   3.328159   2.159403   2.892744   4.298308
    43  H    8.306790   4.742284   4.098143   5.211453   6.531384
    44  H    9.629189   6.015162   5.856767   7.173113   8.331792
    45  H    6.781554   3.914772   4.707013   6.032075   6.564192
    46  H    8.583181   5.336851   5.691164   7.063343   7.900441
    47  H    9.105228   5.776431   6.177557   7.603826   8.459947
                   11         12         13         14         15
    11  C    0.000000
    12  C    1.381287   0.000000
    13  C    2.380521   1.432433   0.000000
    14  C    2.781970   2.503629   1.434615   0.000000
    15  C    4.180960   5.360457   6.554434   6.754575   0.000000
    16  C    3.800075   4.722865   6.067419   6.563402   1.434247
    17  C    2.605638   3.351033   4.734623   5.380631   2.511420
    18  C    1.448634   2.594501   3.801379   4.189059   2.779596
    19  C    3.649032   2.420064   1.392532   2.453760   7.765636
    20  C    2.471962   1.454588   2.537440   3.848574   5.652908
    21  C    3.755720   2.472970   2.878352   4.306850   7.093165
    22  C    4.161304   2.782371   2.426348   3.736423   7.985424
    23  C    5.004611   5.736710   7.141869   7.786321   2.442669
    24  C    5.312466   5.734359   7.164574   8.027561   3.724077
    25  C    4.585471   4.732312   6.134663   7.141152   4.267994
    26  C    3.179504   3.349435   4.763237   5.725145   3.837689
    27  C    3.073185   2.653158   3.909435   5.082557   5.104083
    28  C    4.448078   3.820039   4.869842   6.152674   6.294724
    29  C    5.557114   5.409359   6.716910   7.874948   5.660472
    30  C    5.511531   5.053434   6.195606   7.460684   6.533133
    31  H    6.513899   5.948697   6.985955   8.294538   7.583164
    32  H    4.880868   4.023644   4.799945   6.122092   7.222697
    33  H    2.758110   2.429516   3.534409   4.568050   5.172213
    34  H    6.595861   6.488672   7.800941   8.958122   6.238597
    35  H    6.392774   6.758654   8.185285   9.091022   4.574031
    36  H    5.939719   6.757282   8.145458   8.712615   2.674926
    37  H    5.265886   6.444474   7.638619   7.805499   1.088169
    38  H    5.598445   6.966033   7.773265   7.421696   2.908130
    39  H    5.575555   6.875195   7.235051   6.451179   4.757222
    40  H    5.199284   6.159505   5.945360   4.758158   6.451502
    41  H    4.624923   5.059858   4.319677   2.909739   7.423030
    42  H    3.869663   3.480689   2.188677   1.087937   7.806735
    43  H    4.534567   3.418541   2.158562   2.689027   8.701667
    44  H    5.250754   3.872089   3.401418   4.595712   9.044954
    45  H    2.658231   2.047558   3.211552   4.381925   5.204007
    46  H    4.257966   3.093461   3.513947   4.864495   7.305926
    47  H    4.587236   3.381882   3.868022   5.301654   7.591607
                   16         17         18         19         20
    16  C    0.000000
    17  C    1.435565   0.000000
    18  C    2.376084   1.385786   0.000000
    19  C    7.128670   5.734887   4.996435   0.000000
    20  C    4.689820   3.286279   3.128788   2.878089   0.000000
    21  C    6.089736   4.709214   4.574750   2.468309   1.461986
    22  C    7.129046   5.713337   5.291660   1.396347   2.471536
    23  C    1.390877   2.425346   3.648494   8.072488   5.400873
    24  C    2.418721   2.780646   4.162963   7.895247   5.073517
    25  C    2.836936   2.432188   3.732013   6.726050   3.895187
    26  C    2.521647   1.444540   2.487424   5.465870   2.709128
    27  C    3.904838   2.602094   3.067779   4.341765   1.701028
    28  C    4.989545   3.848067   4.475730   4.955474   2.643527
    29  C    4.233327   3.735219   4.933673   7.056109   4.314527
    30  C    5.129516   4.292245   5.239038   6.303753   3.835974
    31  H    6.173928   5.376042   6.310658   6.927846   4.684500
    32  H    5.973019   4.751674   5.177561   4.621954   2.909153
    33  H    4.149223   2.824394   2.955444   4.082122   2.042226
    34  H    4.841979   4.597342   5.875144   8.115841   5.376382
    35  H    3.389250   3.869429   5.250832   8.847389   5.995357
    36  H    2.159344   3.424889   4.531622   9.116468   6.469860
    37  H    2.189294   3.487749   3.867438   8.850158   6.687941
    38  H    4.319160   5.071176   4.628218   9.139441   7.726611
    39  H    5.948319   6.175967   5.206542   8.611874   8.000303
    40  H    7.242083   6.895572   5.584742   7.184475   7.544568
    41  H    7.783295   6.988532   5.608409   5.302959   6.501350
    42  H    7.649474   6.466104   5.274503   2.691867   4.721272
    43  H    8.141127   6.762287   5.937834   1.087836   3.965188
    44  H    8.143328   6.731273   6.370714   2.144228   3.455087
    45  H    4.231076   2.966796   2.970920   3.655484   1.130789
    46  H    6.303051   5.021973   4.958890   3.104578   2.063927
    47  H    6.449620   5.113342   5.228959   3.350138   2.160737
                   21         22         23         24         25
    21  C    0.000000
    22  C    1.416097   0.000000
    23  C    6.684167   7.870777   0.000000
    24  C    6.180865   7.469407   1.393315   0.000000
    25  C    4.908805   6.203743   2.440198   1.401840   0.000000
    26  C    3.943844   5.123667   2.865280   2.457011   1.421645
    27  C    2.715255   3.851281   4.337203   3.781725   2.481053
    28  C    2.995016   4.144193   5.106957   4.206091   2.808532
    29  C    4.977611   6.300508   3.694824   2.404654   1.401707
    30  C    4.180750   5.417256   4.863465   3.688810   2.433583
    31  H    4.765399   5.920522   5.806841   4.549356   3.414140
    32  H    2.811263   3.710080   6.169252   5.286361   3.892528
    33  H    3.069754   3.865161   4.771506   4.398529   3.208853
    34  H    5.968919   7.306637   4.019375   2.630070   2.166273
    35  H    6.992718   8.324910   2.133798   1.088974   2.165724
    36  H    7.752800   8.940904   1.087793   2.139654   3.410831
    37  H    8.115969   9.048178   2.676849   4.065015   4.889446
    38  H    9.143286   9.731670   5.289386   6.616292   7.132770
    39  H    9.281655   9.514373   7.180209   8.362642   8.536568
    40  H    8.545288   8.358683   8.619407   9.536774   9.298455
    41  H    7.161877   6.627440   9.156418   9.768622   9.181633
    42  H    4.929298   4.081916   8.873781   9.095808   8.173164
    43  H    3.434243   2.141710   9.125563   8.974508   7.804126
    44  H    2.161376   1.090471   8.813554   8.313277   7.006211
    45  H    2.105400   3.238192   4.881867   4.614668   3.596791
    46  H    1.130386   2.068655   6.823707   6.315173   5.136154
    47  H    1.106387   2.109133   6.846866   6.132006   4.783689
                   26         27         28         29         30
    26  C    0.000000
    27  C    1.476247   0.000000
    28  C    2.486815   1.426445   0.000000
    29  C    2.455788   2.830448   2.401288   0.000000
    30  C    2.856778   2.459824   1.387893   1.388459   0.000000
    31  H    3.942869   3.441235   2.149420   2.150094   1.086596
    32  H    3.477700   2.183520   1.088667   3.375082   2.130748
    33  H    2.097822   1.128914   2.036407   3.619698   3.177318
    34  H    3.442991   3.918838   3.375781   1.088705   2.130064
    35  H    3.443522   4.646242   4.817850   2.629011   4.013552
    36  H    3.952306   5.422601   6.147266   4.540255   5.795422
    37  H    4.706124   6.053232   7.163021   6.245489   7.252521
    38  H    6.500394   7.540848   8.852669   8.521079   9.287032
    39  H    7.563550   8.231577   9.623655   9.877752  10.363228
    40  H    8.041989   8.221320   9.578556  10.485812  10.614391
    41  H    7.786977   7.518004   8.738260  10.154058   9.965309
    42  H    6.764395   6.025582   6.993981   8.843116   8.337621
    43  H    6.538255   5.399243   5.944320   8.108050   7.299573
    44  H    6.033715   4.700646   4.729616   6.932674   5.921008
    45  H    2.526102   2.081602   3.083003   4.168494   3.983111
    46  H    4.300688   3.322952   3.592960   5.206652   4.548409
    47  H    4.076600   2.756707   2.475474   4.541420   3.535804
                   31         32         33         34         35
    31  H    0.000000
    32  H    2.448597   0.000000
    33  H    4.065602   2.434991   0.000000
    34  H    2.446742   4.251843   4.682813   0.000000
    35  H    4.681145   5.872327   5.303960   2.382447   0.000000
    36  H    6.676638   7.214804   5.834840   4.666377   2.426615
    37  H    8.266397   8.131117   6.159883   6.674248   4.720111
    38  H   10.350415   9.657797   7.357351   9.131417   7.404894
    39  H   11.431779  10.229612   7.841629  10.665100   9.294251
    40  H   11.628221   9.917587   7.671891  11.438805  10.584684
    41  H   10.881464   8.830807   6.915114  11.201607  10.857013
    42  H    9.111598   6.839590   5.490345   9.929979  10.153260
    43  H    7.863147   5.505585   5.067627   9.163247   9.930192
    44  H    6.254680   4.116425   4.753443   7.881021   9.106517
    45  H    4.892051   3.602442   2.764601   5.163926   5.523806
    46  H    5.108020   3.566689   3.922960   6.118876   7.073979
    47  H    3.926486   2.081526   3.225020   5.454204   6.821994
                   36         37         38         39         40
    36  H    0.000000
    37  H    2.447187   0.000000
    38  H    5.225690   2.783301   0.000000
    39  H    7.371110   5.035091   2.492125   0.000000
    40  H    9.107622   7.086865   5.061664   2.811266   0.000000
    41  H    9.879006   8.296379   6.904183   5.061551   2.492207
    42  H    9.799624   8.846141   8.296526   7.088414   5.038694
    43  H   10.161726   9.786500   9.873892   9.112434   7.387401
    44  H    9.887096  10.100538  10.820821  10.568345   9.301542
    45  H    5.906121   6.188008   7.370865   7.833223   7.631651
    46  H    7.849189   8.285607   9.383599   9.594302   8.939448
    47  H    7.914219   8.572954   9.843207  10.148961   9.526751
                   41         42         43         44         45
    41  H    0.000000
    42  H    2.788033   0.000000
    43  H    5.249810   2.468469   0.000000
    44  H    7.430110   4.749886   2.439394   0.000000
    45  H    6.822754   5.295025   4.720092   4.161176   0.000000
    46  H    7.620177   5.461512   3.985241   2.567032   2.102157
    47  H    8.172736   5.901738   4.220529   2.442922   2.744654
                   46         47
    46  H    0.000000
    47  H    1.658702   0.000000
 Stoichiometry    C30H17(2)
 Framework group  C1[X(C30H17)]
 Deg. of freedom   135
 Full point group                 C1      NOp   1
 Largest Abelian subgroup         C1      NOp   1
 Largest concise Abelian subgroup C1      NOp   1
                         Standard orientation:                         
 ---------------------------------------------------------------------
 Center     Atomic      Atomic             Coordinates (Angstroms)
 Number     Number       Type             X           Y           Z
 ---------------------------------------------------------------------
      1          6           0       -1.738208   -2.740364    0.142527
      2          6           0       -1.522847   -1.384785    0.041656
      3          6           0       -2.525075   -0.483485   -0.091361
      4          6           0       -3.872622   -0.788201   -0.146690
      5          6           0       -3.108217   -3.140879    0.094742
      6          6           0       -4.157207   -2.180703   -0.053023
      7          6           0       -2.006308    0.765635   -0.131406
      8          6           0       -2.776908    1.904199   -0.215599
      9          6           0       -4.182791    1.673509   -0.310935
     10          6           0       -4.721195    0.349083   -0.275896
     11          6           0       -0.631230    0.688546   -0.007885
     12          6           0        0.124413    1.835233    0.140654
     13          6           0       -0.597674    3.068328    0.040994
     14          6           0       -2.017577    3.095538   -0.162115
     15          6           0       -0.544389   -3.481466    0.281740
     16          6           0        0.740920   -2.846031    0.246156
     17          6           0        0.886691   -1.427412    0.081481
     18          6           0       -0.305605   -0.721801    0.050685
     19          6           0        0.118657    4.255061    0.173960
     20          6           0        1.539803    1.769839    0.469624
     21          6           0        2.187830    3.046444    0.765839
     22          6           0        1.479150    4.240563    0.488021
     23          6           0        1.893628   -3.618001    0.345486
     24          6           0        3.152150   -3.034038    0.217283
     25          6           0        3.304074   -1.664902   -0.042603
     26          6           0        2.176055   -0.801474   -0.098624
     27          6           0        2.412295    0.618049   -0.427945
     28          6           0        3.736057    1.007941   -0.789031
     29          6           0        4.594615   -1.179513   -0.294958
     30          6           0        4.809632    0.133855   -0.690750
     31          1           0        5.810605    0.468746   -0.948805
     32          1           0        3.918199    2.003884   -1.189178
     33          1           0        1.781085    0.846103   -1.335696
     34          1           0        5.453260   -1.846913   -0.244124
     35          1           0        4.025212   -3.682529    0.272836
     36          1           0        1.830543   -4.693429    0.496376
     37          1           0       -0.610735   -4.562388    0.388134
     38          1           0       -3.361134   -4.195998    0.169434
     39          1           0       -5.189292   -2.521580   -0.085214
     40          1           0       -5.798423    0.211745   -0.332425
     41          1           0       -4.860966    2.520260   -0.387453
     42          1           0       -2.536046    4.050118   -0.221892
     43          1           0       -0.377493    5.215597    0.053155
     44          1           0        2.004774    5.191799    0.577446
     45          1           0        1.574843    1.136642    1.405849
     46          1           0        2.398645    3.012672    1.875879
     47          1           0        3.248211    3.092663    0.453511
 ---------------------------------------------------------------------
 Rotational constants (GHZ):           0.2416469           0.1774072           0.1043524
 Standard basis: 6-311+G(d,p) (5D, 7F)
 There are   792 symmetry adapted cartesian basis functions of A   symmetry.
 There are   762 symmetry adapted basis functions of A   symmetry.
   762 basis functions,  1216 primitive gaussians,   792 cartesian basis functions
    99 alpha electrons       98 beta electrons
       nuclear repulsion energy      2672.2785869440 Hartrees.
 NAtoms=   47 NActive=   47 NUniq=   47 SFac= 1.00D+00 NAtFMM=   60 NAOKFM=F Big=F
 Integral buffers will be    131072 words long.
 Raffenetti 2 integral format.
 Two-electron integral symmetry is turned on.
 One-electron integrals computed using PRISM.
 NBasis=   762 RedAO= T EigKep=  1.08D-06  NBF=   762
 NBsUse=   739 1.00D-06 EigRej=  9.28D-07 NBFU=   739
 ExpMin= 4.38D-02 ExpMax= 4.56D+03 ExpMxC= 6.82D+02 IAcc=2 IRadAn=         4 AccDes= 0.00D+00
 Harris functional with IExCor=  402 and IRadAn=       4 diagonalized for initial guess.
 HarFok:  IExCor=  402 AccDes= 0.00D+00 IRadAn=         4 IDoV= 1 UseB2=F ITyADJ=14
 ICtDFT=  3500011 ScaDFX=  1.000000  1.000000  1.000000  1.000000
 FoFCou: FMM=F IPFlag=           0 FMFlag=      100000 FMFlg1=           0
         NFxFlg=           0 DoJE=T BraDBF=F KetDBF=T FulRan=T
         wScrn=  0.000000 ICntrl=       500 IOpCl=  0 I1Cent=   200000004 NGrid=           0
         NMat0=    1 NMatS0=      1 NMatT0=    0 NMatD0=    1 NMtDS0=    0 NMtDT0=    0
 Petite list used in FoFCou.
 Initial guess <Sx>= 0.0000 <Sy>= 0.0000 <Sz>= 0.5000 <S**2>= 0.7500 S= 0.5000
 Requested convergence on RMS density matrix=1.00D-08 within 128 cycles.
 Requested convergence on MAX density matrix=1.00D-06.
 Requested convergence on             energy=1.00D-06.
 No special actions if energy rises.
 Restarting incremental Fock formation.
 SCF Done:  E(UB3LYP) =  -1153.61655020     A.U. after   26 cycles
            NFock= 26  Conv=0.50D-08     -V/T= 2.0037
 <Sx>= 0.0000 <Sy>= 0.0000 <Sz>= 0.5000 <S**2>= 0.7928 S= 0.5212
 <L.S>=  0.00000000000    
 Annihilation of the first spin contaminant:
 S**2 before annihilation     0.7928,   after     0.7513

 **********************************************************************

            Population analysis using the SCF Density.

 **********************************************************************

 Orbital symmetries:
 Alpha Orbitals:
       Occupied  (A) (A) (A) (A) (A) (A) (A) (A) (A) (A) (A) (A)
                 (A) (A) (A) (A) (A) (A) (A) (A) (A) (A) (A) (A)
                 (A) (A) (A) (A) (A) (A) (A) (A) (A) (A) (A) (A)
                 (A) (A) (A) (A) (A) (A) (A) (A) (A) (A) (A) (A)
                 (A) (A) (A) (A) (A) (A) (A) (A) (A) (A) (A) (A)
                 (A) (A) (A) (A) (A) (A) (A) (A) (A) (A) (A) (A)
                 (A) (A) (A) (A) (A) (A) (A) (A) (A) (A) (A) (A)
                 (A) (A) (A) (A) (A) (A) (A) (A) (A) (A) (A) (A)
                 (A) (A) (A)
       Virtual   (A) (A) (A) (A) (A) (A) (A) (A) (A) (A) (A) (A)
                 (A) (A) (A) (A) (A) (A) (A) (A) (A) (A) (A) (A)
                 (A) (A) (A) (A) (A) (A) (A) (A) (A) (A) (A) (A)
                 (A) (A) (A) (A) (A) (A) (A) (A) (A) (A) (A) (A)
                 (A) (A) (A) (A) (A) (A) (A) (A) (A) (A) (A) (A)
                 (A) (A) (A) (A) (A) (A) (A) (A) (A) (A) (A) (A)
                 (A) (A) (A) (A) (A) (A) (A) (A) (A) (A) (A) (A)
                 (A) (A) (A) (A) (A) (A) (A) (A) (A) (A) (A) (A)
                 (A) (A) (A) (A) (A) (A) (A) (A) (A) (A) (A) (A)
                 (A) (A) (A) (A) (A) (A) (A) (A) (A) (A) (A) (A)
                 (A) (A) (A) (A) (A) (A) (A) (A) (A) (A) (A) (A)
                 (A) (A) (A) (A) (A) (A) (A) (A) (A) (A) (A) (A)
                 (A) (A) (A) (A) (A) (A) (A) (A) (A) (A) (A) (A)
                 (A) (A) (A) (A) (A) (A) (A) (A) (A) (A) (A) (A)
                 (A) (A) (A) (A) (A) (A) (A) (A) (A) (A) (A) (A)
                 (A) (A) (A) (A) (A) (A) (A) (A) (A) (A) (A) (A)
                 (A) (A) (A) (A) (A) (A) (A) (A) (A) (A) (A) (A)
                 (A) (A) (A) (A) (A) (A) (A) (A) (A) (A) (A) (A)
                 (A) (A) (A) (A) (A) (A) (A) (A) (A) (A) (A) (A)
                 (A) (A) (A) (A) (A) (A) (A) (A) (A) (A) (A) (A)
                 (A) (A) (A) (A) (A) (A) (A) (A) (A) (A) (A) (A)
                 (A) (A) (A) (A) (A) (A) (A) (A) (A) (A) (A) (A)
                 (A) (A) (A) (A) (A) (A) (A) (A) (A) (A) (A) (A)
                 (A) (A) (A) (A) (A) (A) (A) (A) (A) (A) (A) (A)
                 (A) (A) (A) (A) (A) (A) (A) (A) (A) (A) (A) (A)
                 (A) (A) (A) (A) (A) (A) (A) (A) (A) (A) (A) (A)
                 (A) (A) (A) (A) (A) (A) (A) (A) (A) (A) (A) (A)
                 (A) (A) (A) (A) (A) (A) (A) (A) (A) (A) (A) (A)
                 (A) (A) (A) (A) (A) (A) (A) (A) (A) (A) (A) (A)
                 (A) (A) (A) (A) (A) (A) (A) (A) (A) (A) (A) (A)
                 (A) (A) (A) (A) (A) (A) (A) (A) (A) (A) (A) (A)
                 (A) (A) (A) (A) (A) (A) (A) (A) (A) (A) (A) (A)
                 (A) (A) (A) (A) (A) (A) (A) (A) (A) (A) (A) (A)
                 (A) (A) (A) (A) (A) (A) (A) (A) (A) (A) (A) (A)
                 (A) (A) (A) (A) (A) (A) (A) (A) (A) (A) (A) (A)
                 (A) (A) (A) (A) (A) (A) (A) (A) (A) (A) (A) (A)
                 (A) (A) (A) (A) (A) (A) (A) (A) (A) (A) (A) (A)
                 (A) (A) (A) (A) (A) (A) (A) (A) (A) (A) (A) (A)
                 (A) (A) (A) (A) (A) (A) (A) (A) (A) (A) (A) (A)
                 (A) (A) (A) (A) (A) (A) (A) (A) (A) (A) (A) (A)
                 (A) (A) (A) (A) (A) (A) (A) (A) (A) (A) (A) (A)
                 (A) (A) (A) (A) (A) (A) (A) (A) (A) (A) (A) (A)
                 (A) (A) (A) (A) (A) (A) (A) (A) (A) (A) (A) (A)
                 (A) (A) (A) (A) (A) (A) (A) (A) (A) (A) (A) (A)
                 (A) (A) (A) (A) (A) (A) (A) (A) (A) (A) (A) (A)
                 (A) (A) (A) (A) (A) (A) (A) (A) (A) (A) (A) (A)
                 (A) (A) (A) (A) (A) (A) (A) (A) (A) (A) (A) (A)
                 (A) (A) (A) (A) (A) (A) (A) (A) (A) (A) (A) (A)
                 (A) (A) (A) (A) (A) (A) (A) (A) (A) (A) (A) (A)
                 (A) (A) (A) (A) (A) (A) (A) (A) (A) (A) (A) (A)
                 (A) (A) (A) (A) (A) (A) (A) (A) (A) (A) (A) (A)
                 (A) (A) (A) (A) (A) (A) (A) (A) (A) (A) (A) (A)
                 (A) (A) (A) (A) (A) (A) (A) (A) (A) (A) (A) (A)
                 (A) (A) (A) (A)
 Beta  Orbitals:
       Occupied  (A) (A) (A) (A) (A) (A) (A) (A) (A) (A) (A) (A)
                 (A) (A) (A) (A) (A) (A) (A) (A) (A) (A) (A) (A)
                 (A) (A) (A) (A) (A) (A) (A) (A) (A) (A) (A) (A)
                 (A) (A) (A) (A) (A) (A) (A) (A) (A) (A) (A) (A)
                 (A) (A) (A) (A) (A) (A) (A) (A) (A) (A) (A) (A)
                 (A) (A) (A) (A) (A) (A) (A) (A) (A) (A) (A) (A)
                 (A) (A) (A) (A) (A) (A) (A) (A) (A) (A) (A) (A)
                 (A) (A) (A) (A) (A) (A) (A) (A) (A) (A) (A) (A)
                 (A) (A)
       Virtual   (A) (A) (A) (A) (A) (A) (A) (A) (A) (A) (A) (A)
                 (A) (A) (A) (A) (A) (A) (A) (A) (A) (A) (A) (A)
                 (A) (A) (A) (A) (A) (A) (A) (A) (A) (A) (A) (A)
                 (A) (A) (A) (A) (A) (A) (A) (A) (A) (A) (A) (A)
                 (A) (A) (A) (A) (A) (A) (A) (A) (A) (A) (A) (A)
                 (A) (A) (A) (A) (A) (A) (A) (A) (A) (A) (A) (A)
                 (A) (A) (A) (A) (A) (A) (A) (A) (A) (A) (A) (A)
                 (A) (A) (A) (A) (A) (A) (A) (A) (A) (A) (A) (A)
                 (A) (A) (A) (A) (A) (A) (A) (A) (A) (A) (A) (A)
                 (A) (A) (A) (A) (A) (A) (A) (A) (A) (A) (A) (A)
                 (A) (A) (A) (A) (A) (A) (A) (A) (A) (A) (A) (A)
                 (A) (A) (A) (A) (A) (A) (A) (A) (A) (A) (A) (A)
                 (A) (A) (A) (A) (A) (A) (A) (A) (A) (A) (A) (A)
                 (A) (A) (A) (A) (A) (A) (A) (A) (A) (A) (A) (A)
                 (A) (A) (A) (A) (A) (A) (A) (A) (A) (A) (A) (A)
                 (A) (A) (A) (A) (A) (A) (A) (A) (A) (A) (A) (A)
                 (A) (A) (A) (A) (A) (A) (A) (A) (A) (A) (A) (A)
                 (A) (A) (A) (A) (A) (A) (A) (A) (A) (A) (A) (A)
                 (A) (A) (A) (A) (A) (A) (A) (A) (A) (A) (A) (A)
                 (A) (A) (A) (A) (A) (A) (A) (A) (A) (A) (A) (A)
                 (A) (A) (A) (A) (A) (A) (A) (A) (A) (A) (A) (A)
                 (A) (A) (A) (A) (A) (A) (A) (A) (A) (A) (A) (A)
                 (A) (A) (A) (A) (A) (A) (A) (A) (A) (A) (A) (A)
                 (A) (A) (A) (A) (A) (A) (A) (A) (A) (A) (A) (A)
                 (A) (A) (A) (A) (A) (A) (A) (A) (A) (A) (A) (A)
                 (A) (A) (A) (A) (A) (A) (A) (A) (A) (A) (A) (A)
                 (A) (A) (A) (A) (A) (A) (A) (A) (A) (A) (A) (A)
                 (A) (A) (A) (A) (A) (A) (A) (A) (A) (A) (A) (A)
                 (A) (A) (A) (A) (A) (A) (A) (A) (A) (A) (A) (A)
                 (A) (A) (A) (A) (A) (A) (A) (A) (A) (A) (A) (A)
                 (A) (A) (A) (A) (A) (A) (A) (A) (A) (A) (A) (A)
                 (A) (A) (A) (A) (A) (A) (A) (A) (A) (A) (A) (A)
                 (A) (A) (A) (A) (A) (A) (A) (A) (A) (A) (A) (A)
                 (A) (A) (A) (A) (A) (A) (A) (A) (A) (A) (A) (A)
                 (A) (A) (A) (A) (A) (A) (A) (A) (A) (A) (A) (A)
                 (A) (A) (A) (A) (A) (A) (A) (A) (A) (A) (A) (A)
                 (A) (A) (A) (A) (A) (A) (A) (A) (A) (A) (A) (A)
                 (A) (A) (A) (A) (A) (A) (A) (A) (A) (A) (A) (A)
                 (A) (A) (A) (A) (A) (A) (A) (A) (A) (A) (A) (A)
                 (A) (A) (A) (A) (A) (A) (A) (A) (A) (A) (A) (A)
                 (A) (A) (A) (A) (A) (A) (A) (A) (A) (A) (A) (A)
                 (A) (A) (A) (A) (A) (A) (A) (A) (A) (A) (A) (A)
                 (A) (A) (A) (A) (A) (A) (A) (A) (A) (A) (A) (A)
                 (A) (A) (A) (A) (A) (A) (A) (A) (A) (A) (A) (A)
                 (A) (A) (A) (A) (A) (A) (A) (A) (A) (A) (A) (A)
                 (A) (A) (A) (A) (A) (A) (A) (A) (A) (A) (A) (A)
                 (A) (A) (A) (A) (A) (A) (A) (A) (A) (A) (A) (A)
                 (A) (A) (A) (A) (A) (A) (A) (A) (A) (A) (A) (A)
                 (A) (A) (A) (A) (A) (A) (A) (A) (A) (A) (A) (A)
                 (A) (A) (A) (A) (A) (A) (A) (A) (A) (A) (A) (A)
                 (A) (A) (A) (A) (A) (A) (A) (A) (A) (A) (A) (A)
                 (A) (A) (A) (A) (A) (A) (A) (A) (A) (A) (A) (A)
                 (A) (A) (A) (A) (A) (A) (A) (A) (A) (A) (A) (A)
                 (A) (A) (A) (A) (A)
 The electronic state is 2-A.
 Alpha  occ. eigenvalues --  -10.20309 -10.20062 -10.19871 -10.19358 -10.19314
 Alpha  occ. eigenvalues --  -10.19086 -10.19084 -10.19032 -10.19002 -10.18971
 Alpha  occ. eigenvalues --  -10.18909 -10.18901 -10.18825 -10.18791 -10.18654
 Alpha  occ. eigenvalues --  -10.18489 -10.18440 -10.18397 -10.18204 -10.18188
 Alpha  occ. eigenvalues --  -10.18188 -10.18142 -10.18062 -10.18042 -10.17574
 Alpha  occ. eigenvalues --  -10.17309 -10.17085 -10.15491 -10.15250 -10.15139
 Alpha  occ. eigenvalues --   -0.93097  -0.89364  -0.88434  -0.85617  -0.84379
 Alpha  occ. eigenvalues --   -0.83559  -0.80688  -0.80039  -0.78520  -0.77260
 Alpha  occ. eigenvalues --   -0.75942  -0.74973  -0.72908  -0.70950  -0.70630
 Alpha  occ. eigenvalues --   -0.67206  -0.65989  -0.64365  -0.63480  -0.62702
 Alpha  occ. eigenvalues --   -0.60853  -0.59272  -0.59005  -0.56646  -0.56354
 Alpha  occ. eigenvalues --   -0.53173  -0.52253  -0.51657  -0.51078  -0.49691
 Alpha  occ. eigenvalues --   -0.48950  -0.48164  -0.47711  -0.46863  -0.45603
 Alpha  occ. eigenvalues --   -0.45136  -0.44578  -0.44348  -0.43593  -0.43050
 Alpha  occ. eigenvalues --   -0.42943  -0.42667  -0.42207  -0.40961  -0.40532
 Alpha  occ. eigenvalues --   -0.40074  -0.39778  -0.39574  -0.39020  -0.38230
 Alpha  occ. eigenvalues --   -0.37021  -0.36575  -0.36026  -0.35007  -0.34528
 Alpha  occ. eigenvalues --   -0.34401  -0.33353  -0.33176  -0.32993  -0.32757
 Alpha  occ. eigenvalues --   -0.32253  -0.29636  -0.27241  -0.27140  -0.24923
 Alpha  occ. eigenvalues --   -0.22222  -0.20629  -0.20077  -0.17573
 Alpha virt. eigenvalues --   -0.09046  -0.05722  -0.04423  -0.02774  -0.01449
 Alpha virt. eigenvalues --   -0.00358   0.00604   0.00797   0.01480   0.01685
 Alpha virt. eigenvalues --    0.01701   0.01820   0.02422   0.02943   0.03023
 Alpha virt. eigenvalues --    0.03280   0.03529   0.04386   0.04477   0.04784
 Alpha virt. eigenvalues --    0.04927   0.05117   0.05633   0.05893   0.06525
 Alpha virt. eigenvalues --    0.06990   0.07080   0.07473   0.07920   0.08333
 Alpha virt. eigenvalues --    0.08539   0.08798   0.09233   0.09436   0.09684
 Alpha virt. eigenvalues --    0.10056   0.10317   0.10701   0.11472   0.11599
 Alpha virt. eigenvalues --    0.11959   0.12165   0.12427   0.12991   0.13150
 Alpha virt. eigenvalues --    0.13299   0.13720   0.14114   0.14353   0.14508
 Alpha virt. eigenvalues --    0.14798   0.15212   0.15439   0.15818   0.16054
 Alpha virt. eigenvalues --    0.16098   0.16299   0.16787   0.16939   0.17110
 Alpha virt. eigenvalues --    0.17355   0.17561   0.17787   0.18110   0.18272
 Alpha virt. eigenvalues --    0.18405   0.18581   0.18932   0.19060   0.19432
 Alpha virt. eigenvalues --    0.19689   0.19907   0.20068   0.20303   0.20589
 Alpha virt. eigenvalues --    0.20666   0.20873   0.21046   0.21264   0.21457
 Alpha virt. eigenvalues --    0.21699   0.21810   0.21969   0.22049   0.22806
 Alpha virt. eigenvalues --    0.22856   0.22975   0.23320   0.23713   0.23920
 Alpha virt. eigenvalues --    0.24064   0.24117   0.24240   0.24529   0.24794
 Alpha virt. eigenvalues --    0.24933   0.25262   0.25447   0.25723   0.25949
 Alpha virt. eigenvalues --    0.26176   0.26312   0.26497   0.26874   0.27003
 Alpha virt. eigenvalues --    0.27157   0.27493   0.27919   0.28307   0.28646
 Alpha virt. eigenvalues --    0.28946   0.29032   0.29275   0.29571   0.29792
 Alpha virt. eigenvalues --    0.29846   0.30423   0.30778   0.30972   0.31447
 Alpha virt. eigenvalues --    0.31557   0.31922   0.32432   0.32886   0.33125
 Alpha virt. eigenvalues --    0.33332   0.33749   0.34102   0.34411   0.34853
 Alpha virt. eigenvalues --    0.35441   0.35856   0.36220   0.36538   0.36844
 Alpha virt. eigenvalues --    0.36964   0.37389   0.37657   0.39170   0.39521
 Alpha virt. eigenvalues --    0.40200   0.40791   0.41517   0.41838   0.42913
 Alpha virt. eigenvalues --    0.43093   0.43559   0.44235   0.44480   0.44840
 Alpha virt. eigenvalues --    0.45059   0.45641   0.46538   0.46954   0.47883
 Alpha virt. eigenvalues --    0.48378   0.49002   0.49507   0.50112   0.50318
 Alpha virt. eigenvalues --    0.50938   0.51787   0.52461   0.52654   0.53170
 Alpha virt. eigenvalues --    0.53402   0.54184   0.54720   0.54839   0.55071
 Alpha virt. eigenvalues --    0.55390   0.55762   0.56040   0.56367   0.56799
 Alpha virt. eigenvalues --    0.57155   0.57747   0.58090   0.58269   0.58584
 Alpha virt. eigenvalues --    0.59122   0.59778   0.59837   0.60091   0.60401
 Alpha virt. eigenvalues --    0.60554   0.60905   0.61300   0.61833   0.62161
 Alpha virt. eigenvalues --    0.62933   0.63127   0.63505   0.64141   0.64449
 Alpha virt. eigenvalues --    0.64891   0.65092   0.65231   0.65558   0.66218
 Alpha virt. eigenvalues --    0.66383   0.66820   0.67293   0.67380   0.68067
 Alpha virt. eigenvalues --    0.68401   0.68543   0.69053   0.69178   0.69572
 Alpha virt. eigenvalues --    0.70591   0.70911   0.71376   0.71443   0.71721
 Alpha virt. eigenvalues --    0.72276   0.72490   0.72926   0.73265   0.73518
 Alpha virt. eigenvalues --    0.74240   0.74321   0.74755   0.75261   0.75462
 Alpha virt. eigenvalues --    0.75678   0.75893   0.76466   0.76625   0.76940
 Alpha virt. eigenvalues --    0.77325   0.77979   0.78995   0.79227   0.79462
 Alpha virt. eigenvalues --    0.80639   0.81258   0.81483   0.82447   0.83165
 Alpha virt. eigenvalues --    0.83737   0.83951   0.85156   0.85482   0.86992
 Alpha virt. eigenvalues --    0.87716   0.88753   0.89258   0.89777   0.90150
 Alpha virt. eigenvalues --    0.90430   0.90640   0.91482   0.91928   0.92137
 Alpha virt. eigenvalues --    0.92828   0.93567   0.93699   0.94215   0.94820
 Alpha virt. eigenvalues --    0.95224   0.96052   0.96153   0.96725   0.97053
 Alpha virt. eigenvalues --    0.97413   0.97459   0.98319   0.99261   0.99342
 Alpha virt. eigenvalues --    0.99571   1.00267   1.00718   1.01283   1.01827
 Alpha virt. eigenvalues --    1.02125   1.02696   1.03050   1.03791   1.04679
 Alpha virt. eigenvalues --    1.04935   1.05263   1.05493   1.06093   1.06726
 Alpha virt. eigenvalues --    1.07200   1.07720   1.07991   1.08280   1.09083
 Alpha virt. eigenvalues --    1.10062   1.10125   1.11055   1.11740   1.13204
 Alpha virt. eigenvalues --    1.13469   1.14319   1.15200   1.15732   1.16559
 Alpha virt. eigenvalues --    1.17059   1.17739   1.17881   1.19057   1.21418
 Alpha virt. eigenvalues --    1.21654   1.22805   1.24193   1.25642   1.26788
 Alpha virt. eigenvalues --    1.28513   1.30699   1.31074   1.32002   1.32646
 Alpha virt. eigenvalues --    1.36117   1.37518   1.38238   1.38839   1.39964
 Alpha virt. eigenvalues --    1.40697   1.41519   1.42407   1.43064   1.43619
 Alpha virt. eigenvalues --    1.44578   1.45596   1.46394   1.47005   1.47528
 Alpha virt. eigenvalues --    1.48186   1.48451   1.48518   1.48869   1.49383
 Alpha virt. eigenvalues --    1.49783   1.50191   1.51195   1.51476   1.52258
 Alpha virt. eigenvalues --    1.53272   1.53594   1.54811   1.55168   1.56615
 Alpha virt. eigenvalues --    1.57135   1.57485   1.58036   1.58319   1.59339
 Alpha virt. eigenvalues --    1.60127   1.60700   1.61780   1.61984   1.63266
 Alpha virt. eigenvalues --    1.64395   1.64792   1.65317   1.66925   1.67314
 Alpha virt. eigenvalues --    1.67838   1.68308   1.69303   1.69737   1.70390
 Alpha virt. eigenvalues --    1.71237   1.71726   1.72740   1.73459   1.73492
 Alpha virt. eigenvalues --    1.74079   1.75238   1.75400   1.76142   1.76569
 Alpha virt. eigenvalues --    1.77210   1.77443   1.78415   1.78939   1.79807
 Alpha virt. eigenvalues --    1.80361   1.80921   1.82346   1.83346   1.84285
 Alpha virt. eigenvalues --    1.84759   1.84900   1.85500   1.86541   1.86881
 Alpha virt. eigenvalues --    1.87156   1.87746   1.88008   1.88700   1.89248
 Alpha virt. eigenvalues --    1.89763   1.90021   1.91128   1.91213   1.92208
 Alpha virt. eigenvalues --    1.92734   1.92971   1.93383   1.94228   1.94822
 Alpha virt. eigenvalues --    1.95514   1.96328   1.96743   1.97197   1.98118
 Alpha virt. eigenvalues --    1.98459   1.98810   1.99967   2.01014   2.01632
 Alpha virt. eigenvalues --    2.02767   2.03223   2.03665   2.04372   2.04831
 Alpha virt. eigenvalues --    2.05559   2.06901   2.06983   2.07267   2.08299
 Alpha virt. eigenvalues --    2.09653   2.11051   2.11579   2.12673   2.13298
 Alpha virt. eigenvalues --    2.14677   2.15585   2.16123   2.17150   2.17574
 Alpha virt. eigenvalues --    2.19016   2.19328   2.19871   2.21021   2.21477
 Alpha virt. eigenvalues --    2.22299   2.23446   2.23568   2.25053   2.25483
 Alpha virt. eigenvalues --    2.26126   2.27582   2.28009   2.29439   2.30342
 Alpha virt. eigenvalues --    2.30846   2.32291   2.33594   2.35766   2.38100
 Alpha virt. eigenvalues --    2.39090   2.41125   2.41733   2.41971   2.42723
 Alpha virt. eigenvalues --    2.43625   2.46082   2.46151   2.46555   2.47570
 Alpha virt. eigenvalues --    2.48623   2.49941   2.51113   2.52540   2.53695
 Alpha virt. eigenvalues --    2.55799   2.57101   2.57573   2.57916   2.59069
 Alpha virt. eigenvalues --    2.60559   2.61228   2.63453   2.64178   2.64540
 Alpha virt. eigenvalues --    2.64991   2.65871   2.66626   2.67446   2.67634
 Alpha virt. eigenvalues --    2.68879   2.70518   2.71367   2.71615   2.72430
 Alpha virt. eigenvalues --    2.73068   2.73255   2.74011   2.74253   2.74663
 Alpha virt. eigenvalues --    2.74798   2.75376   2.75914   2.76148   2.77495
 Alpha virt. eigenvalues --    2.77576   2.77931   2.78114   2.78278   2.78615
 Alpha virt. eigenvalues --    2.79358   2.79941   2.80103   2.80663   2.82707
 Alpha virt. eigenvalues --    2.84077   2.84339   2.84748   2.85293   2.86313
 Alpha virt. eigenvalues --    2.86816   2.87910   2.87994   2.89310   2.90640
 Alpha virt. eigenvalues --    2.90835   2.91405   2.92850   2.93122   2.94315
 Alpha virt. eigenvalues --    2.96476   2.98421   2.99996   3.00607   3.01183
 Alpha virt. eigenvalues --    3.03212   3.04011   3.05585   3.06812   3.07730
 Alpha virt. eigenvalues --    3.08549   3.12695   3.14457   3.15586   3.16262
 Alpha virt. eigenvalues --    3.17858   3.19554   3.21159   3.21953   3.23055
 Alpha virt. eigenvalues --    3.23276   3.24720   3.25137   3.26860   3.29164
 Alpha virt. eigenvalues --    3.30656   3.32786   3.36253   3.38037   3.39342
 Alpha virt. eigenvalues --    3.40104   3.40752   3.42479   3.43081   3.44378
 Alpha virt. eigenvalues --    3.44547   3.45858   3.46487   3.46940   3.48752
 Alpha virt. eigenvalues --    3.50045   3.50757   3.52758   3.53494   3.54040
 Alpha virt. eigenvalues --    3.54849   3.57523   3.58692   3.61633   3.62638
 Alpha virt. eigenvalues --    3.64204   3.65810   3.69000   3.71213   3.74498
 Alpha virt. eigenvalues --    3.77704   3.82897   3.87674   3.88075   3.92344
 Alpha virt. eigenvalues --    3.96997   4.02593   4.03796   4.06028   4.07227
 Alpha virt. eigenvalues --    4.07754   4.10750   4.11761   4.16255   4.19114
 Alpha virt. eigenvalues --    4.21606   4.25611   4.30655   4.36755   4.38201
 Alpha virt. eigenvalues --    4.52618   4.66780   4.77418   4.79735   4.80262
 Alpha virt. eigenvalues --    4.82950   4.84499   4.87578   4.91998   4.95924
 Alpha virt. eigenvalues --   23.40942  23.65231  23.72311  23.79705  23.85067
 Alpha virt. eigenvalues --   23.88463  23.90302  23.92154  23.93821  23.95086
 Alpha virt. eigenvalues --   23.97422  23.98748  23.99282  23.99984  24.02083
 Alpha virt. eigenvalues --   24.03306  24.03573  24.05022  24.05071  24.07152
 Alpha virt. eigenvalues --   24.08216  24.08523  24.10213  24.14108  24.15474
[...]
 ,-0.00000142,-0.00000352,-0.00000347,-0.00000594,0.00000482,-0.0000023
 3,-0.00000039,0.00000307,-0.00000089,0.00000529,0.00000400,-0.00000350
 ,-0.00000128,0.00001559,-0.00000267,0.00011141,0.00023710,-0.00030120,
 -0.00251977,0.17992193,-0.00001786,0.00004179,-0.00000582,-0.00005435,
 -0.00004681,0.00000555,-0.00000360,0.00001167,-0.00001894,0.00005303,-
 0.00000302,0.00001528,-0.00000809,-0.00005409,-0.00000782,-0.00003997,
 0.00003327,-0.00000075,0.00000770,0.00008829,-0.00000313,0.00030973,-0
 .00044184,0.00001249,-0.00015687,0.00003374,0.00004882,-0.00002102,-0.
 00007513,-0.00001582,-0.00010569,0.00002349,0.00005027,0.00049606,0.00
 000131,-0.00011991,0.00388890,-0.00328477,-0.00070511,-0.00139720,-0.0
 0058091,0.00042174,0.00000378,-0.00003969,0.00000597,-0.00001099,0.000
 02760,0.00000031,-0.00000583,-0.00005971,0.00002250,0.00000821,-0.0000
 1753,-0.00002230,-0.02286959,-0.01918897,0.00859531,0.00156006,-0.0003
 0759,-0.00104997,0.00846805,0.00861458,-0.00203252,-0.12764593,-0.1950
 0714,0.04713653,0.00002959,-0.00001801,0.00000960,0.00000331,0.0000132
 4,0.00001623,0.00004425,-0.00000311,0.00002667,0.00003706,-0.00009445,
 -0.00015614,0.00055764,0.00033093,0.00015522,-0.00002521,0.00009640,0.
 00007148,0.00000148,0.00004187,-0.00001035,-0.00000104,-0.00001475,-0.
 00000253,0.00000471,-0.00000077,0.00000276,-0.00002798,0.00000200,-0.0
 0001909,-0.00003201,-0.00000573,0.00000991,-0.00000111,0.00000039,-0.0
 0000064,0.00000381,0.00000603,0.00000213,-0.00000289,-0.00000086,-0.00
 000308,-0.00000419,0.00000059,-0.00000261,-0.00000538,-0.00000126,0.00
 000080,-0.00000354,-0.00000788,-0.00000126,-0.00001655,-0.00001870,-0.
 00000462,0.00001309,-0.00000398,-0.00000467,0.00005580,-0.00000843,-0.
 00003029,0.00016817,0.00089215,-0.00031003,0.13761655,0.20807427,-0.00
 010568,-0.00001900,-0.00001938,0.00007020,0.00012499,-0.00000967,0.000
 04382,0.00005953,0.00005291,0.00007272,-0.00007081,-0.00003077,0.00000
 176,0.00002474,0.00000856,0.00001889,0.00001324,-0.00000096,0.00020480
 ,-0.00018282,0.00006120,-0.00026692,-0.00042876,-0.00091931,-0.0000792
 3,0.00005717,-0.00009091,-0.00006108,-0.00005166,0.00008873,0.00008951
 ,0.00033908,-0.00056032,-0.00006894,-0.00063521,-0.00044812,0.00358021
 ,-0.00097860,0.01003225,-0.00049996,0.00032023,0.00030759,0.00002887,-
 0.00004242,0.00001092,-0.00003308,0.00002946,0.00000372,0.00003046,-0.
 00006079,0.00005070,-0.00011851,-0.00005683,-0.00001337,-0.00023711,-0
 .00110877,0.00628052,0.00030207,-0.00099876,-0.00040185,0.00562496,0.0
 0847680,0.00197954,0.05202767,0.04809926,-0.05448178,0.00002017,-0.000
 03644,0.00000749,0.00004053,0.00001389,0.00000968,0.00003366,0.0000237
 8,-0.00000559,0.00008633,-0.00008696,-0.00016991,0.00030523,0.00036993
 ,0.00039787,-0.00000344,0.00014249,0.00007241,-0.00002005,0.00005263,-
 0.00001664,0.00000887,-0.00003872,-0.00002824,0.00000823,-0.00000927,0
 .00001091,-0.00002361,-0.00000811,0.00000222,0.00001482,0.00002530,-0.
 00000754,0.00000023,-0.00000395,0.00000610,0.00000630,0.00000261,0.000
 01069,0.00000279,0.00000083,0.00000205,0.00000543,0.00000102,-0.000000
 29,0.00000274,0.00000385,-0.00000450,0.00000111,0.00000441,0.00000141,
 -0.00000664,-0.00000315,0.00001607,-0.00000111,0.00000635,-0.00000473,
 0.00007058,0.00004480,0.00033518,-0.00249787,-0.00021229,-0.00615151,-
 0.05786863,-0.05206294,0.04350189,0.00017328,-0.00007933,0.00005903,-0
 .00013364,-0.00006415,-0.00002426,-0.00009619,-0.00018892,0.00003349,-
 0.00025620,0.00020574,-0.00000136,-0.00003114,0.00003135,-0.00001080,0
 .00004838,-0.00001966,-0.00001416,-0.00013566,0.00054263,0.00043452,0.
 00030046,0.00046185,-0.00019770,-0.00006721,-0.00028874,-0.00002748,0.
 00027334,0.00009359,-0.00000770,-0.00087538,-0.00096381,0.00016041,-0.
 00165630,0.00329196,-0.00995836,-0.00032028,0.00146818,0.00013475,0.00
 003892,-0.00050476,0.00041701,-0.00005946,0.00009609,-0.00001027,0.000
 03179,-0.00012322,0.00002265,0.00001104,-0.00023364,-0.00040693,0.0003
 0181,-0.00010858,-0.00006064,0.00022850,0.00054152,0.00044693,-0.05325
 250,0.00304350,-0.05385493,-0.00726369,-0.00228795,-0.02416786,0.00159
 192,-0.00035236,-0.00012627,0.00002577,0.00005210,0.00000049,-0.000084
 22,-0.00000137,0.00002647,-0.00000601,0.00027066,0.00008059,0.00204871
 ,0.00029440,0.00053314,-0.00124736,0.00079829,0.02655843,0.00047666,-0
 .00274762,-0.00013136,0.00009994,-0.00007489,0.00023005,-0.00025020,0.
 00057334,-0.00043026,-0.00004223,0.00002925,-0.00006881,-0.00005005,0.
 00008424,0.00004199,-0.00339525,0.00113522,0.00322714,-0.00000826,0.00
 000064,-0.00000923,0.00000553,-0.00000304,-0.00000331,-0.00000018,0.00
 000362,0.00000044,-0.00000044,-0.00000212,0.00000461,0.00000420,0.0000
 0009,0.00000254,0.00000100,0.00000505,0.00000263,0.00000500,0.00000349
 ,0.00000044,-0.00001242,0.00000781,0.00000996,-0.00005826,0.00003086,-
 0.00006585,-0.00005758,0.00002561,-0.00004061,-0.00003446,-0.00002673,
 -0.00009888,0.06557916,-0.00017722,0.00013762,-0.00004981,0.00025055,-
 0.00051234,-0.00002605,-0.00048476,0.00002716,0.00004029,0.00021454,-0
 .00012495,0.00015553,-0.00002549,-0.00000943,-0.00000493,-0.00000283,0
 .00004316,0.00002627,-0.00070918,0.00068143,-0.00204395,0.00055781,-0.
 00023775,0.00019941,0.00003360,0.00021202,0.00017990,-0.00012222,-0.00
 021706,-0.00005076,0.00129445,-0.00136722,0.00024328,0.00829730,-0.006
 34038,0.02988082,-0.00039403,-0.00042900,0.00023627,-0.00033060,-0.000
 89334,-0.00102903,-0.00002928,-0.00020909,0.00003117,-0.00016684,0.000
 04252,-0.00014889,-0.00003080,-0.00008091,-0.00006225,0.00046116,0.000
 09458,0.00052399,-0.00028725,-0.00005106,0.00081249,0.00478575,-0.0448
 1383,0.01743923,-0.00747424,-0.00170395,-0.02301925,0.00123610,0.00029
 063,-0.00020644,0.00007826,-0.00007897,0.00004877,0.00008855,0.0000838
 4,-0.00001782,0.00001468,-0.00010162,0.00004653,-0.00091269,0.00058656
 ,0.00023904,-0.00052438,0.00022527,-0.00635108,-0.00052329,0.00092681,
 -0.00016187,0.00016793,0.00017333,0.00005593,-0.00005967,-0.00013710,0
 .00023041,0.00000652,-0.00002655,0.00002308,-0.00007797,0.00011756,-0.
 00004416,0.00074834,-0.00018585,-0.00065509,0.00001453,0.00000192,-0.0
 0000127,0.00000871,0.00000866,-0.00000244,0.00000212,-0.00000462,-0.00
 000311,-0.00000271,0.00001278,-0.00000068,-0.00001163,-0.00000235,0.00
 000026,-0.00000610,-0.00001445,-0.00000811,-0.00000751,-0.00000443,-0.
 00001316,0.00002307,-0.00002949,-0.00002128,0.00007893,-0.00007567,0.0
 0002241,0.00000824,0.00006957,-0.00008226,-0.00001905,-0.00001050,-0.0
 0011543,-0.00244305,0.05556715,0.00004678,-0.00002386,0.00003146,0.000
 10169,-0.00023172,0.00006034,-0.00034314,0.00000515,-0.00001210,-0.000
 10022,0.00011291,0.00000836,-0.00001978,0.00006464,-0.00000316,0.00004
 091,-0.00001268,0.00000105,-0.00020238,0.00094668,0.00025006,0.0003466
 0,-0.00001436,-0.00018195,0.00005461,-0.00001711,-0.00003076,0.0000807
 9,0.00002517,0.00001763,-0.00132498,-0.00117144,0.00079527,-0.00265161
 ,0.00625273,-0.00557021,0.00143901,0.00081002,-0.00021170,-0.00019113,
 -0.00010237,0.00009047,0.00006128,0.00000137,0.00002412,-0.00029288,0.
 00003567,-0.00018155,0.00050960,0.00039041,-0.00008590,0.00039801,0.00
 002304,-0.00020274,-0.00063704,-0.00066263,0.00020763,-0.05339067,0.01
 112516,-0.27876139,-0.00264658,-0.00122476,-0.00645730,-0.00026409,0.0
 0024735,0.00010117,-0.00002651,-0.00006845,-0.00001950,0.00022746,-0.0
 0004228,0.00001621,0.00029081,-0.00029160,0.00040355,-0.00166557,0.000
 01113,0.00085717,0.00135553,-0.00034820,-0.01571533,-0.00008555,0.0013
 1144,0.00028941,-0.00005094,0.00014935,-0.00009414,0.00025702,-0.00047
 700,0.00003447,0.00003129,-0.00003259,0.00005210,-0.00007591,0.0000516
 3,0.00002077,0.00207277,-0.00086346,-0.00086684,0.00001668,0.00000596,
 0.00000018,0.00001069,0.00000381,-0.00000761,0.00001219,-0.00000792,0.
 00000889,0.00000632,0.00001095,0.00000540,0.00000419,0.00000151,-0.000
 00261,0.00000474,0.00000580,-0.00000442,0.00000539,0.00000624,-0.00000
 336,-0.00000871,0.00000988,-0.00000007,-0.00001725,0.00004511,0.000003
 90,-0.00004196,-0.00001116,-0.00004257,-0.00013164,0.00004016,0.000033
 37,0.05737306,-0.01467589,0.30322775,-0.00002148,0.00001539,-0.0000149
 2,0.00002015,-0.00001832,0.00001603,-0.00000526,-0.00016717,-0.0000008
 4,-0.00000081,0.00005047,-0.00003113,0.00001108,-0.00000062,-0.0000021
 4,-0.00001567,-0.00001849,-0.00000088,-0.00023662,0.00002318,0.0002044
 9,0.00000696,-0.00012902,0.00001912,0.00002588,0.00002718,-0.00004194,
 0.00002145,-0.00003961,-0.00000127,0.00098600,-0.00120122,0.00042604,-
 0.00463065,-0.00194648,-0.00101572,-0.00052396,-0.00053766,-0.00043882
 ,0.00018168,0.00011575,-0.00008102,-0.00001312,-0.00002196,0.00000270,
 0.00000675,0.00003569,0.00002605,0.00003290,-0.00006405,0.00000884,0.0
 0017940,0.00010882,-0.00010160,-0.00492697,-0.00032805,0.00204124,0.00
 568245,-0.02262884,0.00958724,-0.06216449,0.05613203,-0.02772082,-0.00
 876938,0.02801622,-0.01220378,0.00001568,0.00000390,-0.00000288,-0.000
 04791,0.00001563,0.00001421,-0.00001524,-0.00005041,0.00004949,0.00000
 360,0.00016376,-0.00023364,0.00080691,-0.00008706,-0.00002883,-0.00087
 332,0.00046962,0.00103199,0.00002803,0.00006133,-0.00009610,-0.0003383
 8,0.00012287,-0.00008982,-0.00006319,0.00002610,0.00008062,-0.00120029
 ,-0.00008308,0.00095923,0.00012181,0.00002869,-0.00008515,0.00001630,0
 .00000943,0.00001288,0.00000001,-0.00000222,-0.00000273,0.00000100,0.0
 0000462,-0.00000455,0.00000102,0.00000123,-0.00000050,0.00000120,-0.00
 000189,-0.00000010,-0.00000429,-0.00000044,0.00000090,0.00000246,0.000
 00414,0.00000521,0.00000205,-0.00001328,-0.00000185,0.00006137,-0.0000
 6959,0.00004026,0.00016216,0.00114401,0.00135165,0.00103515,-0.0003549
 0,0.00005870,0.00132701,0.00062191,0.00016491,0.07414952,-0.00005886,0
 .00009701,-0.00002197,-0.00002535,-0.00012111,0.00004881,-0.00004634,-
 0.00014210,-0.00005952,0.00007007,0.00004566,-0.00002159,-0.00001091,-
 0.00007327,-0.00000755,-0.00006476,0.00003524,-0.00000688,-0.00038319,
 0.00018478,0.00034176,0.00009649,-0.00005755,0.00000416,-0.00002270,0.
 00009640,-0.00002308,-0.00004381,-0.00008395,0.00000181,0.00117244,-0.
 00120519,0.00038603,-0.00469938,-0.00100134,-0.00135620,-0.00021687,0.
 00046718,0.00024050,0.00005147,-0.00004634,0.00001460,-0.00002842,-0.0
 0011315,-0.00000450,0.00003658,0.00007166,0.00002468,-0.00004055,-0.00
 026286,0.00000631,0.00018356,0.00012447,-0.00018164,0.00169723,0.00146
 839,0.00002711,0.00464449,-0.01959768,0.00791379,0.05539564,-0.2489402
 7,0.09471425,0.00292536,-0.00860934,0.00201084,0.00005943,-0.00000865,
 0.00002046,-0.00006201,0.00005334,-0.00004952,-0.00002663,-0.00008050,
 0.00002526,0.00005434,0.00020389,0.00010700,0.00021436,-0.00028027,-0.
 00022793,0.00062158,0.00002151,-0.00078414,-0.00019146,0.00003912,0.00
 001048,0.00020962,0.00022971,-0.00017754,0.00001533,0.00001949,-0.0000
 4441,0.00087618,0.00050603,-0.00022927,0.00012786,-0.00002570,-0.00004
 528,0.00001711,0.00001351,0.00001077,-0.00000731,0.00000122,-0.0000003
 1,-0.00000696,0.00000554,0.00000061,-0.00000420,-0.00000073,-0.0000053
 9,-0.00000555,-0.00000367,0.00000070,-0.00001012,-0.00001090,-0.000002
 15,-0.00000303,-0.00000825,0.00000271,0.00000987,-0.00001247,-0.000005
 62,0.00002347,-0.00002185,-0.00000510,-0.00000183,-0.00047920,-0.00024
 301,-0.00003391,0.00101472,-0.00058763,0.00056459,0.00093976,-0.000340
 42,-0.06211238,0.27167571,0.00004093,-0.00007440,0.00001105,-0.0000076
 0,0.00001994,-0.00000025,0.00003120,-0.00005498,-0.00003820,-0.0000793
 5,-0.00002267,-0.00001538,0.00000062,0.00006660,0.00000392,0.00005516,
 -0.00004591,0.00000877,-0.00010145,-0.00015423,0.00000573,-0.00004936,
 -0.00002543,0.00004568,0.00002583,-0.00001665,0.00000161,0.00001876,0.
 00002038,0.00000133,0.00016951,-0.00037065,0.00031816,-0.00127555,-0.0
 0118224,0.00060888,-0.00026359,-0.00029883,0.00020079,0.00004283,0.000
 10615,-0.00007452,-0.00000542,0.00006698,-0.00000907,-0.00002820,-0.00
 008006,-0.00000741,0.00001074,0.00013037,-0.00002956,0.00001967,-0.000
 02645,0.00005729,0.00187754,0.00045532,-0.00030442,0.00157133,-0.00782
 167,0.00152720,-0.02741158,0.09558611,-0.08891923,0.00547888,-0.014197
 62,0.00451078,-0.00001934,0.00000632,-0.00000919,0.00003615,-0.0000403
 4,0.00001710,0.00001475,0.00011097,-0.00001176,0.00003371,-0.00025833,
 -0.00000022,-0.00008958,0.00043708,-0.00028281,0.00038037,0.00052252,0
 .00072545,0.00000879,0.00002903,-0.00013685,-0.00009434,-0.00025364,-0
 .00006914,0.00001746,-0.00002026,0.00007900,0.00030723,-0.00009067,-0.
 00112202,-0.00000874,-0.00004784,0.00011970,-0.00004993,-0.00002123,-0
 .00000911,0.00000175,0.00000533,0.00000338,-0.00000319,-0.00000566,0.0
 0000023,-0.00000396,-0.00000173,0.00000470,-0.00000101,-0.00000221,-0.
 00000219,0.00000112,-0.00000097,0.00000182,0.00000265,-0.00000035,-0.0
 0000120,0.00000116,-0.00000104,-0.00000092,-0.00000088,0.00000296,-0.0
 0001762,0.00011054,-0.00051787,-0.00047663,-0.00077126,0.00032200,0.00
 059458,0.00055215,-0.00033304,0.00085056,0.02730534,-0.10018356,0.0963
 2971,-0.00008084,-0.00001420,-0.00001699,0.00012928,0.00007628,-0.0000
 1732,-0.00001137,0.00005207,0.00010274,0.00010116,-0.00009784,-0.00003
 785,0.00004051,0.00008453,0.00002247,0.00004717,-0.00003977,-0.0000002
 1,0.00014864,-0.00014662,-0.00019064,-0.00021851,-0.00044674,0.0001561
 3,0.00010003,0.00014561,-0.00002553,-0.00010592,-0.00005509,0.00001185
 ,0.00014138,0.00018137,-0.00014979,-0.00020534,0.00153460,0.00004226,0
 .00034545,-0.00110920,0.00151261,0.00016773,0.00069222,-0.00033742,0.0
 0000483,-0.00002641,-0.00000007,0.00000781,0.00004550,0.00001564,0.000
 06370,0.00003857,-0.00005630,0.00007230,0.00005128,0.00004373,-0.00181
 898,-0.00054486,0.00096788,-0.00447564,-0.00341765,-0.02412639,-0.0442
 1903,-0.00354690,-0.01649435,-0.00028302,0.00792022,0.02951591,-0.0000
 1207,-0.00001638,-0.00000738,0.00005006,-0.00000564,0.00001304,0.00006
 872,-0.00001758,0.00002240,0.00010260,-0.00001574,0.00020255,0.0010534
 2,0.00046152,-0.00078602,-0.00095877,0.00013912,-0.00033437,0.00005393
 ,-0.00000135,0.00014344,0.00001418,0.00006862,0.00007290,0.00003540,-0
 .00000887,-0.00007176,-0.00140846,0.00114200,-0.00003755,-0.00012024,-
 0.00020102,0.00037885,0.00002454,0.00001098,0.00000676,0.00000853,-0.0
 0000117,-0.00000113,0.00000405,0.00000261,0.00000098,0.00000757,0.0000
 0118,0.00000085,0.00000502,0.00000007,-0.00000507,0.00000613,0.0000089
 4,-0.00000010,0.00000116,0.00001248,0.00000315,-0.00000342,-0.00000240
 ,0.00000443,0.00003249,-0.00006522,-0.00000165,-0.00072853,0.00008447,
 -0.00212963,-0.00080010,-0.00049245,-0.00077091,-0.00317785,-0.0041702
 6,-0.00074380,-0.00103897,-0.00096056,-0.00785182,0.05682929,0.0000073
 2,-0.00006282,0.00000636,0.00003150,0.00004967,-0.00001878,0.00000182,
 0.00001905,0.00011789,-0.00005927,-0.00003032,-0.00002064,-0.00001640,
 0.00007347,0.00000318,0.00007181,-0.00001680,-0.00000264,-0.00006683,0
 .00001296,-0.00000940,0.00004257,0.00003231,-0.00011954,0.00001437,-0.
 00005569,0.00000836,0.00003255,0.00001799,0.00000418,-0.00023743,-0.00
 025935,-0.00012605,0.00027597,0.00156991,-0.00009269,0.00019187,0.0001
 3611,0.00002907,0.00005120,-0.00017896,0.00011249,-0.00000583,0.000038
 02,-0.00000093,-0.00000814,-0.00002465,0.00000242,0.00002238,0.0000786
 6,-0.00003623,0.00000238,-0.00001547,0.00003360,0.00139311,0.00061492,
 -0.00035205,-0.00351395,-0.00312505,-0.02268229,-0.00530952,-0.0505320
 0,-0.03209217,0.00250303,-0.00328109,-0.01196393,-0.00002447,0.0000088
 9,-0.00001727,0.00002696,-0.00004323,0.00001168,0.00006460,0.00006388,
 0.00002913,0.00014238,-0.00022272,0.00010032,0.00089044,0.00085922,-0.
 00017096,0.00048448,0.00009334,0.00079169,-0.00002778,-0.00002502,-0.0
 0009390,0.00009002,-0.00001594,-0.00010633,-0.00000931,0.00000871,0.00
 003575,0.00064397,-0.00021297,-0.00017940,-0.00017966,-0.00011401,0.00
 036091,-0.00001852,-0.00000761,0.00000376,0.00000311,0.00000398,0.0000
 0186,0.00000037,-0.00000133,0.00000055,0.00000085,-0.00000084,-0.00000
 002,0.00000116,-0.00000035,-0.00000143,0.00000381,0.00000268,-0.000002
 00,0.00000165,0.00000193,-0.00000163,-0.00000225,0.00000387,0.00000204
 ,-0.00000089,0.00001356,0.00003537,0.00030611,-0.00010290,0.00078233,-
 0.00000430,-0.00005272,-0.00043710,-0.00314174,-0.00258039,-0.00107340
 ,0.00267477,0.00387201,0.02826248,0.00264973,0.05338708,-0.00006010,0.
 00010912,-0.00002785,-0.00003656,-0.00002451,-0.00000478,0.00017671,0.
 00012491,-0.00002664,0.00026450,-0.00018090,-0.00000359,0.00002385,-0.
 00014359,0.00000117,-0.00011411,0.00006780,-0.00000388,0.00015047,-0.0
 0052426,0.00005252,-0.00051611,-0.00056523,0.00012985,0.00003374,0.000
 39177,0.00003886,-0.00034961,-0.00010447,0.00001819,0.00035751,0.00028
 708,0.00010664,-0.00042860,-0.00045147,0.00007300,-0.00060984,-0.00194
 923,-0.00023144,-0.00007845,0.00112885,-0.00014140,0.00003326,-0.00008
 065,0.00002219,0.00002262,0.00009054,-0.00000532,-0.00001162,-0.000088
 12,-0.00001560,0.00003597,0.00007720,-0.00005129,0.00124240,0.00346022
 ,0.00051452,-0.00300006,-0.00139931,-0.00667679,-0.02491830,-0.0304137
 1,-0.27776968,0.00609391,-0.00504781,-0.01070757,0.00003569,-0.0000174
 4,0.00002076,0.00000937,0.00003386,-0.00001797,0.00002822,-0.00008075,
 0.00002535,-0.00003557,0.00005559,0.00014406,0.00081920,-0.00039465,0.
 00045251,0.00041542,-0.00112169,-0.00005412,0.00018969,-0.00005191,0.0
 0010095,0.00028637,0.00051598,0.00023243,-0.00001553,0.00000231,-0.000
 04509,0.00045401,0.00059397,0.00062702,-0.00065112,-0.00008598,0.00027
 171,0.00006248,0.00003358,0.00003043,0.00000013,0.00000703,-0.00000474
 ,-0.00000157,0.00000243,-0.00000174,-0.00000037,0.00000025,-0.00000878
 ,-0.00000523,0.00000137,0.00000105,-0.00000647,-0.00000907,-0.00000262
 ,-0.00000921,-0.00001071,-0.00000480,0.00001097,0.00000015,-0.00001632
 ,0.00001290,0.00001421,0.00003218,0.00022350,-0.00013134,0.00046940,0.
 00075403,-0.00038138,-0.00051318,-0.00063588,-0.00130702,0.00106390,-0
 .00120608,-0.00129837,-0.01448973,0.02095348,0.03886538,0.30639624\\0.
 00000069,-0.00000086,0.00000308,0.00000248,-0.00000202,0.00000566,-0.0
 0000157,0.00000482,0.00000555,0.00000472,-0.00000213,0.00000285,0.0000
 0088,0.00000022,0.00000289,0.00000294,-0.00000003,-0.00000106,0.000002
 77,-0.00000115,0.00000425,0.00000222,-0.00000071,0.00000084,0.00000173
 ,0.00000209,-0.00000098,-0.00000011,0.00000060,0.00000438,0.00000150,0
 .00000518,0.00000072,-0.00000089,-0.00000895,-0.00000280,0.00000443,0.
 00000907,-0.00000127,0.00000072,-0.00000026,-0.00000440,-0.00000085,-0
 .00000270,0.00000465,0.00000167,0.00000330,0.00000121,-0.00000195,0.00
 000267,-0.00000118,-0.00000229,-0.00000146,0.00000166,-0.00000423,-0.0
 0000462,-0.00000419,-0.00001957,0.00000005,-0.00000072,0.00000441,0.00
 000785,0.00000047,0.00000133,0.00000137,-0.00000114,-0.00000234,-0.000
 00730,0.00000332,-0.00000235,0.00000187,0.00000006,0.00000284,0.000002
 56,0.00000148,-0.00000104,-0.00000853,-0.00000307,0.00001615,0.0000022
 1,-0.00000505,-0.00000249,0.00000034,-0.00000512,-0.00000585,-0.000004
 18,-0.00000130,-0.00000139,0.00000147,0.00000187,-0.00000047,-0.000000
 31,-0.00000325,0.00000362,0.00000240,-0.00000983,-0.00000440,0.0000021
 9,0.00000033,-0.00000264,-0.00000212,0.00000040,-0.00000107,-0.0000025
 6,0.00000089,-0.00000022,-0.00000235,0.00000277,0.00000050,-0.00000167
 ,0.00000479,0.00000133,-0.00000118,0.00000690,0.00000209,-0.00000066,0
 .00000651,0.00000187,0.00000081,0.00000259,0.00000131,0.00000102,0.,0.
 00000046,0.00000189,-0.00000184,-0.00000064,0.00000235,-0.00000522,-0.
 00000184,0.00000136,-0.00000780,-0.00000321,0.00000113,-0.00000202,-0.
 00000196,0.00000040,-0.00000557,0.00000073,-0.00000343,-0.00000231\\\@


 Make no judgements where you have no compassion.
                               -- Anne McCaffrey
 Job cpu time:       2 days 15 hours 27 minutes  5.8 seconds.
 Elapsed time:       0 days  3 hours 10 minutes 54.6 seconds.
 File lengths (MBytes):  RWF=   4619 Int=      0 D2E=      0 Chk=     74 Scr=      1
 Normal termination of Gaussian 16 at Wed Jun 12 21:41:33 2019.
