 Entering Gaussian System, Link 0=/share/apps/gaussian16/g16/g16
 Initial command:
 /share/apps/gaussian16/g16/l1.exe "/home/amen01//scratch/466/Gau-42339.inp" -scrdir="/home/amen01//scratch/466/"
 Entering Link 1 = /share/apps/gaussian16/g16/l1.exe PID=     42340.
  
 Copyright (c) 1988-2017, Gaussian, Inc.  All Rights Reserved.
  
 This is part of the Gaussian(R) 16 program.  It is based on
 the Gaussian(R) 09 system (copyright 2009, Gaussian, Inc.),
 the Gaussian(R) 03 system (copyright 2003, Gaussian, Inc.),
 the Gaussian(R) 98 system (copyright 1998, Gaussian, Inc.),
 the Gaussian(R) 94 system (copyright 1995, Gaussian, Inc.),
 the Gaussian 92(TM) system (copyright 1992, Gaussian, Inc.),
 the Gaussian 90(TM) system (copyright 1990, Gaussian, Inc.),
 the Gaussian 88(TM) system (copyright 1988, Gaussian, Inc.),
 the Gaussian 86(TM) system (copyright 1986, Carnegie Mellon
 University), and the Gaussian 82(TM) system (copyright 1983,
 Carnegie Mellon University). Gaussian is a federally registered
 trademark of Gaussian, Inc.
  
 This software contains proprietary and confidential information,
 including trade secrets, belonging to Gaussian, Inc.
  
 This software is provided under written license and may be
 used, copied, transmitted, or stored only in accord with that
 written license.
  
 The following legend is applicable only to US Government
 contracts under FAR:
  
                    RESTRICTED RIGHTS LEGEND
  
 Use, reproduction and disclosure by the US Government is
 subject to restrictions as set forth in subparagraphs (a)
 and (c) of the Commercial Computer Software - Restricted
 Rights clause in FAR 52.227-19.
  
 Gaussian, Inc.
 340 Quinnipiac St., Bldg. 40, Wallingford CT 06492
  
  
 ---------------------------------------------------------------
 Warning -- This program may not be used in any manner that
 competes with the business of Gaussian, Inc. or will provide
 assistance to any competitor of Gaussian, Inc.  The licensee
 of this program is prohibited from giving any competitor of
 Gaussian, Inc. access to this program.  By using this program,
 the user acknowledges that Gaussian, Inc. is engaged in the
 business of creating and licensing software in the field of
 computational chemistry and represents and warrants to the
 licensee that it is not a competitor of Gaussian, Inc. and that
 it will not use this program in any manner prohibited above.
 ---------------------------------------------------------------
  

 Cite this work as:
 Gaussian 16, Revision B.01,
 M. J. Frisch, G. W. Trucks, H. B. Schlegel, G. E. Scuseria, 
 M. A. Robb, J. R. Cheeseman, G. Scalmani, V. Barone, 
 G. A. Petersson, H. Nakatsuji, X. Li, M. Caricato, A. V. Marenich, 
 J. Bloino, B. G. Janesko, R. Gomperts, B. Mennucci, H. P. Hratchian, 
 J. V. Ortiz, A. F. Izmaylov, J. L. Sonnenberg, D. Williams-Young, 
 F. Ding, F. Lipparini, F. Egidi, J. Goings, B. Peng, A. Petrone, 
 T. Henderson, D. Ranasinghe, V. G. Zakrzewski, J. Gao, N. Rega, 
 G. Zheng, W. Liang, M. Hada, M. Ehara, K. Toyota, R. Fukuda, 
 J. Hasegawa, M. Ishida, T. Nakajima, Y. Honda, O. Kitao, H. Nakai, 
 T. Vreven, K. Throssell, J. A. Montgomery, Jr., J. E. Peralta, 
 F. Ogliaro, M. J. Bearpark, J. J. Heyd, E. N. Brothers, K. N. Kudin, 
 V. N. Staroverov, T. A. Keith, R. Kobayashi, J. Normand, 
 K. Raghavachari, A. P. Rendell, J. C. Burant, S. S. Iyengar, 
 J. Tomasi, M. Cossi, J. M. Millam, M. Klene, C. Adamo, R. Cammi, 
 J. W. Ochterski, R. L. Martin, K. Morokuma, O. Farkas, 
 J. B. Foresman, and D. J. Fox, Gaussian, Inc., Wallingford CT, 2016.
 
 ******************************************
 Gaussian 16:  ES64L-G16RevB.01 20-Dec-2017
                12-Jun-2019 
 ******************************************
 %nprocshared=20
 Will use up to   20 processors via shared memory.
 %mem=100GB
 %chk=7-memb-hadd-2b.chk
 -------------------------------------------
 # opt freq b3lyp/6-311+g(d,p) int=grid=fine
 -------------------------------------------
 1/18=20,19=15,26=3,38=1/1,3;
 2/9=110,12=2,17=6,18=5,40=1/2;
 3/5=4,6=6,7=111,11=2,25=1,30=1,71=1,74=-5,75=-4/1,2,3;
 4//1;
 5/5=2,38=5/2;
 6/7=2,8=2,9=2,10=2,28=1/1;
 7//1,2,3,16;
 1/18=20,19=15,26=3/3(2);
 2/9=110/2;
 99//99;
 2/9=110/2;
 3/5=4,6=6,7=111,11=2,25=1,30=1,71=1,74=-5,75=-4/1,2,3;
 4/5=5,16=3,69=1/1;
 5/5=2,38=5/2;
 7//1,2,3,16;
 1/18=20,19=15,26=3/3(-5);
 2/9=110/2;
 6/7=2,8=2,9=2,10=2,19=2,28=1/1;
 99/9=1/99;
 --------------
 7-memb-hadd-2b
 --------------
 Symbolic Z-matrix:
 Charge =  0 Multiplicity = 2
 C                    -7.00584  -0.00156  -0.15649 
 C                    -5.77795   0.60586  -0.02305 
 C                    -4.62327  -0.08407   0.13549 
 C                    -4.5167   -1.46143   0.19409 
 C                    -6.9843   -1.42845  -0.1013 
 C                    -5.76048  -2.14567   0.07747 
 C                    -3.58395   0.78103   0.18813 
 C                    -2.26935   0.38063   0.28863 
 C                    -2.07609  -1.03012   0.39208 
 C                    -3.18183  -1.93572   0.34555 
 C                    -4.06244   2.07146   0.05373 
 C                    -3.18641   3.13094  -0.07839 
 C                    -1.79153   2.80365   0.02392 
 C                    -1.3519    1.45518   0.23442 
 C                    -8.06153   0.91838  -0.33946 
 C                    -7.8343    2.33449  -0.319 
 C                    -6.52929   2.89425  -0.11068 
 C                    -5.50471   1.96462  -0.03326 
 C                    -0.86055   3.83264  -0.13502 
 C                    -3.65616   4.46139  -0.38881 
 C                    -2.63115   5.42689  -0.58727 
 C                    -1.2726    5.12656  -0.4475 
 C                    -8.90356   3.20796  -0.487 
 C                    -8.71415   4.58573  -0.40105 
 C                    -7.46103   5.13828  -0.10016 
 C                    -6.31612   4.31289   0.05418 
 C                    -5.04098   4.95766   0.4531 
 C                    -5.07097   6.36001   0.84339 
 C                    -7.37376   6.52466   0.07175 
 C                    -6.2026    7.12999   0.51295 
 H                    -6.18096   8.20855   0.6615 
 H                    -5.02585   6.38355   1.97735 
 H                    -4.73188   4.38475   1.38039 
 H                    -8.24374   7.15654  -0.09905 
 H                    -9.58245   5.23082  -0.52652 
 H                    -9.90609   2.82938  -0.67349 
 H                    -9.06999   0.53443  -0.47973 
 H                    -7.91485  -1.98276  -0.19945 
 H                    -5.78114  -3.23236   0.11072 
 H                    -2.99554  -3.00532   0.40671 
 H                    -1.06789  -1.42798   0.48163 
 H                    -0.28766   1.23796   0.29707 
 H                     0.20519   3.62842  -0.05881 
 H                    -0.53064   5.90435  -0.61175 
 H                    -4.24903   4.39365  -1.34332 
 H                    -2.89793   6.42992  -0.91898 
 H                    -4.13227   6.93828   0.73784 
 

 GradGradGradGradGradGradGradGradGradGradGradGradGradGradGradGradGradGrad
 Berny optimization.
 Initialization pass.
                           ----------------------------
                           !    Initial Parameters    !
                           ! (Angstroms and Degrees)  !
 --------------------------                            --------------------------
 ! Name  Definition              Value          Derivative Info.                !
 --------------------------------------------------------------------------------
 ! R1    R(1,2)                  1.3764         estimate D2E/DX2                !
 ! R2    R(1,5)                  1.4281         estimate D2E/DX2                !
 ! R3    R(1,15)                 1.4122         estimate D2E/DX2                !
 ! R4    R(2,3)                  1.3544         estimate D2E/DX2                !
 ! R5    R(2,18)                 1.386          estimate D2E/DX2                !
 ! R6    R(3,4)                  1.3827         estimate D2E/DX2                !
 ! R7    R(3,7)                  1.3533         estimate D2E/DX2                !
 ! R8    R(4,6)                  1.4244         estimate D2E/DX2                !
 ! R9    R(4,10)                 1.4247         estimate D2E/DX2                !
 ! R10   R(5,6)                  1.4297         estimate D2E/DX2                !
 ! R11   R(5,38)                 1.0876         estimate D2E/DX2                !
 ! R12   R(6,39)                 1.0874         estimate D2E/DX2                !
 ! R13   R(7,8)                  1.3779         estimate D2E/DX2                !
 ! R14   R(7,11)                 1.3828         estimate D2E/DX2                !
 ! R15   R(8,9)                  1.4277         estimate D2E/DX2                !
 ! R16   R(8,14)                 1.414          estimate D2E/DX2                !
 ! R17   R(9,10)                 1.43           estimate D2E/DX2                !
 ! R18   R(9,41)                 1.0876         estimate D2E/DX2                !
 ! R19   R(10,40)                1.0874         estimate D2E/DX2                !
 ! R20   R(11,12)                1.3811         estimate D2E/DX2                !
 ! R21   R(11,18)                1.4488         estimate D2E/DX2                !
 ! R22   R(12,13)                1.4364         estimate D2E/DX2                !
 ! R23   R(12,20)                1.4447         estimate D2E/DX2                !
 ! R24   R(13,14)                1.4339         estimate D2E/DX2                !
 ! R25   R(13,19)                1.3967         estimate D2E/DX2                !
 ! R26   R(14,42)                1.088          estimate D2E/DX2                !
 ! R27   R(15,16)                1.4344         estimate D2E/DX2                !
 ! R28   R(15,37)                1.0882         estimate D2E/DX2                !
 ! R29   R(16,17)                1.4352         estimate D2E/DX2                !
 ! R30   R(16,23)                1.3909         estimate D2E/DX2                !
 ! R31   R(17,18)                1.3856         estimate D2E/DX2                !
 ! R32   R(17,26)                1.444          estimate D2E/DX2                !
 ! R33   R(19,22)                1.3934         estimate D2E/DX2                !
 ! R34   R(19,43)                1.0878         estimate D2E/DX2                !
 ! R35   R(20,21)                1.422          estimate D2E/DX2                !
 ! R36   R(20,27)                1.6949         estimate D2E/DX2                !
 ! R37   R(20,45)                1.1257         estimate D2E/DX2                !
 ! R38   R(21,22)                1.3984         estimate D2E/DX2                !
 ! R39   R(21,46)                1.0896         estimate D2E/DX2                !
 ! R40   R(22,44)                1.0874         estimate D2E/DX2                !
 ! R41   R(23,24)                1.3934         estimate D2E/DX2                !
 ! R42   R(23,36)                1.0877         estimate D2E/DX2                !
 ! R43   R(24,25)                1.4022         estimate D2E/DX2                !
 ! R44   R(24,35)                1.089          estimate D2E/DX2                !
 ! R45   R(25,26)                1.4198         estimate D2E/DX2                !
 ! R46   R(25,29)                1.3997         estimate D2E/DX2                !
 ! R47   R(26,27)                1.4835         estimate D2E/DX2                !
 ! R48   R(27,28)                1.456          estimate D2E/DX2                !
 ! R49   R(27,33)                1.133          estimate D2E/DX2                !
 ! R50   R(28,30)                1.4081         estimate D2E/DX2                !
 ! R51   R(28,32)                1.1351         estimate D2E/DX2                !
 ! R52   R(28,47)                1.1076         estimate D2E/DX2                !
 ! R53   R(29,30)                1.3902         estimate D2E/DX2                !
 ! R54   R(29,34)                1.0887         estimate D2E/DX2                !
 ! R55   R(30,31)                1.089          estimate D2E/DX2                !
 ! A1    A(2,1,5)              115.0702         estimate D2E/DX2                !
 ! A2    A(2,1,15)             113.0776         estimate D2E/DX2                !
 ! A3    A(5,1,15)             131.8478         estimate D2E/DX2                !
 ! A4    A(1,2,3)              123.1679         estimate D2E/DX2                !
 ! A5    A(1,2,18)             127.4302         estimate D2E/DX2                !
 ! A6    A(3,2,18)             109.4009         estimate D2E/DX2                !
 ! A7    A(2,3,4)              125.3163         estimate D2E/DX2                !
 ! A8    A(2,3,7)              109.4913         estimate D2E/DX2                !
 ! A9    A(4,3,7)              125.1659         estimate D2E/DX2                !
 ! A10   A(3,4,6)              114.0638         estimate D2E/DX2                !
 ! A11   A(3,4,10)             114.1002         estimate D2E/DX2                !
 ! A12   A(6,4,10)             131.832          estimate D2E/DX2                !
 ! A13   A(1,5,6)              121.2626         estimate D2E/DX2                !
 ! A14   A(1,5,38)             119.5277         estimate D2E/DX2                !
 ! A15   A(6,5,38)             119.2095         estimate D2E/DX2                !
 ! A16   A(4,6,5)              121.1125         estimate D2E/DX2                !
 ! A17   A(4,6,39)             119.6146         estimate D2E/DX2                !
 ! A18   A(5,6,39)             119.2674         estimate D2E/DX2                !
 ! A19   A(3,7,8)              123.3532         estimate D2E/DX2                !
 ! A20   A(3,7,11)             109.0881         estimate D2E/DX2                !
 ! A21   A(8,7,11)             127.4729         estimate D2E/DX2                !
 ! A22   A(7,8,9)              114.9341         estimate D2E/DX2                !
 ! A23   A(7,8,14)             113.2917         estimate D2E/DX2                !
 ! A24   A(9,8,14)             131.7504         estimate D2E/DX2                !
 ! A25   A(8,9,10)             121.248          estimate D2E/DX2                !
 ! A26   A(8,9,41)             119.5345         estimate D2E/DX2                !
 ! A27   A(10,9,41)            119.1976         estimate D2E/DX2                !
 ! A28   A(4,10,9)             121.1393         estimate D2E/DX2                !
 ! A29   A(4,10,40)            119.5999         estimate D2E/DX2                !
 ! A30   A(9,10,40)            119.249          estimate D2E/DX2                !
 ! A31   A(7,11,12)            120.3772         estimate D2E/DX2                !
 ! A32   A(7,11,18)            106.3482         estimate D2E/DX2                !
 ! A33   A(12,11,18)           133.0205         estimate D2E/DX2                !
 ! A34   A(11,12,13)           115.7446         estimate D2E/DX2                !
 ! A35   A(11,12,20)           121.3848         estimate D2E/DX2                !
 ! A36   A(13,12,20)           122.7446         estimate D2E/DX2                !
 ! A37   A(12,13,14)           121.4988         estimate D2E/DX2                !
 ! A38   A(12,13,19)           118.1193         estimate D2E/DX2                !
 ! A39   A(14,13,19)           120.3437         estimate D2E/DX2                !
 ! A40   A(8,14,13)            121.4251         estimate D2E/DX2                !
 ! A41   A(8,14,42)            118.7344         estimate D2E/DX2                !
 ! A42   A(13,14,42)           119.7443         estimate D2E/DX2                !
 ! A43   A(1,15,16)            121.5246         estimate D2E/DX2                !
 ! A44   A(1,15,37)            118.663          estimate D2E/DX2                !
 ! A45   A(16,15,37)           119.8021         estimate D2E/DX2                !
 ! A46   A(15,16,17)           122.085          estimate D2E/DX2                !
 ! A47   A(15,16,23)           119.7688         estimate D2E/DX2                !
 ! A48   A(17,16,23)           118.1406         estimate D2E/DX2                !
 ! A49   A(16,17,18)           114.7589         estimate D2E/DX2                !
 ! A50   A(16,17,26)           122.2746         estimate D2E/DX2                !
 ! A51   A(18,17,26)           122.928          estimate D2E/DX2                !
 ! A52   A(2,18,11)            105.5512         estimate D2E/DX2                !
 ! A53   A(2,18,17)            120.8212         estimate D2E/DX2                !
 ! A54   A(11,18,17)           133.6271         estimate D2E/DX2                !
 ! A55   A(13,19,22)           120.832          estimate D2E/DX2                !
 ! A56   A(13,19,43)           120.4476         estimate D2E/DX2                !
 ! A57   A(22,19,43)           118.6691         estimate D2E/DX2                !
 ! A58   A(12,20,21)           114.89           estimate D2E/DX2                !
 ! A59   A(12,20,27)           115.3772         estimate D2E/DX2                !
 ! A60   A(12,20,45)           107.3393         estimate D2E/DX2                !
 ! A61   A(21,20,27)           117.3512         estimate D2E/DX2                !
 ! A62   A(21,20,45)           107.5865         estimate D2E/DX2                !
 ! A63   A(27,20,45)            90.4868         estimate D2E/DX2                !
 ! A64   A(20,21,22)           122.7184         estimate D2E/DX2                !
 ! A65   A(20,21,46)           119.4065         estimate D2E/DX2                !
 ! A66   A(22,21,46)           117.7752         estimate D2E/DX2                !
 ! A67   A(19,22,21)           120.6067         estimate D2E/DX2                !
 ! A68   A(19,22,44)           119.7553         estimate D2E/DX2                !
 ! A69   A(21,22,44)           119.6158         estimate D2E/DX2                !
 ! A70   A(16,23,24)           120.5983         estimate D2E/DX2                !
 ! A71   A(16,23,36)           120.7098         estimate D2E/DX2                !
 ! A72   A(24,23,36)           118.6859         estimate D2E/DX2                !
 ! A73   A(23,24,25)           121.6255         estimate D2E/DX2                !
 ! A74   A(23,24,35)           118.051          estimate D2E/DX2                !
 ! A75   A(25,24,35)           120.2571         estimate D2E/DX2                !
 ! A76   A(24,25,26)           120.99           estimate D2E/DX2                !
 ! A77   A(24,25,29)           118.1888         estimate D2E/DX2                !
 ! A78   A(26,25,29)           120.8081         estimate D2E/DX2                !
 ! A79   A(17,26,25)           116.0827         estimate D2E/DX2                !
 ! A80   A(17,26,27)           125.7728         estimate D2E/DX2                !
 ! A81   A(25,26,27)           118.0133         estimate D2E/DX2                !
 ! A82   A(20,27,26)           116.196          estimate D2E/DX2                !
 ! A83   A(20,27,28)           115.5943         estimate D2E/DX2                !
 ! A84   A(20,27,33)            92.0391         estimate D2E/DX2                !
 ! A85   A(26,27,28)           118.2289         estimate D2E/DX2                !
 ! A86   A(26,27,33)           103.5803         estimate D2E/DX2                !
 ! A87   A(28,27,33)           105.859          estimate D2E/DX2                !
 ! A88   A(27,28,30)           118.7081         estimate D2E/DX2                !
 ! A89   A(27,28,32)           106.6755         estimate D2E/DX2                !
 ! A90   A(27,28,47)           117.3795         estimate D2E/DX2                !
 ! A91   A(30,28,32)           104.7763         estimate D2E/DX2                !
 ! A92   A(30,28,47)           111.9176         estimate D2E/DX2                !
 ! A93   A(32,28,47)            92.9054         estimate D2E/DX2                !
 ! A94   A(25,29,30)           121.5185         estimate D2E/DX2                !
 ! A95   A(25,29,34)           120.3823         estimate D2E/DX2                !
 ! A96   A(30,29,34)           118.0504         estimate D2E/DX2                !
 ! A97   A(28,30,29)           120.8916         estimate D2E/DX2                !
 ! A98   A(28,30,31)           119.5795         estimate D2E/DX2                !
 ! A99   A(29,30,31)           119.426          estimate D2E/DX2                !
 ! D1    D(5,1,2,3)              0.6668         estimate D2E/DX2                !
 ! D2    D(5,1,2,18)          -179.7379         estimate D2E/DX2                !
 ! D3    D(15,1,2,3)          -178.6676         estimate D2E/DX2                !
 ! D4    D(15,1,2,18)            0.9278         estimate D2E/DX2                !
 ! D5    D(2,1,5,6)             -0.1326         estimate D2E/DX2                !
 ! D6    D(2,1,5,38)          -179.9713         estimate D2E/DX2                !
 ! D7    D(15,1,5,6)           179.0453         estimate D2E/DX2                !
 ! D8    D(15,1,5,38)           -0.7934         estimate D2E/DX2                !
 ! D9    D(2,1,15,16)           -2.6673         estimate D2E/DX2                !
 ! D10   D(2,1,15,37)          178.5            estimate D2E/DX2                !
 ! D11   D(5,1,15,16)          178.1421         estimate D2E/DX2                !
 ! D12   D(5,1,15,37)           -0.6906         estimate D2E/DX2                !
 ! D13   D(1,2,3,4)             -0.4805         estimate D2E/DX2                !
 ! D14   D(1,2,3,7)            177.7216         estimate D2E/DX2                !
 ! D15   D(18,2,3,4)           179.8602         estimate D2E/DX2                !
 ! D16   D(18,2,3,7)            -1.9378         estimate D2E/DX2                !
 ! D17   D(1,2,18,11)         -176.3526         estimate D2E/DX2                !
 ! D18   D(1,2,18,17)            3.8602         estimate D2E/DX2                !
 ! D19   D(3,2,18,11)            3.2883         estimate D2E/DX2                !
 ! D20   D(3,2,18,17)         -176.4989         estimate D2E/DX2                !
 ! D21   D(2,3,4,6)             -0.279          estimate D2E/DX2                !
 ! D22   D(2,3,4,10)           179.0816         estimate D2E/DX2                !
 ! D23   D(7,3,4,6)           -178.2056         estimate D2E/DX2                !
 ! D24   D(7,3,4,10)             1.155          estimate D2E/DX2                !
 ! D25   D(2,3,7,8)           -177.1976         estimate D2E/DX2                !
 ! D26   D(2,3,7,11)            -0.3408         estimate D2E/DX2                !
 ! D27   D(4,3,7,8)              1.0077         estimate D2E/DX2                !
 ! D28   D(4,3,7,11)           177.8646         estimate D2E/DX2                !
 ! D29   D(3,4,6,5)              0.7882         estimate D2E/DX2                !
 ! D30   D(3,4,6,39)           179.927          estimate D2E/DX2                !
 ! D31   D(10,4,6,5)          -178.4284         estimate D2E/DX2                !
 ! D32   D(10,4,6,39)            0.7104         estimate D2E/DX2                !
 ! D33   D(3,4,10,9)            -1.5757         estimate D2E/DX2                !
 ! D34   D(3,4,10,40)          179.6877         estimate D2E/DX2                !
 ! D35   D(6,4,10,9)           177.6407         estimate D2E/DX2                !
 ! D36   D(6,4,10,40)           -1.0959         estimate D2E/DX2                !
 ! D37   D(1,5,6,4)             -0.6087         estimate D2E/DX2                !
 ! D38   D(1,5,6,39)          -179.7504         estimate D2E/DX2                !
 ! D39   D(38,5,6,4)           179.2306         estimate D2E/DX2                !
 ! D40   D(38,5,6,39)            0.0888         estimate D2E/DX2                !
 ! D41   D(3,7,8,9)             -2.5608         estimate D2E/DX2                !
 ! D42   D(3,7,8,14)           175.8771         estimate D2E/DX2                !
 ! D43   D(11,7,8,9)          -178.8174         estimate D2E/DX2                !
 ! D44   D(11,7,8,14)           -0.3794         estimate D2E/DX2                !
 ! D45   D(3,7,11,12)         -172.5847         estimate D2E/DX2                !
 ! D46   D(3,7,11,18)            2.3486         estimate D2E/DX2                !
 ! D47   D(8,7,11,12)            4.107          estimate D2E/DX2                !
 ! D48   D(8,7,11,18)          179.0403         estimate D2E/DX2                !
 ! D49   D(7,8,9,10)             2.031          estimate D2E/DX2                !
 ! D50   D(7,8,9,41)          -179.6067         estimate D2E/DX2                !
 ! D51   D(14,8,9,10)         -176.0458         estimate D2E/DX2                !
 ! D52   D(14,8,9,41)            2.3165         estimate D2E/DX2                !
 ! D53   D(7,8,14,13)           -3.0451         estimate D2E/DX2                !
 ! D54   D(7,8,14,42)         -179.4689         estimate D2E/DX2                !
 ! D55   D(9,8,14,13)          175.0562         estimate D2E/DX2                !
 ! D56   D(9,8,14,42)           -1.3676         estimate D2E/DX2                !
 ! D57   D(8,9,10,4)             0.0028         estimate D2E/DX2                !
 ! D58   D(8,9,10,40)          178.7438         estimate D2E/DX2                !
 ! D59   D(41,9,10,4)         -178.3648         estimate D2E/DX2                !
 ! D60   D(41,9,10,40)           0.3762         estimate D2E/DX2                !
 ! D61   D(7,11,12,13)          -3.9673         estimate D2E/DX2                !
 ! D62   D(7,11,12,20)         172.0591         estimate D2E/DX2                !
 ! D63   D(18,11,12,13)       -177.3111         estimate D2E/DX2                !
 ! D64   D(18,11,12,20)         -1.2847         estimate D2E/DX2                !
 ! D65   D(7,11,18,2)           -3.4104         estimate D2E/DX2                !
 ! D66   D(7,11,18,17)         176.3372         estimate D2E/DX2                !
 ! D67   D(12,11,18,2)         170.6078         estimate D2E/DX2                !
 ! D68   D(12,11,18,17)         -9.6446         estimate D2E/DX2                !
 ! D69   D(11,12,13,14)          0.697          estimate D2E/DX2                !
 ! D70   D(11,12,13,19)        178.4574         estimate D2E/DX2                !
 ! D71   D(20,12,13,14)       -175.2698         estimate D2E/DX2                !
 ! D72   D(20,12,13,19)          2.4906         estimate D2E/DX2                !
 ! D73   D(11,12,20,21)       -175.7054         estimate D2E/DX2                !
 ! D74   D(11,12,20,27)         42.9732         estimate D2E/DX2                !
 ! D75   D(11,12,20,45)        -56.1148         estimate D2E/DX2                !
 ! D76   D(13,12,20,21)          0.0387         estimate D2E/DX2                !
 ! D77   D(13,12,20,27)       -141.2827         estimate D2E/DX2                !
 ! D78   D(13,12,20,45)        119.6293         estimate D2E/DX2                !
 ! D79   D(12,13,14,8)           2.9662         estimate D2E/DX2                !
 ! D80   D(12,13,14,42)        179.3546         estimate D2E/DX2                !
 ! D81   D(19,13,14,8)        -174.7449         estimate D2E/DX2                !
 ! D82   D(19,13,14,42)          1.6434         estimate D2E/DX2                !
 ! D83   D(12,13,19,22)         -3.0234         estimate D2E/DX2                !
 ! D84   D(12,13,19,43)        179.616          estimate D2E/DX2                !
 ! D85   D(14,13,19,22)        174.7639         estimate D2E/DX2                !
 ! D86   D(14,13,19,43)         -2.5967         estimate D2E/DX2                !
 ! D87   D(1,15,16,17)          -0.0945         estimate D2E/DX2                !
 ! D88   D(1,15,16,23)        -179.2207         estimate D2E/DX2                !
 ! D89   D(37,15,16,17)        178.7251         estimate D2E/DX2                !
 ! D90   D(37,15,16,23)         -0.4011         estimate D2E/DX2                !
 ! D91   D(15,16,17,18)          4.6123         estimate D2E/DX2                !
 ! D92   D(15,16,17,26)       -173.1894         estimate D2E/DX2                !
 ! D93   D(23,16,17,18)       -176.2478         estimate D2E/DX2                !
 ! D94   D(23,16,17,26)          5.9504         estimate D2E/DX2                !
 ! D95   D(15,16,23,24)        176.6544         estimate D2E/DX2                !
 ! D96   D(15,16,23,36)         -2.4468         estimate D2E/DX2                !
 ! D97   D(17,16,23,24)         -2.5061         estimate D2E/DX2                !
 ! D98   D(17,16,23,36)        178.3928         estimate D2E/DX2                !
 ! D99   D(16,17,18,2)          -6.2965         estimate D2E/DX2                !
 ! D100  D(16,17,18,11)        173.9867         estimate D2E/DX2                !
 ! D101  D(26,17,18,2)         171.4892         estimate D2E/DX2                !
 ! D102  D(26,17,18,11)         -8.2277         estimate D2E/DX2                !
 ! D103  D(16,17,26,25)         -4.5058         estimate D2E/DX2                !
 ! D104  D(16,17,26,27)        171.2269         estimate D2E/DX2                !
 ! D105  D(18,17,26,25)        177.8726         estimate D2E/DX2                !
 ! D106  D(18,17,26,27)         -6.3947         estimate D2E/DX2                !
 ! D107  D(13,19,22,21)          1.0495         estimate D2E/DX2                !
 ! D108  D(13,19,22,44)       -177.2289         estimate D2E/DX2                !
 ! D109  D(43,19,22,21)        178.4562         estimate D2E/DX2                !
 ! D110  D(43,19,22,44)          0.1778         estimate D2E/DX2                !
 ! D111  D(12,20,21,22)         -2.1429         estimate D2E/DX2                !
 ! D112  D(12,20,21,46)        174.1392         estimate D2E/DX2                !
 ! D113  D(27,20,21,22)        138.384          estimate D2E/DX2                !
 ! D114  D(27,20,21,46)        -45.3338         estimate D2E/DX2                !
 ! D115  D(45,20,21,22)       -121.5962         estimate D2E/DX2                !
 ! D116  D(45,20,21,46)         54.686          estimate D2E/DX2                !
 ! D117  D(12,20,27,26)        -71.8765         estimate D2E/DX2                !
 ! D118  D(12,20,27,28)        143.024          estimate D2E/DX2                !
 ! D119  D(12,20,27,33)         34.346          estimate D2E/DX2                !
 ! D120  D(21,20,27,26)        147.7855         estimate D2E/DX2                !
 ! D121  D(21,20,27,28)          2.686          estimate D2E/DX2                !
 ! D122  D(21,20,27,33)       -105.992          estimate D2E/DX2                !
 ! D123  D(45,20,27,26)         37.6292         estimate D2E/DX2                !
 ! D124  D(45,20,27,28)       -107.4703         estimate D2E/DX2                !
 ! D125  D(45,20,27,33)        143.8517         estimate D2E/DX2                !
 ! D126  D(20,21,22,19)          1.6912         estimate D2E/DX2                !
 ! D127  D(20,21,22,44)        179.972          estimate D2E/DX2                !
 ! D128  D(46,21,22,19)       -174.6483         estimate D2E/DX2                !
 ! D129  D(46,21,22,44)          3.6325         estimate D2E/DX2                !
 ! D130  D(16,23,24,25)         -2.1788         estimate D2E/DX2                !
 ! D131  D(16,23,24,35)       -179.2205         estimate D2E/DX2                !
 ! D132  D(36,23,24,25)        176.9403         estimate D2E/DX2                !
 ! D133  D(36,23,24,35)         -0.1014         estimate D2E/DX2                !
 ! D134  D(23,24,25,26)          3.6265         estimate D2E/DX2                !
 ! D135  D(23,24,25,29)       -175.0676         estimate D2E/DX2                !
 ! D136  D(35,24,25,26)       -179.3961         estimate D2E/DX2                !
 ! D137  D(35,24,25,29)          1.9098         estimate D2E/DX2                !
 ! D138  D(24,25,26,17)         -0.2756         estimate D2E/DX2                !
 ! D139  D(24,25,26,27)       -176.3544         estimate D2E/DX2                !
 ! D140  D(29,25,26,17)        178.3844         estimate D2E/DX2                !
 ! D141  D(29,25,26,27)          2.3055         estimate D2E/DX2                !
 ! D142  D(24,25,29,30)        172.8996         estimate D2E/DX2                !
 ! D143  D(24,25,29,34)         -4.5098         estimate D2E/DX2                !
 ! D144  D(26,25,29,30)         -5.797          estimate D2E/DX2                !
 ! D145  D(26,25,29,34)        176.7936         estimate D2E/DX2                !
 ! D146  D(17,26,27,20)         48.5619         estimate D2E/DX2                !
 ! D147  D(17,26,27,28)       -167.2883         estimate D2E/DX2                !
 ! D148  D(17,26,27,33)        -50.624          estimate D2E/DX2                !
 ! D149  D(25,26,27,20)       -135.7796         estimate D2E/DX2                !
 ! D150  D(25,26,27,28)          8.3702         estimate D2E/DX2                !
 ! D151  D(25,26,27,33)        125.0345         estimate D2E/DX2                !
 ! D152  D(20,27,28,30)        128.5227         estimate D2E/DX2                !
 ! D153  D(20,27,28,32)       -113.5981         estimate D2E/DX2                !
 ! D154  D(20,27,28,47)        -11.1989         estimate D2E/DX2                !
 ! D155  D(26,27,28,30)        -15.8374         estimate D2E/DX2                !
 ! D156  D(26,27,28,32)        102.0418         estimate D2E/DX2                !
 ! D157  D(26,27,28,47)       -155.5589         estimate D2E/DX2                !
 ! D158  D(33,27,28,30)       -131.277          estimate D2E/DX2                !
 ! D159  D(33,27,28,32)        -13.3978         estimate D2E/DX2                !
 ! D160  D(33,27,28,47)         89.0015         estimate D2E/DX2                !
 ! D161  D(27,28,30,29)         12.8765         estimate D2E/DX2                !
 ! D162  D(27,28,30,31)       -170.8335         estimate D2E/DX2                !
 ! D163  D(32,28,30,29)       -105.9928         estimate D2E/DX2                !
 ! D164  D(32,28,30,31)         70.2971         estimate D2E/DX2                !
 ! D165  D(47,28,30,29)        154.6474         estimate D2E/DX2                !
 ! D166  D(47,28,30,31)        -29.0626         estimate D2E/DX2                !
 ! D167  D(25,29,30,28)         -2.002          estimate D2E/DX2                !
 ! D168  D(25,29,30,31)       -178.2976         estimate D2E/DX2                !
 ! D169  D(34,29,30,28)        175.4658         estimate D2E/DX2                !
 ! D170  D(34,29,30,31)         -0.8298         estimate D2E/DX2                !
 --------------------------------------------------------------------------------
 Trust Radius=3.00D-01 FncErr=1.00D-07 GrdErr=1.00D-06 EigMax=2.50D+02 EigMin=1.00D-04
 Number of steps in this run=    282 maximum allowed number of steps=    282.
 GradGradGradGradGradGradGradGradGradGradGradGradGradGradGradGradGradGrad

                          Input orientation:                          
 ---------------------------------------------------------------------
 Center     Atomic      Atomic             Coordinates (Angstroms)
 Number     Number       Type             X           Y           Z
 ---------------------------------------------------------------------
      1          6           0       -7.005840   -0.001560   -0.156490
      2          6           0       -5.777950    0.605860   -0.023050
      3          6           0       -4.623270   -0.084070    0.135490
      4          6           0       -4.516700   -1.461430    0.194090
      5          6           0       -6.984300   -1.428450   -0.101300
      6          6           0       -5.760480   -2.145670    0.077470
      7          6           0       -3.583950    0.781030    0.188130
      8          6           0       -2.269350    0.380630    0.288630
      9          6           0       -2.076090   -1.030120    0.392080
     10          6           0       -3.181830   -1.935720    0.345550
     11          6           0       -4.062440    2.071460    0.053730
     12          6           0       -3.186410    3.130940   -0.078390
     13          6           0       -1.791530    2.803650    0.023920
     14          6           0       -1.351900    1.455180    0.234420
     15          6           0       -8.061530    0.918380   -0.339460
     16          6           0       -7.834300    2.334490   -0.319000
     17          6           0       -6.529290    2.894250   -0.110680
     18          6           0       -5.504710    1.964620   -0.033260
     19          6           0       -0.860550    3.832640   -0.135020
     20          6           0       -3.656160    4.461390   -0.388810
     21          6           0       -2.631150    5.426890   -0.587270
     22          6           0       -1.272600    5.126560   -0.447500
     23          6           0       -8.903560    3.207960   -0.487000
     24          6           0       -8.714150    4.585730   -0.401050
     25          6           0       -7.461030    5.138280   -0.100160
     26          6           0       -6.316120    4.312890    0.054180
     27          6           0       -5.040980    4.957660    0.453100
     28          6           0       -5.070970    6.360010    0.843390
     29          6           0       -7.373760    6.524660    0.071750
     30          6           0       -6.202600    7.129990    0.512950
     31          1           0       -6.180960    8.208550    0.661500
     32          1           0       -5.025850    6.383550    1.977350
     33          1           0       -4.731880    4.384750    1.380390
     34          1           0       -8.243740    7.156540   -0.099050
     35          1           0       -9.582450    5.230820   -0.526520
     36          1           0       -9.906090    2.829380   -0.673490
     37          1           0       -9.069990    0.534430   -0.479730
     38          1           0       -7.914850   -1.982760   -0.199450
     39          1           0       -5.781140   -3.232360    0.110720
     40          1           0       -2.995540   -3.005320    0.406710
     41          1           0       -1.067890   -1.427980    0.481630
     42          1           0       -0.287660    1.237960    0.297070
     43          1           0        0.205190    3.628420   -0.058810
     44          1           0       -0.530640    5.904350   -0.611750
     45          1           0       -4.249030    4.393650   -1.343320
     46          1           0       -2.897930    6.429920   -0.918980
     47          1           0       -4.132270    6.938280    0.737840
 ---------------------------------------------------------------------
                    Distance matrix (angstroms):
                    1          2          3          4          5
     1  C    0.000000
     2  C    1.376401   0.000000
     3  C    2.401812   1.354409   0.000000
     4  C    2.906879   2.431376   1.382719   0.000000
     5  C    1.428119   2.366394   2.727249   2.485436   0.000000
     6  C    2.490555   2.753421   2.355166   1.424350   1.429720
     7  C    3.527115   2.211090   1.353276   2.428721   4.065458
     8  C    4.772687   3.529610   2.404233   2.907354   5.065133
     9  C    5.065698   4.068480   2.729281   2.486324   4.949002
    10  C    4.314635   3.651758   2.355946   1.424700   3.862095
    11  C    3.606273   2.257621   2.228794   3.564739   4.561871
    12  C    4.940314   3.618725   3.527974   4.788923   5.934015
    13  C    5.923747   4.552365   4.046001   5.064229   6.700090
    14  C    5.851661   4.514150   3.616758   4.303975   6.336557
    15  C    1.412179   2.326483   3.612771   4.302789   2.593213
    16  C    2.483925   2.702651   4.045579   5.067419   3.863885
    17  C    2.935117   2.410170   3.544559   4.807843   4.346591
    18  C    2.476780   1.385999   2.236637   3.572908   3.702261
    19  C    7.243351   5.882641   5.438001   6.442276   8.073445
    20  C    5.585002   4.415981   4.676687   6.013327   6.771218
    21  C    6.985095   5.784723   5.904372   7.184342   8.135218
    22  C    7.697554   6.396488   6.222341   7.371393   8.701237
    23  C    3.743207   4.093362   5.435608   6.442952   5.032755
    24  C    4.901159   4.960194   6.231389   7.385183   6.265189
    25  C    5.160264   4.835446   5.948223   7.232692   6.584012
    26  C    4.374308   3.746687   4.712283   6.049815   5.782182
    27  C    5.368998   4.439370   5.068964   6.445671   6.698228
    28  C    6.724065   5.861807   6.498286   7.867892   8.075480
    29  C    6.540566   6.130888   7.158531   8.482652   7.964520
    30  C    7.207798   6.559870   7.394553   8.761075   8.615988
    31  H    8.291890   7.644078   8.454030   9.823276   9.700463
    32  H    7.017354   6.160272   6.736811   8.061201   8.317671
    33  H    5.174226   4.164603   4.640250   5.969207   6.407971
    34  H    7.264578   6.999807   8.098719   9.393943   8.676880
    35  H    5.844112   6.009822   7.299300   8.424210   7.160801
    36  H    4.085702   4.733778   6.086939   6.943290   5.195515
    37  H    2.156962   3.324332   4.531485   5.016965   2.888981
    38  H    2.180206   3.361311   3.814670   3.460359   1.087574
    39  H    3.465452   3.840552   3.354550   2.177602   2.178678
    40  H    5.042051   4.578987   3.355111   2.177781   4.319120
    41  H    6.140124   5.155179   3.816626   3.460938   5.945058
    42  H    6.846610   5.535821   4.535569   5.018176   7.218963
    43  H    8.073738   6.703366   6.093797   6.947429   8.789909
    44  H    8.775833   7.480296   7.291719   8.413844   9.781628
    45  H    5.322259   4.292792   4.730424   6.059475   6.551425
    46  H    7.669436   6.558726   6.820614   8.132204   8.894999
    47  H    7.564298   6.586863   7.065218   8.426065   8.879212
                    6          7          8          9         10
     6  C    0.000000
     7  C    3.648986   0.000000
     8  C    4.314484   1.377895   0.000000
     9  C    3.862404   2.365481   1.427679   0.000000
    10  C    2.601035   2.750857   2.490248   1.430013   0.000000
    11  C    4.546217   1.382832   2.475733   3.698630   4.113165
    12  C    5.873052   2.398155   2.922312   4.332271   5.084367
    13  C    6.344383   2.707531   2.483830   3.861905   4.949546
    14  C    5.694412   2.332095   1.413970   2.593458   3.854763
    15  C    3.854486   4.510647   5.850899   6.336978   5.694436
    16  C    4.952752   4.553668   5.929203   6.706953   6.349945
    17  C    5.101692   3.637309   4.962340   5.956882   5.894255
    18  C    4.119729   2.266984   3.616655   4.572179   4.555428
    19  C    7.732700   4.102884   3.752409   5.040021   6.236447
    20  C    6.949735   3.726006   4.362885   5.767416   6.456570
    21  C    8.220599   4.805527   5.134476   6.554403   7.441870
    22  C    8.561658   4.962862   4.905023   6.265397   7.358661
    23  C    6.233693   5.885919   7.253147   8.083839   7.738784
    24  C    7.366471   6.414190   7.726187   8.731018   8.584479
    25  C    7.481935   5.839562   7.052654   8.202990   8.279595
    26  C    6.482459   4.467296   5.647476   6.829333   6.996699
    27  C    7.149551   4.431409   5.353334   6.681901   7.140497
    28  C    8.567885   5.810819   6.626448   7.986677   8.522666
    29  C    8.819146   6.882259   7.990691   9.232693   9.445913
    30  C    9.296396   6.875473   7.815026   9.144949   9.557205
    31  H   10.379199   7.882677   8.758770  10.113138  10.583044
    32  H    8.769083   6.055462   6.817999   8.134904   8.676026
    33  H    6.738101   3.965605   4.825865   6.111530   6.589529
    34  H    9.629582   7.902104   9.041935  10.261701  10.415843
    35  H    8.329758   7.502890   8.813072   9.817771   9.648199
    36  H    6.519290   6.701312   8.077243   8.794321   8.304233
    37  H    4.294911   5.532042   6.845636   7.219592   6.438413
    38  H    2.178195   5.152228   6.139666   5.945465   4.764527
    39  H    1.087395   4.576127   5.041628   4.319308   2.914247
    40  H    2.914153   3.838027   3.464961   2.178765   1.087423
    41  H    4.764328   3.361016   2.179868   1.087556   2.178316
    42  H    6.438085   3.329592   2.159208   2.889930   4.295441
    43  H    8.303488   4.746176   4.097829   5.206682   6.526490
    44  H    9.624400   6.017551   5.860485   7.175163   8.331382
    45  H    6.860454   3.979786   4.763058   6.095126   6.637177
    46  H    9.095485   5.797092   6.200592   7.618825   8.465434
    47  H    9.252313   6.206010   6.831913   8.236676   8.933370
                   11         12         13         14         15
    11  C    0.000000
    12  C    1.381080   0.000000
    13  C    2.386215   1.436411   0.000000
    14  C    2.785584   2.504286   1.433861   0.000000
    15  C    4.180540   5.360072   6.557377   6.755489   0.000000
    16  C    3.799347   4.721770   6.070649   6.565133   1.434371
    17  C    2.605641   3.351404   4.740537   5.384736   2.510809
    18  C    1.448836   2.595545   3.807223   4.192495   2.779515
    19  C    3.659164   2.430065   1.396713   2.455652   7.771024
    20  C    2.464279   1.444688   2.528892   3.838662   5.653551
    21  C    3.703833   2.416332   2.821330   4.252780   7.062372
    22  C    4.167502   2.789518   2.426404   3.735015   7.988118
    23  C    5.002046   5.732251   7.141812   7.785901   2.443964
    24  C    5.307239   5.725071   7.160941   8.025390   3.725475
    25  C    4.580336   4.722527   6.132628   7.141333   4.269124
    26  C    3.178535   3.348084   4.769763   5.730835   3.837200
    27  C    3.073628   2.656844   3.922101   5.091611   5.105649
    28  C    4.475752   3.850732   4.906522   6.185441   6.320911
    29  C    5.549428   5.392011   6.708912   7.873302   5.663258
    30  C    5.511796   5.043757   6.197895   7.470632   6.539596
    31  H    6.520842   5.941119   6.991892   8.313256   7.595067
    32  H    4.818983   4.264866   5.205036   6.389409   6.667162
    33  H    2.749452   2.467500   3.603546   4.617347   5.104917
    34  H    6.585184   6.463936   7.784201   8.950652   6.245449
    35  H    6.386608   6.746825   8.178788   9.087158   4.576607
    36  H    5.937300   6.752717   8.144515   8.711308   2.676920
    37  H    5.265225   6.443559   7.640615   7.805556   1.088157
    38  H    5.598380   6.965826   7.775260   7.421589   2.908218
    39  H    5.575633   6.874589   7.235879   6.450310   4.757256
    40  H    5.199670   6.158363   5.944771   4.756816   6.451081
    41  H    4.625636   5.058211   4.317389   2.907643   7.422304
    42  H    3.873358   3.482398   2.188063   1.087987   7.806430
    43  H    4.544167   3.427947   2.161939   2.689514   8.704122
    44  H    5.254286   3.876776   3.407090   4.602780   9.035947
    45  H    2.716456   2.079338   3.230596   4.417831   5.255511
    46  H    4.615021   3.416589   3.906791   5.335595   7.574674
    47  H    4.915162   4.007084   4.804572   6.168328   7.269034
                   16         17         18         19         20
    16  C    0.000000
    17  C    1.435193   0.000000
    18  C    2.376014   1.385630   0.000000
    19  C    7.135229   5.745936   5.006803   0.000000
    20  C    4.688862   3.284533   3.126886   2.876660   0.000000
    21  C    6.058686   4.672997   4.533386   2.425116   1.422049
    22  C    7.132186   5.720965   5.299077   1.393434   2.475329
    23  C    1.390860   2.424291   3.647459   8.074907   5.395918
    24  C    2.418460   2.778315   4.160047   7.894109   5.059533
    25  C    2.836981   2.429798   3.728777   6.728465   3.875375
    26  C    2.521547   1.444008   2.486042   5.479934   2.700681
    27  C    3.908938   2.605873   3.067553   4.368930   1.694940
    28  C    5.019159   3.879232   4.502899   5.007247   2.669225
    29  C    4.233475   3.731794   4.929335   7.050647   4.276652
    30  C    5.133362   4.293848   5.240844   6.311092   3.797230
    31  H    6.180574   5.381392   6.318755   6.934681   4.638855
    32  H    5.436497   4.335368   4.878402   5.321557   3.342075
    33  H    4.088582   2.770481   2.907353   4.193863   2.071984
    34  H    4.844397   4.594191   5.870489   8.096981   5.328572
    35  H    3.389369   3.867075   5.247793   8.841930   5.977617
    36  H    2.159373   3.423995   4.530988   9.116922   6.465766
    37  H    2.189288   3.487134   3.867299   8.853921   6.688710
    38  H    4.319656   5.070787   4.627980   9.142548   7.726537
    39  H    5.948945   6.176091   5.206318   8.613177   7.997428
    40  H    7.242501   6.896376   5.584784   7.183965   7.537972
    41  H    7.783411   6.989949   5.608941   5.300695   6.491647
    42  H    7.650732   6.470510   5.277761   2.692075   4.712507
    43  H    8.147107   6.774579   5.947423   1.087803   3.963933
    44  H    8.134682   6.730199   6.371616   2.151301   3.449741
    45  H    4.259523   2.994526   3.032025   3.640950   1.125688
    46  H    6.442070   5.132357   5.245827   3.392842   2.175110
    47  H    6.001401   4.777015   5.216846   4.594675   2.762427
                   21         22         23         24         25
    21  C    0.000000
    22  C    1.398353   0.000000
    23  C    6.654084   7.868554   0.000000
    24  C    6.143705   7.461322   1.393382   0.000000
    25  C    4.862953   6.198181   2.440630   1.402197   0.000000
    26  C    3.902750   5.133307   2.865064   2.456059   1.419827
    27  C    2.666426   3.878182   4.343358   3.789470   2.489048
    28  C    2.978292   4.197072   5.137519   4.239040   2.845224
    29  C    4.912408   6.280801   3.694995   2.404087   1.399721
    30  C    4.106859   5.407504   4.865943   3.690059   2.434432
    31  H    4.679552   5.900893   5.808399   4.546525   3.412516
    32  H    3.636903   4.641854   5.585161   4.742626   3.434654
    33  H    3.061178   3.982221   4.719629   4.367195   3.195011
    34  H    5.893319   7.269046   4.022083   2.630885   2.164719
    35  H    6.954330   8.310880   2.134108   1.088958   2.165818
    36  H    7.725234   8.936736   1.087735   2.140026   3.411458
    37  H    8.087422   9.049198   2.678715   4.067658   4.891652
    38  H    9.108831   9.732597   5.291862   6.620014   7.136177
    39  H    9.240792   9.513679   7.182235   8.365823   8.540147
    40  H    8.498408   8.356176   8.620224   9.538292   9.301384
    41  H    7.111650   6.623231   9.155758   9.767759   9.182946
    42  H    4.880690   4.079914   8.872959   9.093991   8.174810
    43  H    3.399792   2.139945   9.128497   8.977093   7.813598
    44  H    2.154231   1.087401   8.797265   8.291742   6.991344
    45  H    2.063185   3.193554   4.878913   4.567501   3.523757
    46  H    1.089620   2.136057   6.828999   6.123537   4.812555
    47  H    2.508700   3.586791   6.179056   5.274958   3.875937
                   26         27         28         29         30
    26  C    0.000000
    27  C    1.483525   0.000000
    28  C    2.522687   1.455957   0.000000
    29  C    2.451701   2.835979   2.434210   0.000000
    30  C    2.856468   2.464135   1.408065   1.390215   0.000000
    31  H    3.945031   3.451271   2.163853   2.146174   1.088957
    32  H    3.106608   2.087278   1.135101   3.027194   2.021480
    33  H    2.067320   1.132976   2.074850   3.642977   3.232926
    34  H    3.438829   3.923979   3.404280   1.088720   2.131080
    35  H    3.442197   4.653947   4.848214   2.628737   4.013817
    36  H    3.951986   5.428451   6.176136   4.541274   5.798166
    37  H    4.705913   6.055416   7.188894   6.250135   7.260079
    38  H    6.500421   7.540184   8.875640   8.528923   9.299544
    39  H    7.564403   8.230522   9.646487   9.886223  10.378715
    40  H    8.044049   8.221620   9.602474  10.492927  10.631135
    41  H    7.790008   7.520815   8.764035  10.157582   9.980234
    42  H    6.771744   6.037762   7.029503   8.843799   8.351595
    43  H    6.558106   5.436104   6.009444   8.114539   7.324457
    44  H    6.037217   4.730042   4.789536   6.905089   5.910861
    45  H    2.496475   2.042649   3.053499   4.038263   3.840538
    46  H    4.136772   2.939867   2.798739   4.585147   3.668973
    47  H    3.482709   2.197655   1.107562   3.334968   2.091314
                   31         32         33         34         35
    31  H    0.000000
    32  H    2.529104   0.000000
    33  H    4.151877   2.106652   0.000000
    34  H    2.437257   3.906887   4.712189   0.000000
    35  H    4.674227   5.325482   5.280168   2.383962   0.000000
    36  H    6.677894   6.593620   5.780143   4.670942   2.427603
    37  H    8.278950   7.523597   6.091322   6.684306   4.724498
    38  H   10.373544   9.114819   7.291939   9.145767   7.411046
    39  H   11.461136   9.824484   7.793162  10.678841   9.299540
    40  H   11.660304   9.733445   7.653500  11.448266  10.587365
    41  H   10.910479   8.883841   6.929677  11.203749  10.856045
    42  H    9.135257   7.193809   5.552203   9.923997  10.149599
    43  H    7.891727   6.253037   5.197883   9.156073   9.928964
    44  H    6.233508   5.209605   4.891648   7.830885   9.077234
    45  H    4.722830   3.948417   2.766192   5.013928   5.460163
    46  H    4.054593   3.594290   3.582345   5.456917   6.802549
    47  H    2.411751   1.625606   2.700540   4.201453   5.849657
                   36         37         38         39         40
    36  H    0.000000
    37  H    2.450184   0.000000
    38  H    5.229383   2.783730   0.000000
    39  H    7.373933   5.035263   2.492072   0.000000
    40  H    9.108582   7.086222   5.060896   2.810467   0.000000
    41  H    9.877915   8.295111   6.903080   5.060443   2.491877
    42  H    9.797387   8.844642   8.294191   7.084971   5.034884
    43  H   10.161411   9.786670   9.871179   9.106876   7.380236
    44  H    9.867032  10.088309  10.812172  10.562631   9.300280
    45  H    5.907448   6.235465   7.443472   7.913130   7.705751
    46  H    7.882795   8.546582   9.821425  10.135721   9.528417
    47  H    7.225781   8.177582   9.735059  10.322498  10.013840
                   41         42         43         44         45
    41  H    0.000000
    42  H    2.783892   0.000000
    43  H    5.242136   2.466546   0.000000
    44  H    7.432845   4.760272   2.455004   0.000000
    45  H    6.880514   5.323693   4.698470   4.079685   0.000000
    46  H    8.188855   5.937065   4.268214   2.444315   2.480309
    47  H    8.913494   6.889772   5.513926   3.982731   3.289377
                   46         47
    46  H    0.000000
    47  H    2.127693   0.000000
 Stoichiometry    C30H17(2)
 Framework group  C1[X(C30H17)]
 Deg. of freedom   135
 Full point group                 C1      NOp   1
 Largest Abelian subgroup         C1      NOp   1
 Largest concise Abelian subgroup C1      NOp   1
                         Standard orientation:                         
 ---------------------------------------------------------------------
 Center     Atomic      Atomic             Coordinates (Angstroms)
 Number     Number       Type             X           Y           Z
 ---------------------------------------------------------------------
      1          6           0        1.729104   -2.744858   -0.111229
      2          6           0        1.521414   -1.387652   -0.014611
      3          6           0        2.529087   -0.490379    0.103371
      4          6           0        3.875333   -0.802093    0.152045
      5          6           0        3.096935   -3.152635   -0.063453
      6          6           0        4.151729   -2.197096    0.072391
      7          6           0        2.017788    0.762374    0.126521
      8          6           0        2.796703    1.897596    0.182695
      9          6           0        4.201517    1.659760    0.273242
     10          6           0        4.731528    0.331680    0.258151
     11          6           0        0.641406    0.691204    0.013675
     12          6           0       -0.107010    1.841476   -0.141659
     13          6           0        0.626384    3.075292   -0.085923
     14          6           0        2.047490    3.094171    0.103964
     15          6           0        0.531562   -3.479199   -0.255742
     16          6           0       -0.750035   -2.835353   -0.235981
     17          6           0       -0.888005   -1.416809   -0.067234
     18          6           0        0.307915   -0.718134   -0.027257
     19          6           0       -0.076800    4.267962   -0.269978
     20          6           0       -1.521418    1.785529   -0.430527
     21          6           0       -2.136320    3.047528   -0.657411
     22          6           0       -1.439037    4.255941   -0.562937
     23          6           0       -1.907140   -3.596190   -0.365313
     24          6           0       -3.162634   -2.998020   -0.279057
     25          6           0       -3.308036   -1.628387   -0.016149
     26          6           0       -2.174199   -0.781364    0.097315
     27          6           0       -2.399515    0.639918    0.457923
     28          6           0       -3.740170    1.045318    0.855549
     29          6           0       -4.601265   -1.122448    0.159356
     30          6           0       -4.819673    0.189090    0.565390
     31          1           0       -5.839477    0.539047    0.718220
     32          1           0       -3.732948    1.128684    1.987562
     33          1           0       -1.747040    0.789101    1.372066
     34          1           0       -5.468065   -1.766230    0.019666
     35          1           0       -4.040881   -3.634890   -0.373433
     36          1           0       -1.850570   -4.671217   -0.521147
     37          1           0        0.592123   -4.560140   -0.365215
     38          1           0        3.343986   -4.209416   -0.134140
     39          1           0        5.182159   -2.543234    0.101194
     40          1           0        5.808352    0.188749    0.308256
     41          1           0        4.885627    2.503403    0.328365
     42          1           0        2.575844    4.044863    0.131240
     43          1           0        0.439802    5.224398   -0.229137
     44          1           0       -1.959669    5.192617   -0.747381
     45          1           0       -1.648824    1.172063   -1.365727
     46          1           0       -3.177734    3.085750   -0.975638
     47          1           0       -4.010504    2.111109    0.722493
 ---------------------------------------------------------------------
 Rotational constants (GHZ):           0.2430652           0.1767175           0.1042784
 Standard basis: 6-311+G(d,p) (5D, 7F)
 There are   792 symmetry adapted cartesian basis functions of A   symmetry.
 There are   762 symmetry adapted basis functions of A   symmetry.
   762 basis functions,  1216 primitive gaussians,   792 cartesian basis functions
    99 alpha electrons       98 beta electrons
       nuclear repulsion energy      2672.5471984045 Hartrees.
 NAtoms=   47 NActive=   47 NUniq=   47 SFac= 1.00D+00 NAtFMM=   60 NAOKFM=F Big=F
 Integral buffers will be    131072 words long.
 Raffenetti 2 integral format.
 Two-electron integral symmetry is turned on.
 One-electron integrals computed using PRISM.
 NBasis=   762 RedAO= T EigKep=  1.09D-06  NBF=   762
 NBsUse=   739 1.00D-06 EigRej=  9.21D-07 NBFU=   739
 ExpMin= 4.38D-02 ExpMax= 4.56D+03 ExpMxC= 6.82D+02 IAcc=2 IRadAn=         4 AccDes= 0.00D+00
 Harris functional with IExCor=  402 and IRadAn=       4 diagonalized for initial guess.
 HarFok:  IExCor=  402 AccDes= 0.00D+00 IRadAn=         4 IDoV= 1 UseB2=F ITyADJ=14
 ICtDFT=  3500011 ScaDFX=  1.000000  1.000000  1.000000  1.000000
 FoFCou: FMM=F IPFlag=           0 FMFlag=      100000 FMFlg1=           0
         NFxFlg=           0 DoJE=T BraDBF=F KetDBF=T FulRan=T
         wScrn=  0.000000 ICntrl=       500 IOpCl=  0 I1Cent=   200000004 NGrid=           0
         NMat0=    1 NMatS0=      1 NMatT0=    0 NMatD0=    1 NMtDS0=    0 NMtDT0=    0
 Petite list used in FoFCou.
 Initial guess <Sx>= 0.0000 <Sy>= 0.0000 <Sz>= 0.5000 <S**2>= 0.7500 S= 0.5000
 Requested convergence on RMS density matrix=1.00D-08 within 128 cycles.
 Requested convergence on MAX density matrix=1.00D-06.
 Requested convergence on             energy=1.00D-06.
 No special actions if energy rises.
 Restarting incremental Fock formation.
 SCF Done:  E(UB3LYP) =  -1153.61134645     A.U. after   26 cycles
            NFock= 26  Conv=0.43D-08     -V/T= 2.0036
 <Sx>= 0.0000 <Sy>= 0.0000 <Sz>= 0.5000 <S**2>= 0.7892 S= 0.5194
 <L.S>=  0.00000000000    
 Annihilation of the first spin contaminant:
 S**2 before annihilation     0.7892,   after     0.7511

 **********************************************************************

            Population analysis using the SCF Density.

 **********************************************************************

 Orbital symmetries:
 Alpha Orbitals:
       Occupied  (A) (A) (A) (A) (A) (A) (A) (A) (A) (A) (A) (A)
                 (A) (A) (A) (A) (A) (A) (A) (A) (A) (A) (A) (A)
                 (A) (A) (A) (A) (A) (A) (A) (A) (A) (A) (A) (A)
                 (A) (A) (A) (A) (A) (A) (A) (A) (A) (A) (A) (A)
                 (A) (A) (A) (A) (A) (A) (A) (A) (A) (A) (A) (A)
                 (A) (A) (A) (A) (A) (A) (A) (A) (A) (A) (A) (A)
                 (A) (A) (A) (A) (A) (A) (A) (A) (A) (A) (A) (A)
                 (A) (A) (A) (A) (A) (A) (A) (A) (A) (A) (A) (A)
                 (A) (A) (A)
       Virtual   (A) (A) (A) (A) (A) (A) (A) (A) (A) (A) (A) (A)
                 (A) (A) (A) (A) (A) (A) (A) (A) (A) (A) (A) (A)
                 (A) (A) (A) (A) (A) (A) (A) (A) (A) (A) (A) (A)
                 (A) (A) (A) (A) (A) (A) (A) (A) (A) (A) (A) (A)
                 (A) (A) (A) (A) (A) (A) (A) (A) (A) (A) (A) (A)
                 (A) (A) (A) (A) (A) (A) (A) (A) (A) (A) (A) (A)
                 (A) (A) (A) (A) (A) (A) (A) (A) (A) (A) (A) (A)
                 (A) (A) (A) (A) (A) (A) (A) (A) (A) (A) (A) (A)
                 (A) (A) (A) (A) (A) (A) (A) (A) (A) (A) (A) (A)
                 (A) (A) (A) (A) (A) (A) (A) (A) (A) (A) (A) (A)
                 (A) (A) (A) (A) (A) (A) (A) (A) (A) (A) (A) (A)
                 (A) (A) (A) (A) (A) (A) (A) (A) (A) (A) (A) (A)
                 (A) (A) (A) (A) (A) (A) (A) (A) (A) (A) (A) (A)
                 (A) (A) (A) (A) (A) (A) (A) (A) (A) (A) (A) (A)
                 (A) (A) (A) (A) (A) (A) (A) (A) (A) (A) (A) (A)
                 (A) (A) (A) (A) (A) (A) (A) (A) (A) (A) (A) (A)
                 (A) (A) (A) (A) (A) (A) (A) (A) (A) (A) (A) (A)
                 (A) (A) (A) (A) (A) (A) (A) (A) (A) (A) (A) (A)
                 (A) (A) (A) (A) (A) (A) (A) (A) (A) (A) (A) (A)
                 (A) (A) (A) (A) (A) (A) (A) (A) (A) (A) (A) (A)
                 (A) (A) (A) (A) (A) (A) (A) (A) (A) (A) (A) (A)
                 (A) (A) (A) (A) (A) (A) (A) (A) (A) (A) (A) (A)
                 (A) (A) (A) (A) (A) (A) (A) (A) (A) (A) (A) (A)
                 (A) (A) (A) (A) (A) (A) (A) (A) (A) (A) (A) (A)
                 (A) (A) (A) (A) (A) (A) (A) (A) (A) (A) (A) (A)
                 (A) (A) (A) (A) (A) (A) (A) (A) (A) (A) (A) (A)
                 (A) (A) (A) (A) (A) (A) (A) (A) (A) (A) (A) (A)
                 (A) (A) (A) (A) (A) (A) (A) (A) (A) (A) (A) (A)
                 (A) (A) (A) (A) (A) (A) (A) (A) (A) (A) (A) (A)
                 (A) (A) (A) (A) (A) (A) (A) (A) (A) (A) (A) (A)
                 (A) (A) (A) (A) (A) (A) (A) (A) (A) (A) (A) (A)
                 (A) (A) (A) (A) (A) (A) (A) (A) (A) (A) (A) (A)
                 (A) (A) (A) (A) (A) (A) (A) (A) (A) (A) (A) (A)
                 (A) (A) (A) (A) (A) (A) (A) (A) (A) (A) (A) (A)
                 (A) (A) (A) (A) (A) (A) (A) (A) (A) (A) (A) (A)
                 (A) (A) (A) (A) (A) (A) (A) (A) (A) (A) (A) (A)
                 (A) (A) (A) (A) (A) (A) (A) (A) (A) (A) (A) (A)
                 (A) (A) (A) (A) (A) (A) (A) (A) (A) (A) (A) (A)
                 (A) (A) (A) (A) (A) (A) (A) (A) (A) (A) (A) (A)
                 (A) (A) (A) (A) (A) (A) (A) (A) (A) (A) (A) (A)
                 (A) (A) (A) (A) (A) (A) (A) (A) (A) (A) (A) (A)
                 (A) (A) (A) (A) (A) (A) (A) (A) (A) (A) (A) (A)
                 (A) (A) (A) (A) (A) (A) (A) (A) (A) (A) (A) (A)
                 (A) (A) (A) (A) (A) (A) (A) (A) (A) (A) (A) (A)
                 (A) (A) (A) (A) (A) (A) (A) (A) (A) (A) (A) (A)
                 (A) (A) (A) (A) (A) (A) (A) (A) (A) (A) (A) (A)
                 (A) (A) (A) (A) (A) (A) (A) (A) (A) (A) (A) (A)
                 (A) (A) (A) (A) (A) (A) (A) (A) (A) (A) (A) (A)
                 (A) (A) (A) (A) (A) (A) (A) (A) (A) (A) (A) (A)
                 (A) (A) (A) (A) (A) (A) (A) (A) (A) (A) (A) (A)
                 (A) (A) (A) (A) (A) (A) (A) (A) (A) (A) (A) (A)
                 (A) (A) (A) (A) (A) (A) (A) (A) (A) (A) (A) (A)
                 (A) (A) (A) (A) (A) (A) (A) (A) (A) (A) (A) (A)
                 (A) (A) (A) (A)
 Beta  Orbitals:
       Occupied  (A) (A) (A) (A) (A) (A) (A) (A) (A) (A) (A) (A)
                 (A) (A) (A) (A) (A) (A) (A) (A) (A) (A) (A) (A)
                 (A) (A) (A) (A) (A) (A) (A) (A) (A) (A) (A) (A)
                 (A) (A) (A) (A) (A) (A) (A) (A) (A) (A) (A) (A)
                 (A) (A) (A) (A) (A) (A) (A) (A) (A) (A) (A) (A)
                 (A) (A) (A) (A) (A) (A) (A) (A) (A) (A) (A) (A)
                 (A) (A) (A) (A) (A) (A) (A) (A) (A) (A) (A) (A)
                 (A) (A) (A) (A) (A) (A) (A) (A) (A) (A) (A) (A)
                 (A) (A)
       Virtual   (A) (A) (A) (A) (A) (A) (A) (A) (A) (A) (A) (A)
                 (A) (A) (A) (A) (A) (A) (A) (A) (A) (A) (A) (A)
                 (A) (A) (A) (A) (A) (A) (A) (A) (A) (A) (A) (A)
                 (A) (A) (A) (A) (A) (A) (A) (A) (A) (A) (A) (A)
                 (A) (A) (A) (A) (A) (A) (A) (A) (A) (A) (A) (A)
                 (A) (A) (A) (A) (A) (A) (A) (A) (A) (A) (A) (A)
                 (A) (A) (A) (A) (A) (A) (A) (A) (A) (A) (A) (A)
                 (A) (A) (A) (A) (A) (A) (A) (A) (A) (A) (A) (A)
                 (A) (A) (A) (A) (A) (A) (A) (A) (A) (A) (A) (A)
                 (A) (A) (A) (A) (A) (A) (A) (A) (A) (A) (A) (A)
                 (A) (A) (A) (A) (A) (A) (A) (A) (A) (A) (A) (A)
                 (A) (A) (A) (A) (A) (A) (A) (A) (A) (A) (A) (A)
                 (A) (A) (A) (A) (A) (A) (A) (A) (A) (A) (A) (A)
                 (A) (A) (A) (A) (A) (A) (A) (A) (A) (A) (A) (A)
                 (A) (A) (A) (A) (A) (A) (A) (A) (A) (A) (A) (A)
                 (A) (A) (A) (A) (A) (A) (A) (A) (A) (A) (A) (A)
                 (A) (A) (A) (A) (A) (A) (A) (A) (A) (A) (A) (A)
                 (A) (A) (A) (A) (A) (A) (A) (A) (A) (A) (A) (A)
                 (A) (A) (A) (A) (A) (A) (A) (A) (A) (A) (A) (A)
                 (A) (A) (A) (A) (A) (A) (A) (A) (A) (A) (A) (A)
                 (A) (A) (A) (A) (A) (A) (A) (A) (A) (A) (A) (A)
                 (A) (A) (A) (A) (A) (A) (A) (A) (A) (A) (A) (A)
                 (A) (A) (A) (A) (A) (A) (A) (A) (A) (A) (A) (A)
                 (A) (A) (A) (A) (A) (A) (A) (A) (A) (A) (A) (A)
                 (A) (A) (A) (A) (A) (A) (A) (A) (A) (A) (A) (A)
                 (A) (A) (A) (A) (A) (A) (A) (A) (A) (A) (A) (A)
                 (A) (A) (A) (A) (A) (A) (A) (A) (A) (A) (A) (A)
                 (A) (A) (A) (A) (A) (A) (A) (A) (A) (A) (A) (A)
                 (A) (A) (A) (A) (A) (A) (A) (A) (A) (A) (A) (A)
                 (A) (A) (A) (A) (A) (A) (A) (A) (A) (A) (A) (A)
                 (A) (A) (A) (A) (A) (A) (A) (A) (A) (A) (A) (A)
                 (A) (A) (A) (A) (A) (A) (A) (A) (A) (A) (A) (A)
                 (A) (A) (A) (A) (A) (A) (A) (A) (A) (A) (A) (A)
                 (A) (A) (A) (A) (A) (A) (A) (A) (A) (A) (A) (A)
                 (A) (A) (A) (A) (A) (A) (A) (A) (A) (A) (A) (A)
                 (A) (A) (A) (A) (A) (A) (A) (A) (A) (A) (A) (A)
                 (A) (A) (A) (A) (A) (A) (A) (A) (A) (A) (A) (A)
                 (A) (A) (A) (A) (A) (A) (A) (A) (A) (A) (A) (A)
                 (A) (A) (A) (A) (A) (A) (A) (A) (A) (A) (A) (A)
                 (A) (A) (A) (A) (A) (A) (A) (A) (A) (A) (A) (A)
                 (A) (A) (A) (A) (A) (A) (A) (A) (A) (A) (A) (A)
                 (A) (A) (A) (A) (A) (A) (A) (A) (A) (A) (A) (A)
                 (A) (A) (A) (A) (A) (A) (A) (A) (A) (A) (A) (A)
                 (A) (A) (A) (A) (A) (A) (A) (A) (A) (A) (A) (A)
                 (A) (A) (A) (A) (A) (A) (A) (A) (A) (A) (A) (A)
                 (A) (A) (A) (A) (A) (A) (A) (A) (A) (A) (A) (A)
                 (A) (A) (A) (A) (A) (A) (A) (A) (A) (A) (A) (A)
                 (A) (A) (A) (A) (A) (A) (A) (A) (A) (A) (A) (A)
                 (A) (A) (A) (A) (A) (A) (A) (A) (A) (A) (A) (A)
                 (A) (A) (A) (A) (A) (A) (A) (A) (A) (A) (A) (A)
                 (A) (A) (A) (A) (A) (A) (A) (A) (A) (A) (A) (A)
                 (A) (A) (A) (A) (A) (A) (A) (A) (A) (A) (A) (A)
                 (A) (A) (A) (A) (A) (A) (A) (A) (A) (A) (A) (A)
                 (A) (A) (A) (A) (A)
 The electronic state is 2-A.
 Alpha  occ. eigenvalues --  -10.20356 -10.19423 -10.19373 -10.19280 -10.19240
 Alpha  occ. eigenvalues --  -10.19211 -10.19206 -10.19110 -10.19101 -10.19073
 Alpha  occ. eigenvalues --  -10.19062 -10.18922 -10.18791 -10.18788 -10.18630
 Alpha  occ. eigenvalues --  -10.18606 -10.18543 -10.18346 -10.18304 -10.18243
 Alpha  occ. eigenvalues --  -10.18182 -10.17906 -10.17898 -10.17843 -10.17589
 Alpha  occ. eigenvalues --  -10.17173 -10.17098 -10.15653 -10.15346 -10.15253
 Alpha  occ. eigenvalues --   -0.93138  -0.89172  -0.88491  -0.85641  -0.84404
 Alpha  occ. eigenvalues --   -0.83664  -0.80606  -0.80106  -0.78387  -0.77300
 Alpha  occ. eigenvalues --   -0.76106  -0.74815  -0.72550  -0.71123  -0.70855
 Alpha  occ. eigenvalues --   -0.67054  -0.66107  -0.64187  -0.63587  -0.62865
 Alpha  occ. eigenvalues --   -0.60656  -0.59422  -0.58971  -0.56546  -0.56079
 Alpha  occ. eigenvalues --   -0.53238  -0.52438  -0.51462  -0.51253  -0.49933
 Alpha  occ. eigenvalues --   -0.48855  -0.48059  -0.47680  -0.46599  -0.45577
 Alpha  occ. eigenvalues --   -0.45194  -0.44994  -0.44114  -0.43533  -0.43054
 Alpha  occ. eigenvalues --   -0.42911  -0.42486  -0.42230  -0.40900  -0.40616
 Alpha  occ. eigenvalues --   -0.40065  -0.39735  -0.39668  -0.39165  -0.38324
 Alpha  occ. eigenvalues --   -0.37011  -0.36250  -0.35405  -0.34969  -0.34778
 Alpha  occ. eigenvalues --   -0.34618  -0.34168  -0.33221  -0.32810  -0.32377
 Alpha  occ. eigenvalues --   -0.31415  -0.29771  -0.28019  -0.26875  -0.23716
 Alpha  occ. eigenvalues --   -0.22600  -0.22027  -0.19500  -0.16794
 Alpha virt. eigenvalues --   -0.09874  -0.05919  -0.03695  -0.02425  -0.01648
 Alpha virt. eigenvalues --   -0.00399   0.00683   0.00754   0.01403   0.01541
 Alpha virt. eigenvalues --    0.01744   0.01752   0.02448   0.02842   0.03007
 Alpha virt. eigenvalues --    0.03118   0.03950   0.04406   0.04542   0.04739
 Alpha virt. eigenvalues --    0.04906   0.05156   0.05446   0.05931   0.06466
 Alpha virt. eigenvalues --    0.06822   0.07124   0.07497   0.07800   0.08521
 Alpha virt. eigenvalues --    0.08645   0.08893   0.09089   0.09320   0.09758
 Alpha virt. eigenvalues --    0.10058   0.10428   0.10759   0.11304   0.11579
 Alpha virt. eigenvalues --    0.11877   0.12204   0.12398   0.12732   0.12993
 Alpha virt. eigenvalues --    0.13365   0.14073   0.14157   0.14374   0.14628
 Alpha virt. eigenvalues --    0.15051   0.15349   0.15535   0.15796   0.15937
 Alpha virt. eigenvalues --    0.16213   0.16354   0.16628   0.16801   0.16987
 Alpha virt. eigenvalues --    0.17305   0.17600   0.17690   0.18120   0.18344
 Alpha virt. eigenvalues --    0.18455   0.18616   0.19094   0.19155   0.19542
 Alpha virt. eigenvalues --    0.19611   0.19761   0.20038   0.20180   0.20571
 Alpha virt. eigenvalues --    0.20748   0.20874   0.21171   0.21398   0.21423
 Alpha virt. eigenvalues --    0.21702   0.21866   0.21957   0.22127   0.22453
 Alpha virt. eigenvalues --    0.22587   0.23348   0.23374   0.23546   0.23821
 Alpha virt. eigenvalues --    0.24069   0.24133   0.24468   0.24552   0.24734
 Alpha virt. eigenvalues --    0.25177   0.25369   0.25543   0.25684   0.25901
 Alpha virt. eigenvalues --    0.26150   0.26170   0.26439   0.26656   0.27133
 Alpha virt. eigenvalues --    0.27552   0.27708   0.27870   0.28285   0.28362
 Alpha virt. eigenvalues --    0.28966   0.29210   0.29419   0.29648   0.29699
 Alpha virt. eigenvalues --    0.30111   0.30316   0.30616   0.31188   0.31317
 Alpha virt. eigenvalues --    0.31914   0.31927   0.32579   0.32757   0.33276
 Alpha virt. eigenvalues --    0.33583   0.33838   0.34128   0.34440   0.34795
 Alpha virt. eigenvalues --    0.35399   0.35553   0.36094   0.36538   0.37175
 Alpha virt. eigenvalues --    0.37372   0.37571   0.37822   0.39077   0.39673
 Alpha virt. eigenvalues --    0.40223   0.40922   0.40946   0.41742   0.42855
 Alpha virt. eigenvalues --    0.43022   0.43677   0.44340   0.44525   0.44848
 Alpha virt. eigenvalues --    0.45453   0.45700   0.46434   0.46706   0.47477
 Alpha virt. eigenvalues --    0.48437   0.48816   0.49701   0.50255   0.50645
 Alpha virt. eigenvalues --    0.51096   0.51882   0.52104   0.52617   0.53166
 Alpha virt. eigenvalues --    0.53326   0.53968   0.54675   0.54900   0.55153
 Alpha virt. eigenvalues --    0.55482   0.55721   0.56009   0.56570   0.56845
 Alpha virt. eigenvalues --    0.57157   0.57571   0.58142   0.58619   0.58991
 Alpha virt. eigenvalues --    0.59221   0.59648   0.59767   0.60082   0.60318
 Alpha virt. eigenvalues --    0.60672   0.60865   0.61569   0.61836   0.62216
 Alpha virt. eigenvalues --    0.62700   0.63034   0.63759   0.64163   0.64273
 Alpha virt. eigenvalues --    0.64945   0.65114   0.65483   0.65795   0.66057
 Alpha virt. eigenvalues --    0.66536   0.66747   0.67237   0.68152   0.68367
 Alpha virt. eigenvalues --    0.68439   0.68615   0.68807   0.69326   0.70091
 Alpha virt. eigenvalues --    0.70472   0.70837   0.71146   0.71476   0.71733
 Alpha virt. eigenvalues --    0.72070   0.72508   0.72883   0.73322   0.73546
 Alpha virt. eigenvalues --    0.74036   0.74221   0.74648   0.75169   0.75670
 Alpha virt. eigenvalues --    0.75891   0.75994   0.76456   0.76598   0.77056
 Alpha virt. eigenvalues --    0.77674   0.78041   0.78458   0.79239   0.79615
 Alpha virt. eigenvalues --    0.81045   0.81463   0.81984   0.82501   0.83135
 Alpha virt. eigenvalues --    0.83883   0.83976   0.85252   0.85794   0.87228
 Alpha virt. eigenvalues --    0.87798   0.88275   0.89167   0.89713   0.90102
 Alpha virt. eigenvalues --    0.90373   0.90994   0.91787   0.92024   0.92917
 Alpha virt. eigenvalues --    0.92993   0.93314   0.93815   0.94185   0.95092
 Alpha virt. eigenvalues --    0.95661   0.96157   0.96500   0.96696   0.97041
 Alpha virt. eigenvalues --    0.97381   0.97799   0.98167   0.99072   0.99534
 Alpha virt. eigenvalues --    0.99806   1.00418   1.00967   1.01033   1.01730
 Alpha virt. eigenvalues --    1.02160   1.02699   1.03214   1.03856   1.04073
 Alpha virt. eigenvalues --    1.04913   1.05116   1.05364   1.06144   1.06531
 Alpha virt. eigenvalues --    1.07061   1.07336   1.07970   1.08434   1.08916
 Alpha virt. eigenvalues --    1.09391   1.10659   1.11036   1.11923   1.12971
 Alpha virt. eigenvalues --    1.13904   1.14305   1.15165   1.16263   1.16715
 Alpha virt. eigenvalues --    1.17333   1.18061   1.18716   1.19073   1.20222
 Alpha virt. eigenvalues --    1.21140   1.22913   1.23267   1.23727   1.26894
 Alpha virt. eigenvalues --    1.29132   1.29832   1.30582   1.32130   1.34433
 Alpha virt. eigenvalues --    1.35453   1.36359   1.38060   1.39352   1.40328
 Alpha virt. eigenvalues --    1.40792   1.41945   1.42487   1.43219   1.43451
 Alpha virt. eigenvalues --    1.45277   1.45774   1.46316   1.46722   1.47705
 Alpha virt. eigenvalues --    1.47859   1.48424   1.48665   1.49123   1.49642
 Alpha virt. eigenvalues --    1.49839   1.50673   1.51503   1.51981   1.52393
 Alpha virt. eigenvalues --    1.53436   1.54200   1.54634   1.55282   1.55743
 Alpha virt. eigenvalues --    1.57309   1.57664   1.57995   1.58719   1.59864
 Alpha virt. eigenvalues --    1.60262   1.60889   1.61507   1.62146   1.63399
 Alpha virt. eigenvalues --    1.64021   1.64836   1.65253   1.66247   1.67447
 Alpha virt. eigenvalues --    1.67687   1.68788   1.69563   1.70265   1.70499
 Alpha virt. eigenvalues --    1.71292   1.71820   1.72474   1.73137   1.73463
 Alpha virt. eigenvalues --    1.73767   1.74912   1.75756   1.76028   1.76327
 Alpha virt. eigenvalues --    1.76724   1.78482   1.79025   1.79703   1.80171
 Alpha virt. eigenvalues --    1.80525   1.81880   1.82304   1.82396   1.84229
 Alpha virt. eigenvalues --    1.84527   1.85294   1.86079   1.86614   1.87135
 Alpha virt. eigenvalues --    1.87425   1.87816   1.88082   1.88364   1.88947
 Alpha virt. eigenvalues --    1.89553   1.89849   1.90685   1.91390   1.91996
 Alpha virt. eigenvalues --    1.92364   1.92867   1.93934   1.94627   1.94722
 Alpha virt. eigenvalues --    1.95571   1.95955   1.96682   1.97197   1.97783
 Alpha virt. eigenvalues --    1.98939   1.99213   2.00676   2.01226   2.02191
 Alpha virt. eigenvalues --    2.02447   2.03144   2.03659   2.04116   2.05137
 Alpha virt. eigenvalues --    2.05506   2.06663   2.07172   2.07850   2.08935
 Alpha virt. eigenvalues --    2.10322   2.10805   2.11230   2.12637   2.13094
 Alpha virt. eigenvalues --    2.14017   2.14841   2.16324   2.17149   2.17442
 Alpha virt. eigenvalues --    2.18672   2.19623   2.20653   2.20978   2.21757
 Alpha virt. eigenvalues --    2.22403   2.22680   2.23978   2.24548   2.25599
 Alpha virt. eigenvalues --    2.26486   2.27437   2.28271   2.28644   2.29740
 Alpha virt. eigenvalues --    2.31802   2.32113   2.35295   2.36218   2.37092
 Alpha virt. eigenvalues --    2.38376   2.40641   2.42049   2.42359   2.42568
 Alpha virt. eigenvalues --    2.43140   2.44854   2.45818   2.46953   2.47861
 Alpha virt. eigenvalues --    2.49197   2.49693   2.51191   2.52914   2.54833
 Alpha virt. eigenvalues --    2.56097   2.57224   2.57659   2.58614   2.59847
 Alpha virt. eigenvalues --    2.60936   2.61059   2.63173   2.64065   2.64406
 Alpha virt. eigenvalues --    2.64716   2.65687   2.66166   2.66857   2.68648
 Alpha virt. eigenvalues --    2.69150   2.70270   2.71123   2.72075   2.72890
 Alpha virt. eigenvalues --    2.73329   2.73355   2.73761   2.74567   2.74766
 Alpha virt. eigenvalues --    2.75222   2.75860   2.76604   2.76617   2.77198
 Alpha virt. eigenvalues --    2.77309   2.77785   2.78159   2.78622   2.78912
 Alpha virt. eigenvalues --    2.79372   2.80428   2.80608   2.81027   2.82521
 Alpha virt. eigenvalues --    2.83828   2.84578   2.84700   2.85624   2.86211
 Alpha virt. eigenvalues --    2.86328   2.87327   2.87833   2.89298   2.90282
 Alpha virt. eigenvalues --    2.91020   2.91630   2.91990   2.93365   2.94208
 Alpha virt. eigenvalues --    2.95265   2.99415   3.00017   3.00291   3.01013
 Alpha virt. eigenvalues --    3.02179   3.04566   3.06090   3.07246   3.08055
 Alpha virt. eigenvalues --    3.08404   3.13187   3.14479   3.16078   3.16871
 Alpha virt. eigenvalues --    3.17850   3.20072   3.21018   3.21156   3.22685
 Alpha virt. eigenvalues --    3.23283   3.24200   3.25779   3.27386   3.29129
 Alpha virt. eigenvalues --    3.30750   3.31975   3.36810   3.38968   3.39867
 Alpha virt. eigenvalues --    3.40289   3.41740   3.42209   3.42545   3.44376
 Alpha virt. eigenvalues --    3.44584   3.46393   3.46812   3.47914   3.48878
 Alpha virt. eigenvalues --    3.49625   3.51054   3.51641   3.53633   3.54596
 Alpha virt. eigenvalues --    3.56052   3.57235   3.57303   3.61147   3.62714
 Alpha virt. eigenvalues --    3.64872   3.65850   3.69092   3.71223   3.73870
 Alpha virt. eigenvalues --    3.77548   3.82823   3.86920   3.87950   3.93110
 Alpha virt. eigenvalues --    3.96820   4.02556   4.04527   4.06824   4.07092
 Alpha virt. eigenvalues --    4.07937   4.10767   4.12006   4.17117   4.18806
 Alpha virt. eigenvalues --    4.22474   4.25789   4.30537   4.36486   4.39827
 Alpha virt. eigenvalues --    4.53392   4.67536   4.77621   4.78908   4.80158
 Alpha virt. eigenvalues --    4.82643   4.84823   4.87734   4.91968   4.95884
 Alpha virt. eigenvalues --   23.40856  23.66535  23.71333  23.81114  23.85210
 Alpha virt. eigenvalues --   23.87924  23.91054  23.91731  23.93849  23.94310
 Alpha virt. eigenvalues --   23.97364  23.98863  23.99435  24.00467  24.02793
 Alpha virt. eigenvalues --   24.03216  24.03952  24.04338  24.06387  24.07140
 Alpha virt. eigenvalues --   24.08273  24.08443  24.10125  24.14482  24.15280
[...]
 ,-0.00000252,-0.00000167,0.00000093,-0.00000556,-0.00000145,0.00000430
 ,-0.00000195,0.00000109,0.00000359,-0.00000227,-0.00000149,-0.00001499
 ,-0.00000519,0.00000681,0.00073098,-0.00040383,-0.00025749,0.19181215,
 -0.00001882,0.00002216,-0.00000120,-0.00003527,-0.00003708,0.00000304,
 -0.00002034,0.00000231,-0.00000651,0.00005692,-0.00001173,0.00000605,-
 0.00000762,-0.00003487,-0.00000550,-0.00002983,0.00002950,0.00000071,0
 .00006254,0.00009446,-0.00001243,0.00019857,-0.00049423,-0.00005674,-0
 .00014781,0.00006007,0.00002560,-0.00003670,-0.00007470,-0.00000405,-0
 .00006703,-0.00003401,0.00001547,0.00064636,0.00004816,-0.00013087,0.0
 0375044,-0.00383136,0.00053419,-0.00136761,-0.00021865,0.00032185,-0.0
 0000125,-0.00002859,0.00000181,-0.00001163,0.00000832,0.00000116,-0.00
 001598,-0.00003523,0.00000515,0.00000921,-0.00002021,-0.00001518,-0.02
 194620,-0.01741877,0.00421318,0.00188561,0.00062569,0.00080936,0.00628
 490,0.00872555,-0.00087035,-0.13269396,-0.20300307,0.02861462,0.000021
 50,-0.00000740,0.00000716,-0.00000159,0.00001267,0.00000593,0.00001201
 ,-0.00000393,0.00000838,-0.00001342,-0.00002438,-0.00005000,0.00011420
 ,0.00011806,-0.00000495,-0.00002075,-0.00001623,0.00000064,0.00001104,
 0.00000164,0.00000506,-0.00000619,0.00001330,0.00000754,0.00000721,-0.
 00000075,-0.00000157,-0.00001336,-0.00000379,0.00000358,0.00000208,-0.
 00001068,-0.00000674,-0.00000218,0.00000277,-0.00000390,-0.00000194,0.
 00000445,-0.00000161,-0.00000426,-0.00000211,-0.00000228,-0.00000498,-
 0.00000019,-0.00000277,-0.00000611,-0.00000155,-0.00000049,-0.00000307
 ,-0.00000880,-0.00000113,-0.00001521,-0.00001945,-0.00000239,0.0000148
 3,-0.00000654,-0.00000507,0.00005818,-0.00001256,0.00002010,0.00032911
 ,0.00090811,-0.00040063,0.14306175,0.21361420,-0.00005520,-0.00003475,
 -0.00001194,0.00005441,0.00009758,-0.00000288,0.00004672,0.00004426,0.
 00003419,0.00002260,-0.00006570,-0.00002222,0.00000182,0.00004142,0.00
 000886,0.00003841,0.00000113,-0.00000131,0.00013302,-0.00016864,0.0000
 4946,-0.00019850,-0.00016192,-0.00053469,-0.00000676,0.00002838,-0.000
 05736,-0.00003605,-0.00000604,0.00004937,0.00010117,0.00020561,-0.0003
 7971,-0.00033648,-0.00053226,-0.00012626,0.00067219,0.00039151,0.00549
 026,0.00007142,0.00037393,0.00015488,0.00001652,0.00000755,0.00000471,
 -0.00001904,-0.00001883,-0.00001050,-0.00003273,-0.00001825,-0.0000290
 6,-0.00009297,-0.00003463,0.00001227,0.00181492,0.00162769,0.00253930,
 -0.00009049,0.00121075,0.00888307,0.00042256,0.00151453,0.00336209,0.0
 2637810,0.02869376,-0.04343769,-0.00002447,0.00000505,-0.00000264,0.00
 001334,-0.00001987,-0.00002591,-0.00006138,0.00000559,-0.00005928,-0.0
 0000434,0.00010851,0.00021638,-0.00057746,-0.00093721,-0.00013562,-0.0
 0001415,-0.00007899,-0.00018789,-0.00002264,-0.00005172,-0.00000682,0.
 00004550,0.00001125,0.00003128,-0.00000016,0.00000462,-0.00000116,0.00
 005105,0.00002035,-0.00000192,-0.00005364,0.00002340,0.00005842,-0.000
 00574,0.00000189,0.00000068,-0.00000684,-0.00000188,0.00000080,-0.0000
 0019,-0.00000151,0.00000701,0.00000275,-0.00000149,-0.00000047,0.00000
 112,0.00000218,-0.00000189,0.00000233,0.00000239,0.00000171,-0.0000000
 7,0.00000009,0.00000962,-0.00000115,0.00000310,0.00000100,0.00003413,0
 .00002493,0.00019670,-0.00041762,-0.00039983,-0.00279210,-0.02896710,-
 0.03223381,0.03206714,0.00036571,-0.00013395,0.00010568,-0.00016096,-0
 .00037674,0.00000729,-0.00045187,-0.00044747,0.00000749,-0.00033273,0.
 00050575,0.00000706,-0.00001190,0.00010288,-0.00001253,0.00002313,-0.0
 0007001,-0.00002658,-0.00020228,0.00129301,0.00048307,0.00043851,0.000
 31495,-0.00012884,-0.00006064,-0.00032193,-0.00007864,0.00047108,0.000
 06178,-0.00000366,-0.00079899,-0.00215057,0.00115117,-0.00516628,0.005
 50655,-0.01167861,-0.00023849,0.00126784,0.00018752,-0.00022452,-0.000
 22180,0.00017253,-0.00010206,0.00028682,-0.00000205,-0.00017758,-0.000
 34528,-0.00012603,0.00058024,-0.00005277,-0.00048887,0.00060048,-0.000
 05569,-0.00024104,-0.00007240,0.00071282,-0.00028659,-0.06931341,-0.00
 588332,-0.09112074,-0.01854367,-0.00839597,-0.01903594,0.00135536,-0.0
 0345928,0.00043310,0.00004328,0.00013135,0.00001434,-0.00013495,-0.000
 12018,-0.00003802,0.00015091,0.00051950,0.00017723,0.00048522,0.000322
 35,0.00110365,0.00245590,0.00161213,0.02427302,-0.00024929,0.00008953,
 0.00014458,-0.00036345,-0.00008173,-0.00005815,0.00023699,-0.00017465,
 0.00026618,-0.00003539,0.00001933,-0.00005400,-0.00018338,0.00034604,-
 0.00010051,-0.00254373,0.00061072,0.00280248,-0.00002558,-0.00002204,0
 .00001185,0.00001466,-0.00000698,-0.00000481,0.00000697,0.00000125,0.0
 0000037,-0.00000057,0.00000597,0.00001469,0.00000827,-0.00000314,0.000
 00096,0.00000171,0.00001258,0.00000646,0.00000861,0.00001593,0.0000005
 5,-0.00001532,-0.00000550,0.00001232,-0.00002398,0.00003146,-0.0000300
 9,0.00001060,0.00000283,-0.00017262,-0.00018670,0.00012241,0.00123918,
 0.09185280,-0.00006355,0.00003830,0.00000802,0.00038208,-0.00072709,-0
 .00007137,-0.00080100,0.00003353,0.00015835,0.00019289,-0.00008201,0.0
 0013493,0.00002369,0.00017221,0.00001503,0.00008001,-0.00005548,0.0000
 2158,-0.00044740,0.00109456,-0.00199699,0.00030107,-0.00047091,0.00019
 314,0.00009655,0.00024232,0.00011111,-0.00009884,-0.00022374,-0.000045
 28,0.00071370,-0.00125405,0.00080818,0.01366270,-0.00253009,0.02666440
 ,-0.00103998,-0.00254376,0.00069760,0.00002142,0.00018257,-0.00075079,
 -0.00005701,-0.00007344,0.00002312,-0.00027505,-0.00007529,-0.00022030
 ,0.00023171,0.00020012,-0.00017875,0.00064939,0.00016817,0.00046078,0.
 00021025,0.00129282,-0.00069258,-0.00656654,-0.04311099,-0.01546147,-0
 .01538525,-0.00184112,-0.01951610,0.00045395,-0.00286549,-0.00016485,-
 0.00001258,-0.00002802,0.00001496,0.00015773,-0.00004402,-0.00002978,0
 .00001843,0.00001109,0.00013477,-0.00118728,0.00102542,0.00055089,-0.0
 0135959,0.00047910,-0.00817125,0.00010619,-0.00008792,-0.00031313,0.00
 020629,0.00016272,0.00023399,-0.00028671,0.00003679,-0.00002042,0.0000
 3227,-0.00004136,0.00000169,0.00016220,-0.00015950,0.00004701,0.000614
 38,-0.00025779,-0.00042129,0.00001493,-0.00000923,-0.00000182,0.000003
 84,0.00000397,-0.00000472,0.00000927,-0.00001539,-0.00000500,-0.000000
 96,0.00001557,0.00000754,-0.00000788,-0.00000690,-0.00000429,0.0000063
 9,-0.00000158,-0.00001252,-0.00000347,0.00000683,-0.00000549,0.0000156
 8,-0.00001995,-0.00001118,0.00009609,-0.00012432,0.00000117,0.00004785
 ,0.00006929,0.00008500,-0.00016937,0.00018078,0.00128915,0.00855751,0.
 05110609,0.00014015,-0.00001905,0.00005827,0.00005545,-0.00039185,0.00
 007941,-0.00039276,0.00014325,-0.00006959,-0.00020071,-0.00002170,-0.0
 0002259,-0.00003176,0.00012553,0.00000692,0.00015139,-0.00002476,0.000
 00324,-0.00024360,0.00095931,0.00040939,0.00047365,0.00029367,-0.00020
 522,0.00006573,-0.00015584,-0.00004240,0.00011030,0.00009546,0.0000232
 9,-0.00112889,-0.00108812,0.00134961,-0.00476588,0.00489874,-0.0068658
 5,0.00115934,0.00114832,-0.00110771,-0.00020517,-0.00053517,0.00019109
 ,0.00006685,0.00004616,0.00004526,-0.00032137,0.00000619,-0.00018498,0
 .00056457,0.00018049,0.00004653,0.00036342,0.00017124,-0.00026676,-0.0
 0097629,0.00082479,-0.00025725,-0.08299094,-0.01341457,-0.23340063,-0.
 00457543,-0.00313728,0.00348401,0.00226794,-0.00203191,-0.00031819,-0.
 00010716,0.00006747,-0.00006649,0.00026323,-0.00026668,-0.00010665,0.0
 0019644,0.00032476,0.00055435,-0.00183582,0.00004693,0.00084727,-0.001
 29187,-0.00176756,-0.02202996,0.00047537,0.00017944,-0.00077195,-0.000
 01525,-0.00040860,0.00031406,-0.00001083,-0.00007023,-0.00047097,0.000
 06907,-0.00004534,0.00006603,0.00019435,-0.00053133,0.00002766,0.00256
 031,-0.00090727,-0.00150128,0.00001047,0.00002660,0.00001742,0.0000070
 4,0.00001401,-0.00000720,0.00001036,-0.00001051,0.00002022,0.00000674,
 0.00001611,-0.00000022,-0.00000020,-0.00000160,-0.00000512,0.00000790,
 -0.00000029,-0.00000233,0.00000905,-0.00000027,-0.00000462,-0.00000649
 ,0.00001023,0.00000397,-0.00003395,0.00005413,-0.00002588,-0.00000736,
 0.00001408,0.00010571,-0.00011514,-0.00000193,-0.00026750,0.09056455,0
 .01558181,0.25993843,-0.00000969,0.00005116,-0.00001369,0.00000686,-0.
 00006983,0.00002564,-0.00004460,-0.00018126,0.00000484,0.00002862,0.00
 005507,-0.00003415,0.00001479,-0.00002359,-0.00000182,-0.00003635,-0.0
 0000728,-0.00000984,-0.00027506,0.00007383,0.00016898,-0.00006644,-0.0
 0014266,0.00001756,0.00003776,0.00007650,-0.00002318,-0.00002798,-0.00
 004527,0.00000415,0.00100900,-0.00135359,0.00042277,-0.00431090,-0.001
 92053,0.00000074,-0.00045641,-0.00070499,0.00005404,0.00014634,0.00039
 668,-0.00005590,-0.00003047,-0.00004923,-0.00000063,-0.00001430,0.0000
 5530,0.00001133,0.00003638,-0.00006507,-0.00000319,0.00023196,0.000112
 45,-0.00006814,-0.00514726,0.00014802,0.00078441,0.00845419,-0.0206224
 5,0.00386011,-0.07609729,0.07032693,-0.01124920,-0.00488435,0.03086500
 ,-0.00432454,0.00000890,-0.00002145,0.00000803,-0.00000764,0.00007370,
 -0.00001446,-0.00008639,-0.00014383,0.00002098,0.00004801,0.00007714,-
 0.00011076,0.00105475,-0.00007759,-0.00008040,-0.00091975,0.00024278,0
 .00145648,0.00000950,-0.00015364,-0.00006335,0.00022093,0.00032025,-0.
 00022619,-0.00007305,0.00013652,0.00003571,-0.00001092,-0.00008686,-0.
 00009409,0.00002405,0.00005705,-0.00003600,-0.00000172,0.00002389,0.00
 002921,-0.00000810,-0.00000298,-0.00000475,0.00000249,0.00000829,-0.00
 000143,0.00000219,0.00000334,-0.00000239,0.00000017,-0.00000226,0.0000
 0026,-0.00000649,-0.00000353,0.00000400,0.00000189,0.00000172,0.000002
 25,0.00000299,-0.00001240,-0.00000174,0.00005416,-0.00007935,0.0000119
 5,-0.00039068,0.00143119,0.00000686,0.00098083,-0.00017027,-0.00029963
 ,0.00063618,0.00063719,-0.00051871,0.08080982,-0.00005512,0.00007588,-
 0.00002337,0.00000173,-0.00010460,0.00002280,-0.00001833,-0.00011338,0
 .00000211,0.00006583,-0.00002909,-0.00002954,0.00000162,-0.00003816,-0
 .00000082,-0.00002083,0.00001826,-0.00000079,-0.00038442,0.00009622,0.
 00019325,0.00003605,-0.00015624,0.00002230,0.00001755,0.00011737,-0.00
 000437,-0.00008444,-0.00007196,-0.00000047,0.00111743,-0.00110608,0.00
 029543,-0.00435532,-0.00012688,-0.00070750,-0.00033754,0.00012498,-0.0
 0001677,0.00008423,0.00009957,-0.00004538,-0.00002207,-0.00009117,0.00
 000552,0.00003136,0.00007537,0.00000501,-0.00002270,-0.00020144,-0.000
 00024,0.00021382,0.00014665,-0.00009173,0.00091992,0.00223294,0.000644
 04,0.00728699,-0.01531604,0.00359696,0.07264901,-0.31101278,0.04173109
 ,-0.00023903,-0.00437354,0.00177013,0.00000479,0.00000205,0.00000654,-
 0.00001635,0.00004623,-0.00004669,-0.00013726,-0.00011434,0.00002149,0
 .00002096,0.00028231,0.00020905,0.00061528,-0.00059726,-0.00079792,0.0
 0004622,-0.00014177,-0.00101991,0.00005192,-0.00020560,0.00007776,-0.0
 0005307,0.00054273,-0.00043726,-0.00000567,-0.00003368,0.00003339,0.00
 050319,0.00031732,0.00005062,0.00004266,0.00003513,-0.00000773,0.00002
 683,0.00003307,0.00000753,-0.00001625,0.00000161,-0.00000684,-0.000003
 59,0.00000539,-0.00000087,-0.00000248,0.00000145,-0.00000487,-0.000005
 89,-0.00000367,-0.00000032,-0.00000731,-0.00001025,-0.00000273,-0.0000
 0196,-0.00000793,0.00000153,0.00000985,-0.00001031,-0.00000477,0.00002
 939,-0.00002410,0.00000275,-0.00004023,-0.00031518,0.00004523,0.000257
 26,0.00090399,-0.00097328,-0.00011253,0.00011156,-0.00036208,-0.079570
 88,0.32798441,0.00002344,-0.00003225,0.00001524,0.00002934,-0.00000610
 ,0.00000749,-0.00004881,-0.00005696,-0.00001648,-0.00003679,0.00002844
 ,-0.00002940,0.00002586,0.00004724,-0.00000076,0.00001761,-0.00004627,
 -0.00000438,0.00000982,0.00012509,-0.00004409,-0.00001185,-0.00001701,
 0.00003415,0.00005440,-0.00002741,0.00006245,0.00001328,0.00002746,-0.
 00000587,-0.00017549,-0.00005818,0.00030472,0.00057641,0.00088297,0.00
 123090,-0.00053213,-0.00042510,-0.00058182,-0.00000795,-0.00000955,-0.
 00047035,-0.00001700,0.00004543,-0.00001040,0.00002399,-0.00007470,-0.
 00000935,-0.00011324,0.00007566,-0.00003984,0.00005168,-0.00000182,-0.
 00002584,0.00040126,0.00165739,0.00687952,-0.00009164,0.00071005,0.001
 23918,-0.01348125,0.04395593,-0.03374579,0.00301955,-0.00222364,0.0055
 7440,-0.00002799,0.00000721,-0.00001227,0.00000541,-0.00003612,0.00000
 613,0.00000863,0.00006341,-0.00000742,0.00011882,-0.00015973,0.0001939
 3,-0.00127199,-0.00005723,0.00033988,0.00087401,0.00029543,-0.00036259
 ,-0.00015326,0.00006444,-0.00021646,0.00023707,-0.00028940,0.00030321,
 0.00002211,0.00002243,0.00004250,-0.00031714,-0.00007464,0.00001558,0.
 00009250,-0.00000608,-0.00002645,-0.00005563,-0.00001784,-0.00003350,-
 0.00000701,0.00000194,0.00000670,-0.00000514,-0.00000498,0.00000273,-0
 .00000399,-0.00000569,0.00000534,0.00000010,-0.00000278,-0.00000060,0.
 00000174,0.00000051,0.00001065,0.00000322,0.00000345,-0.00000601,-0.00
 000158,0.00000169,0.00000215,0.00002158,-0.00000350,0.00003112,0.00007
 771,0.00007426,0.00009097,-0.00045351,-0.00075585,-0.00511047,0.000539
 81,0.00088966,0.00036018,0.00896475,-0.04411370,0.02568828,0.00001910,
 -0.00007948,0.00000614,0.00002299,0.00001758,0.00000420,0.00004216,0.0
 0008679,0.00000916,-0.00003337,-0.00012785,-0.00001468,-0.00001575,0.0
 0007859,0.00001167,0.00009291,-0.00001896,0.00000438,-0.00000573,-0.00
 013207,-0.00000659,0.00001600,0.00001234,-0.00000196,0.00000999,-0.000
 00105,0.00000328,-0.00003073,0.00000903,0.00000630,-0.00011722,0.00007
 804,0.00000970,0.00012012,-0.00005993,-0.00019622,0.00003441,0.0001234
 6,0.00000066,0.00006421,-0.00012352,0.00000716,0.00003069,0.00009290,-
 0.00000183,-0.00002062,-0.00004382,-0.00007291,0.00035562,0.00035596,-
 0.00001532,0.00004688,-0.00008237,0.00004366,-0.00014060,-0.00021514,-
 0.00013457,-0.00019195,-0.00013289,0.00095969,-0.00067745,0.00007129,0
 .00166871,-0.00029067,0.00049764,0.00001368,0.00000551,0.00006782,-0.0
 0000361,-0.00003311,-0.00016339,0.00000977,0.00029879,0.00073126,0.000
 53664,0.00003262,0.00096624,0.00065087,0.00547440,0.00098359,0.0004763
 6,-0.25682509,-0.10083747,-0.03024849,-0.00119251,0.00301373,-0.001522
 79,-0.01546546,-0.00800280,-0.00104540,0.00097762,0.00020726,-0.000193
 75,-0.01363123,-0.00620911,-0.00023569,-0.00005712,-0.00050325,-0.0002
 4175,-0.00015049,-0.00056231,-0.00090770,0.00002920,0.00001473,-0.0000
 0757,-0.00000990,-0.00001398,0.00000754,-0.00000420,0.00000654,0.00000
 754,-0.00000566,-0.00000267,-0.00000333,0.00000331,-0.00000514,-0.0000
 0222,0.00000112,-0.00000599,-0.00000179,0.00000542,0.00000002,-0.00000
 262,0.00000432,-0.00000586,-0.00001068,-0.00000795,0.00001324,-0.00001
 537,0.00000152,0.00001451,0.00016156,-0.00012647,0.00005682,-0.0000180
 9,-0.00091693,0.00147937,0.00159930,0.28226127,-0.00006379,0.00002644,
 -0.00001113,0.00009765,0.00014423,0.00002346,-0.00006561,-0.00013830,-
 0.00002046,-0.00004647,0.00012011,0.00001530,0.00004672,0.00006645,0.0
 0000510,-0.00000115,-0.00004786,-0.00000354,0.00013223,0.00010322,-0.0
 0003322,-0.00000249,0.00002012,0.00000404,0.00003303,-0.00011000,-0.00
 002609,0.00012302,0.00004240,-0.00000147,-0.00007218,0.00007894,-0.000
 00044,0.00001578,0.00001170,0.00014289,-0.00026375,-0.00008821,-0.0000
 3114,0.00002977,0.00000209,-0.00000672,-0.00017699,-0.00005373,-0.0000
 5069,0.00008843,-0.00039348,0.00012233,-0.00188367,-0.00003157,-0.0005
 5169,-0.00018112,-0.00000767,-0.00002904,-0.00001133,0.00019844,-0.000
 09950,-0.00129024,0.00090920,0.00004276,-0.00001787,0.00050554,0.00071
 553,0.00056423,-0.00002096,0.00008441,-0.00010675,-0.00008185,-0.00004
 745,0.00005428,0.00014388,0.00002476,0.00028391,-0.00082039,-0.0000878
 9,0.00267746,-0.00559675,-0.00040570,-0.02713597,-0.01259211,-0.004351
 68,-0.10138423,-0.09788083,-0.01314625,0.00198336,-0.00174836,0.002725
 11,0.01843016,0.00904031,0.00084778,-0.00031903,0.00091026,-0.00046151
 ,-0.00042678,-0.00012965,0.00050836,0.00013663,-0.00014862,0.00043040,
 0.00014499,0.00044378,0.00102995,-0.00009496,-0.00001381,-0.00001048,-
 0.00000572,0.00000423,-0.00002164,-0.00001890,-0.00006251,0.00001761,0
 .00000002,-0.00000491,-0.00000240,0.00000597,0.00000011,0.00000080,0.0
 0000736,0.00000218,0.00000084,-0.00000069,-0.00000261,0.00000522,0.000
 01173,-0.00000224,0.00000841,-0.00000090,0.00004378,-0.00000795,0.0000
 2853,-0.00001536,0.00000002,-0.00001178,0.00001563,-0.00003481,0.00033
 680,0.00095098,-0.00047357,0.10835032,0.10620776,0.00002078,-0.0000471
 6,0.00001260,0.00002839,0.00004510,0.00000424,-0.00005076,-0.00008194,
 0.00000098,-0.00006103,0.00009225,0.00000310,0.00002461,0.00006891,0.0
 0000916,0.00001308,-0.00005079,-0.00000562,0.00010180,0.00007486,-0.00
 003846,-0.00001224,0.00002878,0.00001559,0.00001272,-0.00008257,-0.000
 02218,0.00010269,0.00002726,-0.00000181,-0.00013014,0.00009669,-0.0000
 8094,0.00019281,-0.00002963,0.00017188,-0.00022882,-0.00005132,0.00000
 107,0.00001037,0.00002893,-0.00002185,-0.00006970,0.00004391,-0.000043
 69,0.00002617,-0.00024955,0.00004806,-0.00066434,0.00004907,-0.0000528
 6,-0.00007565,0.00001205,-0.00000839,-0.00008308,0.00019769,-0.0000514
 0,-0.00054447,0.00013898,0.00011476,0.00058604,-0.00097568,-0.00027275
 ,0.00032345,0.00019403,-0.00006052,-0.00002315,-0.00004114,-0.00000352
 ,0.00002194,-0.00002978,0.00000442,0.00005064,-0.00022894,0.00046959,0
 .00054456,-0.00218022,-0.00000087,-0.00861191,-0.00425263,-0.00220886,
 -0.02624145,-0.01152099,-0.04713925,-0.00122807,0.00390176,-0.00115008
 ,-0.02160697,-0.01047888,-0.00466712,0.00107528,-0.00021254,0.00068945
 ,0.02693144,0.01293750,0.00313115,0.00012409,-0.00000773,-0.00006615,-
 0.00058477,-0.00052318,-0.00094023,0.00001551,0.00001208,-0.00001068,-
 0.00000998,-0.00000540,0.00000365,-0.00000500,-0.00002470,-0.00000026,
 0.00000193,-0.00000303,-0.00000142,0.00000467,0.00000459,0.00000235,0.
 00000423,0.00000538,0.00000244,-0.00000354,-0.00000074,0.00000557,0.00
 000226,0.00000167,0.00001172,-0.00001602,0.00006741,-0.00000165,0.0000
 2034,-0.00003266,0.00002807,-0.00003886,-0.00003450,0.00004904,0.00134
 314,-0.00004460,-0.00168724,0.02870698,0.01316139,0.05375894\\0.000010
 04,0.00000652,0.00000463,-0.00001259,0.00001210,0.00000093,0.00000734,
 -0.00001098,-0.00000341,-0.00000215,0.00002002,0.00000628,0.,-0.000007
 06,-0.00000047,-0.00000679,-0.00000654,0.00000480,0.00000495,-0.000003
 63,-0.00000715,-0.00001528,0.00000760,0.00000340,0.00000384,-0.0000106
 0,0.00000770,0.00000865,-0.00000212,-0.00000129,0.00000519,-0.00000044
 ,-0.00000751,-0.00001146,0.00000981,0.00000327,0.00000459,-0.00000605,
 0.00000016,0.00000217,0.00000654,0.00000233,-0.00000477,-0.00000278,0.
 00000250,0.00000242,0.00000340,-0.00000187,0.00000195,0.00000354,-0.00
 000245,-0.00000352,-0.00001430,0.00000259,-0.00000021,0.00000371,0.000
 00299,0.00001147,-0.00000583,0.00000029,-0.00000781,-0.00000035,-0.000
 00806,0.00000369,-0.00000454,-0.00000448,-0.00000104,-0.00000116,0.000
 00592,-0.00000264,0.00000389,-0.00000158,0.00000157,-0.00000778,-0.000
 00206,0.00000076,0.00000169,0.00000449,-0.00000621,0.00000143,-0.00000
 601,0.00000573,-0.00000463,0.00000528,-0.00001047,0.00000020,-0.000002
 73,0.00000009,0.00001182,-0.00000301,0.00000163,-0.00000007,-0.0000002
 4,0.00000193,-0.00000150,-0.00000406,-0.00000072,0.00000220,0.00000354
 ,-0.00000048,-0.00000253,-0.00000351,0.00000105,-0.00000105,-0.0000022
 7,0.00000075,-0.00000272,-0.00000159,-0.00000008,-0.00000103,0.0000013
 4,-0.00000083,0.00000175,0.00000257,0.00000199,0.00000017,0.00000320,-
 0.00000182,-0.00000038,0.00000231,-0.00000013,0.00000160,0.00000049,0.
 00000010,-0.00000172,-0.00000011,-0.00000043,-0.00000146,-0.00000844,-
 0.00000087,0.00000063,0.00000023,0.00000292,-0.00000473,-0.00000417,0.
 00000310,0.00000257,0.00000966,0.00000237,0.00000478,-0.00000441\\\@


 THE FIRST AND LAST THING REQUIRED OF GENIUS IS THE LOVE OF TRUTH.

                          -- GOETHE
 Job cpu time:       2 days 11 hours 19 minutes  9.7 seconds.
 Elapsed time:       0 days  2 hours 58 minutes 26.6 seconds.
 File lengths (MBytes):  RWF=   4619 Int=      0 D2E=      0 Chk=     78 Scr=      1
 Normal termination of Gaussian 16 at Wed Jun 12 20:13:33 2019.
