 Entering Gaussian System, Link 0=/share/apps/gaussian16/g16/g16
 Initial command:
 /share/apps/gaussian16/g16/l1.exe "/home/amen01//scratch/459/Gau-28047.inp" -scrdir="/home/amen01//scratch/459/"
 Entering Link 1 = /share/apps/gaussian16/g16/l1.exe PID=     28048.
  
 Copyright (c) 1988-2017, Gaussian, Inc.  All Rights Reserved.
  
 This is part of the Gaussian(R) 16 program.  It is based on
 the Gaussian(R) 09 system (copyright 2009, Gaussian, Inc.),
 the Gaussian(R) 03 system (copyright 2003, Gaussian, Inc.),
 the Gaussian(R) 98 system (copyright 1998, Gaussian, Inc.),
 the Gaussian(R) 94 system (copyright 1995, Gaussian, Inc.),
 the Gaussian 92(TM) system (copyright 1992, Gaussian, Inc.),
 the Gaussian 90(TM) system (copyright 1990, Gaussian, Inc.),
 the Gaussian 88(TM) system (copyright 1988, Gaussian, Inc.),
 the Gaussian 86(TM) system (copyright 1986, Carnegie Mellon
 University), and the Gaussian 82(TM) system (copyright 1983,
 Carnegie Mellon University). Gaussian is a federally registered
 trademark of Gaussian, Inc.
  
 This software contains proprietary and confidential information,
 including trade secrets, belonging to Gaussian, Inc.
  
 This software is provided under written license and may be
 used, copied, transmitted, or stored only in accord with that
 written license.
  
 The following legend is applicable only to US Government
 contracts under FAR:
  
                    RESTRICTED RIGHTS LEGEND
  
 Use, reproduction and disclosure by the US Government is
 subject to restrictions as set forth in subparagraphs (a)
 and (c) of the Commercial Computer Software - Restricted
 Rights clause in FAR 52.227-19.
  
 Gaussian, Inc.
 340 Quinnipiac St., Bldg. 40, Wallingford CT 06492
  
  
 ---------------------------------------------------------------
 Warning -- This program may not be used in any manner that
 competes with the business of Gaussian, Inc. or will provide
 assistance to any competitor of Gaussian, Inc.  The licensee
 of this program is prohibited from giving any competitor of
 Gaussian, Inc. access to this program.  By using this program,
 the user acknowledges that Gaussian, Inc. is engaged in the
 business of creating and licensing software in the field of
 computational chemistry and represents and warrants to the
 licensee that it is not a competitor of Gaussian, Inc. and that
 it will not use this program in any manner prohibited above.
 ---------------------------------------------------------------
  

 Cite this work as:
 Gaussian 16, Revision B.01,
 M. J. Frisch, G. W. Trucks, H. B. Schlegel, G. E. Scuseria, 
 M. A. Robb, J. R. Cheeseman, G. Scalmani, V. Barone, 
 G. A. Petersson, H. Nakatsuji, X. Li, M. Caricato, A. V. Marenich, 
 J. Bloino, B. G. Janesko, R. Gomperts, B. Mennucci, H. P. Hratchian, 
 J. V. Ortiz, A. F. Izmaylov, J. L. Sonnenberg, D. Williams-Young, 
 F. Ding, F. Lipparini, F. Egidi, J. Goings, B. Peng, A. Petrone, 
 T. Henderson, D. Ranasinghe, V. G. Zakrzewski, J. Gao, N. Rega, 
 G. Zheng, W. Liang, M. Hada, M. Ehara, K. Toyota, R. Fukuda, 
 J. Hasegawa, M. Ishida, T. Nakajima, Y. Honda, O. Kitao, H. Nakai, 
 T. Vreven, K. Throssell, J. A. Montgomery, Jr., J. E. Peralta, 
 F. Ogliaro, M. J. Bearpark, J. J. Heyd, E. N. Brothers, K. N. Kudin, 
 V. N. Staroverov, T. A. Keith, R. Kobayashi, J. Normand, 
 K. Raghavachari, A. P. Rendell, J. C. Burant, S. S. Iyengar, 
 J. Tomasi, M. Cossi, J. M. Millam, M. Klene, C. Adamo, R. Cammi, 
 J. W. Ochterski, R. L. Martin, K. Morokuma, O. Farkas, 
 J. B. Foresman, and D. J. Fox, Gaussian, Inc., Wallingford CT, 2016.
 
 ******************************************
 Gaussian 16:  ES64L-G16RevB.01 20-Dec-2017
                12-Jun-2019 
 ******************************************
 %nprocshared=20
 Will use up to   20 processors via shared memory.
 %mem=100GB
 %chk=7-memb-carb-2a.chk
 -------------------------------------------
 # opt freq b3lyp/6-311+g(d,p) int=grid=fine
 -------------------------------------------
 1/18=20,19=15,26=3,38=1/1,3;
 2/9=110,12=2,17=6,18=5,40=1/2;
 3/5=4,6=6,7=111,11=2,25=1,30=1,71=1,74=-5,75=-4/1,2,3;
 4//1;
 5/5=2,38=5/2;
 6/7=2,8=2,9=2,10=2,28=1/1;
 7//1,2,3,16;
 1/18=20,19=15,26=3/3(2);
 2/9=110/2;
 99//99;
 2/9=110/2;
 3/5=4,6=6,7=111,11=2,25=1,30=1,71=1,74=-5,75=-4/1,2,3;
 4/5=5,16=3,69=1/1;
 5/5=2,38=5/2;
 7//1,2,3,16;
 1/18=20,19=15,26=3/3(-5);
 2/9=110/2;
 6/7=2,8=2,9=2,10=2,19=2,28=1/1;
 99/9=1/99;
 --------------
 7-memb-carb-2a
 --------------
 Symbolic Z-matrix:
 Charge =  0 Multiplicity = 1
 C                    -6.98719   0.01856  -0.12674 
 C                    -5.76079   0.61448   0.0548 
 C                    -4.60804  -0.09019   0.15842 
 C                    -4.50392  -1.46856   0.11703 
 C                    -6.97271  -1.40945  -0.14965 
 C                    -5.75116  -2.14075  -0.02324 
 C                    -3.56386   0.76521   0.2377 
 C                    -2.2446    0.35633   0.25563 
 C                    -2.0552   -1.05809   0.2602 
 C                    -3.16704  -1.95539   0.19653 
 C                    -4.04356   2.06062   0.20567 
 C                    -3.15929   3.10344   0.13912 
 C                    -1.77592   2.7803    0.12498 
 C                    -1.32112   1.42795   0.21571 
 C                    -8.03357   0.95035  -0.29093 
 C                    -7.7956    2.36395  -0.24178 
 C                    -6.49217   2.91867   0.00259 
 C                    -5.48229   1.9739    0.10725 
 C                    -0.79912   3.86059  -0.03656 
 C                    -3.65731   4.49262   0.02832 
 C                    -2.66347   5.46122  -0.5971 
 C                    -1.21678   5.08302  -0.39445 
 C                    -8.85908   3.23747  -0.43417 
 C                    -8.67062   4.61404  -0.3502 
 C                    -7.42398   5.16818  -0.03128 
 C                    -6.27633   4.34556   0.15224 
 C                    -5.0359    5.01345   0.58351 
 C                    -5.06312   6.41583   0.82428 
 C                    -7.35833   6.55706   0.14702 
 C                    -6.19767   7.17703   0.58557 
 H                    -6.18571   8.24812   0.76777 
 H                    -4.19519   6.91476   1.25292 
 H                    -4.81425   4.53402   1.58485 
 H                    -8.24113   7.17501  -0.00896 
 H                    -9.53733   5.25721  -0.49587 
 H                    -9.85749   2.86036  -0.64485 
 H                    -9.04058   0.57679  -0.46609 
 H                    -7.90504  -1.95289  -0.2847 
 H                    -5.77516  -3.22708  -0.06319 
 H                    -2.9839   -3.02711   0.176 
 H                    -1.04654  -1.46436   0.28047 
 H                    -0.25637   1.20946   0.198 
 H                     0.25538   3.63913   0.08555 
 H                    -0.48126   5.86423  -0.56682 
 H                    -2.86291   5.52722  -1.67371 
 H                    -2.76657   6.47342  -0.20081 
 

 GradGradGradGradGradGradGradGradGradGradGradGradGradGradGradGradGradGrad
 Berny optimization.
 Initialization pass.
                           ----------------------------
                           !    Initial Parameters    !
                           ! (Angstroms and Degrees)  !
 --------------------------                            --------------------------
 ! Name  Definition              Value          Derivative Info.                !
 --------------------------------------------------------------------------------
 ! R1    R(1,2)                  1.3755         estimate D2E/DX2                !
 ! R2    R(1,5)                  1.4283         estimate D2E/DX2                !
 ! R3    R(1,15)                 1.4107         estimate D2E/DX2                !
 ! R4    R(2,3)                  1.355          estimate D2E/DX2                !
 ! R5    R(2,18)                 1.3886         estimate D2E/DX2                !
 ! R6    R(3,4)                  1.3829         estimate D2E/DX2                !
 ! R7    R(3,7)                  1.3521         estimate D2E/DX2                !
 ! R8    R(4,6)                  1.4238         estimate D2E/DX2                !
 ! R9    R(4,10)                 1.425          estimate D2E/DX2                !
 ! R10   R(5,6)                  1.4293         estimate D2E/DX2                !
 ! R11   R(5,38)                 1.0876         estimate D2E/DX2                !
 ! R12   R(6,39)                 1.0873         estimate D2E/DX2                !
 ! R13   R(7,8)                  1.3813         estimate D2E/DX2                !
 ! R14   R(7,11)                 1.3817         estimate D2E/DX2                !
 ! R15   R(8,9)                  1.4271         estimate D2E/DX2                !
 ! R16   R(8,14)                 1.4152         estimate D2E/DX2                !
 ! R17   R(9,10)                 1.4302         estimate D2E/DX2                !
 ! R18   R(9,41)                 1.0876         estimate D2E/DX2                !
 ! R19   R(10,40)                1.0874         estimate D2E/DX2                !
 ! R20   R(11,12)                1.3689         estimate D2E/DX2                !
 ! R21   R(11,18)                1.4447         estimate D2E/DX2                !
 ! R22   R(12,13)                1.4207         estimate D2E/DX2                !
 ! R23   R(12,20)                1.4799         estimate D2E/DX2                !
 ! R24   R(13,14)                1.4297         estimate D2E/DX2                !
 ! R25   R(13,19)                1.4654         estimate D2E/DX2                !
 ! R26   R(14,42)                1.0871         estimate D2E/DX2                !
 ! R27   R(15,16)                1.4343         estimate D2E/DX2                !
 ! R28   R(15,37)                1.0883         estimate D2E/DX2                !
 ! R29   R(16,17)                1.4375         estimate D2E/DX2                !
 ! R30   R(16,23)                1.3896         estimate D2E/DX2                !
 ! R31   R(17,18)                1.3869         estimate D2E/DX2                !
 ! R32   R(17,26)                1.4509         estimate D2E/DX2                !
 ! R33   R(19,22)                1.3405         estimate D2E/DX2                !
 ! R34   R(19,43)                1.0844         estimate D2E/DX2                !
 ! R35   R(20,21)                1.5222         estimate D2E/DX2                !
 ! R36   R(20,27)                1.5748         estimate D2E/DX2                !
 ! R37   R(21,22)                1.509          estimate D2E/DX2                !
 ! R38   R(21,45)                1.0969         estimate D2E/DX2                !
 ! R39   R(21,46)                1.0919         estimate D2E/DX2                !
 ! R40   R(22,44)                1.0867         estimate D2E/DX2                !
 ! R41   R(23,24)                1.3919         estimate D2E/DX2                !
 ! R42   R(23,36)                1.0879         estimate D2E/DX2                !
 ! R43   R(24,25)                1.401          estimate D2E/DX2                !
 ! R44   R(24,35)                1.0891         estimate D2E/DX2                !
 ! R45   R(25,26)                1.4239         estimate D2E/DX2                !
 ! R46   R(25,29)                1.4018         estimate D2E/DX2                !
 ! R47   R(26,27)                1.4733         estimate D2E/DX2                !
 ! R48   R(27,28)                1.4232         estimate D2E/DX2                !
 ! R49   R(27,33)                1.1321         estimate D2E/DX2                !
 ! R50   R(28,30)                1.3869         estimate D2E/DX2                !
 ! R51   R(28,32)                1.089          estimate D2E/DX2                !
 ! R52   R(29,30)                1.387          estimate D2E/DX2                !
 ! R53   R(29,34)                1.0888         estimate D2E/DX2                !
 ! R54   R(30,31)                1.0865         estimate D2E/DX2                !
 ! A1    A(2,1,5)              115.2281         estimate D2E/DX2                !
 ! A2    A(2,1,15)             112.9872         estimate D2E/DX2                !
 ! A3    A(5,1,15)             131.7626         estimate D2E/DX2                !
 ! A4    A(1,2,3)              122.9067         estimate D2E/DX2                !
 ! A5    A(1,2,18)             127.4378         estimate D2E/DX2                !
 ! A6    A(3,2,18)             109.6083         estimate D2E/DX2                !
 ! A7    A(2,3,4)              125.4568         estimate D2E/DX2                !
 ! A8    A(2,3,7)              109.4175         estimate D2E/DX2                !
 ! A9    A(4,3,7)              125.0405         estimate D2E/DX2                !
 ! A10   A(3,4,6)              114.0517         estimate D2E/DX2                !
 ! A11   A(3,4,10)             114.1723         estimate D2E/DX2                !
 ! A12   A(6,4,10)             131.7632         estimate D2E/DX2                !
 ! A13   A(1,5,6)              121.2514         estimate D2E/DX2                !
 ! A14   A(1,5,38)             119.531          estimate D2E/DX2                !
 ! A15   A(6,5,38)             119.2072         estimate D2E/DX2                !
 ! A16   A(4,6,5)              121.0528         estimate D2E/DX2                !
 ! A17   A(4,6,39)             119.6461         estimate D2E/DX2                !
 ! A18   A(5,6,39)             119.2786         estimate D2E/DX2                !
 ! A19   A(3,7,8)              123.4395         estimate D2E/DX2                !
 ! A20   A(3,7,11)             108.8831         estimate D2E/DX2                !
 ! A21   A(8,7,11)             127.546          estimate D2E/DX2                !
 ! A22   A(7,8,9)              114.847          estimate D2E/DX2                !
 ! A23   A(7,8,14)             113.4987         estimate D2E/DX2                !
 ! A24   A(9,8,14)             131.606          estimate D2E/DX2                !
 ! A25   A(8,9,10)             121.2338         estimate D2E/DX2                !
 ! A26   A(8,9,41)             119.5637         estimate D2E/DX2                !
 ! A27   A(10,9,41)            119.1736         estimate D2E/DX2                !
 ! A28   A(4,10,9)             121.164          estimate D2E/DX2                !
 ! A29   A(4,10,40)            119.5804         estimate D2E/DX2                !
 ! A30   A(9,10,40)            119.2254         estimate D2E/DX2                !
 ! A31   A(7,11,12)            119.4107         estimate D2E/DX2                !
 ! A32   A(7,11,18)            106.9201         estimate D2E/DX2                !
 ! A33   A(12,11,18)           133.2929         estimate D2E/DX2                !
 ! A34   A(11,12,13)           117.1437         estimate D2E/DX2                !
 ! A35   A(11,12,20)           120.0897         estimate D2E/DX2                !
 ! A36   A(13,12,20)           122.7142         estimate D2E/DX2                !
 ! A37   A(12,13,14)           121.6202         estimate D2E/DX2                !
 ! A38   A(12,13,19)           118.849          estimate D2E/DX2                !
 ! A39   A(14,13,19)           119.4916         estimate D2E/DX2                !
 ! A40   A(8,14,13)            120.6958         estimate D2E/DX2                !
 ! A41   A(8,14,42)            119.1704         estimate D2E/DX2                !
 ! A42   A(13,14,42)           120.0442         estimate D2E/DX2                !
 ! A43   A(1,15,16)            121.5951         estimate D2E/DX2                !
 ! A44   A(1,15,37)            118.5788         estimate D2E/DX2                !
 ! A45   A(16,15,37)           119.8244         estimate D2E/DX2                !
 ! A46   A(15,16,17)           122.4512         estimate D2E/DX2                !
 ! A47   A(15,16,23)           119.1962         estimate D2E/DX2                !
 ! A48   A(17,16,23)           118.3525         estimate D2E/DX2                !
 ! A49   A(16,17,18)           114.2182         estimate D2E/DX2                !
 ! A50   A(16,17,26)           122.1372         estimate D2E/DX2                !
 ! A51   A(18,17,26)           123.6321         estimate D2E/DX2                !
 ! A52   A(2,18,11)            105.1331         estimate D2E/DX2                !
 ! A53   A(2,18,17)            121.1982         estimate D2E/DX2                !
 ! A54   A(11,18,17)           133.5838         estimate D2E/DX2                !
 ! A55   A(13,19,22)           119.6064         estimate D2E/DX2                !
 ! A56   A(13,19,43)           119.0285         estimate D2E/DX2                !
 ! A57   A(22,19,43)           121.2846         estimate D2E/DX2                !
 ! A58   A(12,20,21)           114.1017         estimate D2E/DX2                !
 ! A59   A(12,20,27)           125.3555         estimate D2E/DX2                !
 ! A60   A(21,20,27)           120.3948         estimate D2E/DX2                !
 ! A61   A(20,21,22)           114.2859         estimate D2E/DX2                !
 ! A62   A(20,21,45)           108.8348         estimate D2E/DX2                !
 ! A63   A(20,21,46)           112.2786         estimate D2E/DX2                !
 ! A64   A(22,21,45)           108.7358         estimate D2E/DX2                !
 ! A65   A(22,21,46)           105.9099         estimate D2E/DX2                !
 ! A66   A(45,21,46)           106.4558         estimate D2E/DX2                !
 ! A67   A(19,22,21)           124.2728         estimate D2E/DX2                !
 ! A68   A(19,22,44)           119.1453         estimate D2E/DX2                !
 ! A69   A(21,22,44)           116.5775         estimate D2E/DX2                !
 ! A70   A(16,23,24)           120.6433         estimate D2E/DX2                !
 ! A71   A(16,23,36)           120.7494         estimate D2E/DX2                !
 ! A72   A(24,23,36)           118.6052         estimate D2E/DX2                !
 ! A73   A(23,24,25)           121.6924         estimate D2E/DX2                !
 ! A74   A(23,24,35)           117.9192         estimate D2E/DX2                !
 ! A75   A(25,24,35)           120.3307         estimate D2E/DX2                !
 ! A76   A(24,25,26)           121.1987         estimate D2E/DX2                !
 ! A77   A(24,25,29)           117.5483         estimate D2E/DX2                !
 ! A78   A(26,25,29)           121.2152         estimate D2E/DX2                !
 ! A79   A(17,26,25)           115.784          estimate D2E/DX2                !
 ! A80   A(17,26,27)           126.9608         estimate D2E/DX2                !
 ! A81   A(25,26,27)           117.0271         estimate D2E/DX2                !
 ! A82   A(20,27,26)           118.9402         estimate D2E/DX2                !
 ! A83   A(20,27,28)           113.7211         estimate D2E/DX2                !
 ! A84   A(20,27,33)            90.0215         estimate D2E/DX2                !
 ! A85   A(26,27,28)           118.693          estimate D2E/DX2                !
 ! A86   A(26,27,33)           103.4011         estimate D2E/DX2                !
 ! A87   A(28,27,33)           105.7481         estimate D2E/DX2                !
 ! A88   A(27,28,30)           121.8264         estimate D2E/DX2                !
 ! A89   A(27,28,32)           120.1856         estimate D2E/DX2                !
 ! A90   A(30,28,32)           117.9206         estimate D2E/DX2                !
 ! A91   A(25,29,30)           121.484          estimate D2E/DX2                !
 ! A92   A(25,29,34)           120.4052         estimate D2E/DX2                !
 ! A93   A(30,29,34)           118.0397         estimate D2E/DX2                !
 ! A94   A(28,30,29)           119.579          estimate D2E/DX2                !
 ! A95   A(28,30,31)           120.2094         estimate D2E/DX2                !
 ! A96   A(29,30,31)           120.189          estimate D2E/DX2                !
 ! D1    D(5,1,2,3)              2.2417         estimate D2E/DX2                !
 ! D2    D(5,1,2,18)           179.4779         estimate D2E/DX2                !
 ! D3    D(15,1,2,3)          -176.2534         estimate D2E/DX2                !
 ! D4    D(15,1,2,18)            0.9828         estimate D2E/DX2                !
 ! D5    D(2,1,5,6)             -1.4527         estimate D2E/DX2                !
 ! D6    D(2,1,5,38)           179.7279         estimate D2E/DX2                !
 ! D7    D(15,1,5,6)           176.6899         estimate D2E/DX2                !
 ! D8    D(15,1,5,38)           -2.1295         estimate D2E/DX2                !
 ! D9    D(2,1,15,16)           -1.0343         estimate D2E/DX2                !
 ! D10   D(2,1,15,37)          178.4972         estimate D2E/DX2                !
 ! D11   D(5,1,15,16)         -179.2091         estimate D2E/DX2                !
 ! D12   D(5,1,15,37)            0.3224         estimate D2E/DX2                !
 ! D13   D(1,2,3,4)             -0.9536         estimate D2E/DX2                !
 ! D14   D(1,2,3,7)            175.8221         estimate D2E/DX2                !
 ! D15   D(18,2,3,4)          -178.6243         estimate D2E/DX2                !
 ! D16   D(18,2,3,7)            -1.8486         estimate D2E/DX2                !
 ! D17   D(1,2,18,11)         -175.5657         estimate D2E/DX2                !
 ! D18   D(1,2,18,17)            1.514          estimate D2E/DX2                !
 ! D19   D(3,2,18,11)            1.9713         estimate D2E/DX2                !
 ! D20   D(3,2,18,17)          179.051          estimate D2E/DX2                !
 ! D21   D(2,3,4,6)             -1.1912         estimate D2E/DX2                !
 ! D22   D(2,3,4,10)           177.6615         estimate D2E/DX2                !
 ! D23   D(7,3,4,6)           -177.4764         estimate D2E/DX2                !
 ! D24   D(7,3,4,10)             1.3762         estimate D2E/DX2                !
 ! D25   D(2,3,7,8)           -175.2009         estimate D2E/DX2                !
 ! D26   D(2,3,7,11)             0.9115         estimate D2E/DX2                !
 ! D27   D(4,3,7,8)              1.5914         estimate D2E/DX2                !
 ! D28   D(4,3,7,11)           177.7038         estimate D2E/DX2                !
 ! D29   D(3,4,6,5)              1.8846         estimate D2E/DX2                !
 ! D30   D(3,4,6,39)          -179.8502         estimate D2E/DX2                !
 ! D31   D(10,4,6,5)          -176.712          estimate D2E/DX2                !
 ! D32   D(10,4,6,39)            1.5531         estimate D2E/DX2                !
 ! D33   D(3,4,10,9)            -2.2719         estimate D2E/DX2                !
 ! D34   D(3,4,10,40)          179.7431         estimate D2E/DX2                !
 ! D35   D(6,4,10,9)           176.3234         estimate D2E/DX2                !
 ! D36   D(6,4,10,40)           -1.6616         estimate D2E/DX2                !
 ! D37   D(1,5,6,4)             -0.6159         estimate D2E/DX2                !
 ! D38   D(1,5,6,39)          -178.8874         estimate D2E/DX2                !
 ! D39   D(38,5,6,4)           178.2072         estimate D2E/DX2                !
 ! D40   D(38,5,6,39)           -0.0642         estimate D2E/DX2                !
 ! D41   D(3,7,8,9)             -3.395          estimate D2E/DX2                !
 ! D42   D(3,7,8,14)           174.3764         estimate D2E/DX2                !
 ! D43   D(11,7,8,9)          -178.7541         estimate D2E/DX2                !
 ! D44   D(11,7,8,14)           -0.9827         estimate D2E/DX2                !
 ! D45   D(3,7,11,12)         -173.5406         estimate D2E/DX2                !
 ! D46   D(3,7,11,18)            0.3298         estimate D2E/DX2                !
 ! D47   D(8,7,11,12)            2.3675         estimate D2E/DX2                !
 ! D48   D(8,7,11,18)          176.2378         estimate D2E/DX2                !
 ! D49   D(7,8,9,10)             2.3613         estimate D2E/DX2                !
 ! D50   D(7,8,9,41)          -179.611          estimate D2E/DX2                !
 ! D51   D(14,8,9,10)         -174.9051         estimate D2E/DX2                !
 ! D52   D(14,8,9,41)            3.1226         estimate D2E/DX2                !
 ! D53   D(7,8,14,13)           -1.7577         estimate D2E/DX2                !
 ! D54   D(7,8,14,42)         -178.3186         estimate D2E/DX2                !
 ! D55   D(9,8,14,13)          175.5374         estimate D2E/DX2                !
 ! D56   D(9,8,14,42)           -1.0235         estimate D2E/DX2                !
 ! D57   D(8,9,10,4)             0.4323         estimate D2E/DX2                !
 ! D58   D(8,9,10,40)          178.4243         estimate D2E/DX2                !
 ! D59   D(41,9,10,4)         -177.603          estimate D2E/DX2                !
 ! D60   D(41,9,10,40)           0.389          estimate D2E/DX2                !
 ! D61   D(7,11,12,13)          -0.8339         estimate D2E/DX2                !
 ! D62   D(7,11,12,20)         176.6047         estimate D2E/DX2                !
 ! D63   D(18,11,12,13)       -172.7656         estimate D2E/DX2                !
 ! D64   D(18,11,12,20)          4.673          estimate D2E/DX2                !
 ! D65   D(7,11,18,2)           -1.3904         estimate D2E/DX2                !
 ! D66   D(7,11,18,17)        -177.9413         estimate D2E/DX2                !
 ! D67   D(12,11,18,2)         171.2673         estimate D2E/DX2                !
 ! D68   D(12,11,18,17)         -5.2836         estimate D2E/DX2                !
 ! D69   D(11,12,13,14)         -1.7872         estimate D2E/DX2                !
 ! D70   D(11,12,13,19)        175.925          estimate D2E/DX2                !
 ! D71   D(20,12,13,14)       -179.1531         estimate D2E/DX2                !
 ! D72   D(20,12,13,19)         -1.4409         estimate D2E/DX2                !
 ! D73   D(11,12,20,21)       -156.0408         estimate D2E/DX2                !
 ! D74   D(11,12,20,27)         28.3914         estimate D2E/DX2                !
 ! D75   D(13,12,20,21)         21.25           estimate D2E/DX2                !
 ! D76   D(13,12,20,27)       -154.3177         estimate D2E/DX2                !
 ! D77   D(12,13,14,8)           3.1952         estimate D2E/DX2                !
 ! D78   D(12,13,14,42)        179.7261         estimate D2E/DX2                !
 ! D79   D(19,13,14,8)        -174.5027         estimate D2E/DX2                !
 ! D80   D(19,13,14,42)          2.0282         estimate D2E/DX2                !
 ! D81   D(12,13,19,22)        -11.3904         estimate D2E/DX2                !
 ! D82   D(12,13,19,43)        171.8283         estimate D2E/DX2                !
 ! D83   D(14,13,19,22)        166.3715         estimate D2E/DX2                !
 ! D84   D(14,13,19,43)        -10.4098         estimate D2E/DX2                !
 ! D85   D(1,15,16,17)          -1.2766         estimate D2E/DX2                !
 ! D86   D(1,15,16,23)         178.8354         estimate D2E/DX2                !
 ! D87   D(37,15,16,17)        179.1977         estimate D2E/DX2                !
 ! D88   D(37,15,16,23)         -0.6903         estimate D2E/DX2                !
 ! D89   D(15,16,17,18)          3.5618         estimate D2E/DX2                !
 ! D90   D(15,16,17,26)       -175.1998         estimate D2E/DX2                !
 ! D91   D(23,16,17,18)       -176.5493         estimate D2E/DX2                !
 ! D92   D(23,16,17,26)          4.6891         estimate D2E/DX2                !
 ! D93   D(15,16,23,24)        177.9259         estimate D2E/DX2                !
 ! D94   D(15,16,23,36)         -1.5385         estimate D2E/DX2                !
 ! D95   D(17,16,23,24)         -1.9668         estimate D2E/DX2                !
 ! D96   D(17,16,23,36)        178.5688         estimate D2E/DX2                !
 ! D97   D(16,17,18,2)          -3.6246         estimate D2E/DX2                !
 ! D98   D(16,17,18,11)        172.4823         estimate D2E/DX2                !
 ! D99   D(26,17,18,2)         175.1159         estimate D2E/DX2                !
 ! D100  D(26,17,18,11)         -8.7771         estimate D2E/DX2                !
 ! D101  D(16,17,26,25)         -3.3297         estimate D2E/DX2                !
 ! D102  D(16,17,26,27)        170.9827         estimate D2E/DX2                !
 ! D103  D(18,17,26,25)        178.0267         estimate D2E/DX2                !
 ! D104  D(18,17,26,27)         -7.6608         estimate D2E/DX2                !
 ! D105  D(13,19,22,21)          2.6366         estimate D2E/DX2                !
 ! D106  D(13,19,22,44)       -176.5724         estimate D2E/DX2                !
 ! D107  D(43,19,22,21)        179.3433         estimate D2E/DX2                !
 ! D108  D(43,19,22,44)          0.1343         estimate D2E/DX2                !
 ! D109  D(12,20,21,22)        -27.8149         estimate D2E/DX2                !
 ! D110  D(12,20,21,45)         93.9368         estimate D2E/DX2                !
 ! D111  D(12,20,21,46)       -148.4696         estimate D2E/DX2                !
 ! D112  D(27,20,21,22)        147.9947         estimate D2E/DX2                !
 ! D113  D(27,20,21,45)        -90.2535         estimate D2E/DX2                !
 ! D114  D(27,20,21,46)         27.34           estimate D2E/DX2                !
 ! D115  D(12,20,27,26)        -55.8857         estimate D2E/DX2                !
 ! D116  D(12,20,27,28)        156.7387         estimate D2E/DX2                !
 ! D117  D(12,20,27,33)         49.484          estimate D2E/DX2                !
 ! D118  D(21,20,27,26)        128.8054         estimate D2E/DX2                !
 ! D119  D(21,20,27,28)        -18.5703         estimate D2E/DX2                !
 ! D120  D(21,20,27,33)       -125.8249         estimate D2E/DX2                !
 ! D121  D(20,21,22,19)         17.5522         estimate D2E/DX2                !
 ! D122  D(20,21,22,44)       -163.2203         estimate D2E/DX2                !
 ! D123  D(45,21,22,19)       -104.254          estimate D2E/DX2                !
 ! D124  D(45,21,22,44)         74.9736         estimate D2E/DX2                !
 ! D125  D(46,21,22,19)        141.6842         estimate D2E/DX2                !
 ! D126  D(46,21,22,44)        -39.0882         estimate D2E/DX2                !
 ! D127  D(16,23,24,25)         -1.9757         estimate D2E/DX2                !
 ! D128  D(16,23,24,35)       -179.2214         estimate D2E/DX2                !
 ! D129  D(36,23,24,25)        177.5            estimate D2E/DX2                !
 ! D130  D(36,23,24,35)          0.2542         estimate D2E/DX2                !
 ! D131  D(23,24,25,26)          3.347          estimate D2E/DX2                !
 ! D132  D(23,24,25,29)       -174.4439         estimate D2E/DX2                !
 ! D133  D(35,24,25,26)       -179.4726         estimate D2E/DX2                !
 ! D134  D(35,24,25,29)          2.7364         estimate D2E/DX2                !
 ! D135  D(24,25,26,17)         -0.6616         estimate D2E/DX2                !
 ! D136  D(24,25,26,27)       -175.5615         estimate D2E/DX2                !
 ! D137  D(29,25,26,17)        177.0482         estimate D2E/DX2                !
 ! D138  D(29,25,26,27)          2.1483         estimate D2E/DX2                !
 ! D139  D(24,25,29,30)        173.8932         estimate D2E/DX2                !
 ! D140  D(24,25,29,34)         -2.9798         estimate D2E/DX2                !
 ! D141  D(26,25,29,30)         -3.8974         estimate D2E/DX2                !
 ! D142  D(26,25,29,34)        179.2296         estimate D2E/DX2                !
 ! D143  D(17,26,27,20)         41.6695         estimate D2E/DX2                !
 ! D144  D(17,26,27,28)       -172.5714         estimate D2E/DX2                !
 ! D145  D(17,26,27,33)        -55.9262         estimate D2E/DX2                !
 ! D146  D(25,26,27,20)       -144.0799         estimate D2E/DX2                !
 ! D147  D(25,26,27,28)          1.6792         estimate D2E/DX2                !
 ! D148  D(25,26,27,33)        118.3244         estimate D2E/DX2                !
 ! D149  D(20,27,28,30)        143.4379         estimate D2E/DX2                !
 ! D150  D(20,27,28,32)        -39.6108         estimate D2E/DX2                !
 ! D151  D(26,27,28,30)         -4.0247         estimate D2E/DX2                !
 ! D152  D(26,27,28,32)        172.9266         estimate D2E/DX2                !
 ! D153  D(33,27,28,30)       -119.4197         estimate D2E/DX2                !
 ! D154  D(33,27,28,32)         57.5316         estimate D2E/DX2                !
 ! D155  D(27,28,30,29)          2.4356         estimate D2E/DX2                !
 ! D156  D(27,28,30,31)       -179.286          estimate D2E/DX2                !
 ! D157  D(32,28,30,29)       -174.582          estimate D2E/DX2                !
 ! D158  D(32,28,30,31)          3.6964         estimate D2E/DX2                !
 ! D159  D(25,29,30,28)          1.5739         estimate D2E/DX2                !
 ! D160  D(25,29,30,31)       -176.7048         estimate D2E/DX2                !
 ! D161  D(34,29,30,28)        178.5184         estimate D2E/DX2                !
 ! D162  D(34,29,30,31)          0.2397         estimate D2E/DX2                !
 --------------------------------------------------------------------------------
 Trust Radius=3.00D-01 FncErr=1.00D-07 GrdErr=1.00D-06 EigMax=2.50D+02 EigMin=1.00D-04
 Number of steps in this run=    276 maximum allowed number of steps=    276.
 GradGradGradGradGradGradGradGradGradGradGradGradGradGradGradGradGradGrad

                          Input orientation:                          
 ---------------------------------------------------------------------
 Center     Atomic      Atomic             Coordinates (Angstroms)
 Number     Number       Type             X           Y           Z
 ---------------------------------------------------------------------
      1          6           0       -6.987190    0.018560   -0.126740
      2          6           0       -5.760790    0.614480    0.054800
      3          6           0       -4.608040   -0.090190    0.158420
      4          6           0       -4.503920   -1.468560    0.117030
      5          6           0       -6.972710   -1.409450   -0.149650
      6          6           0       -5.751160   -2.140750   -0.023240
      7          6           0       -3.563860    0.765210    0.237700
      8          6           0       -2.244600    0.356330    0.255630
      9          6           0       -2.055200   -1.058090    0.260200
     10          6           0       -3.167040   -1.955390    0.196530
     11          6           0       -4.043560    2.060620    0.205670
     12          6           0       -3.159290    3.103440    0.139120
     13          6           0       -1.775920    2.780300    0.124980
     14          6           0       -1.321120    1.427950    0.215710
     15          6           0       -8.033570    0.950350   -0.290930
     16          6           0       -7.795600    2.363950   -0.241780
     17          6           0       -6.492170    2.918670    0.002590
     18          6           0       -5.482290    1.973900    0.107250
     19          6           0       -0.799120    3.860590   -0.036560
     20          6           0       -3.657310    4.492620    0.028320
     21          6           0       -2.663470    5.461220   -0.597100
     22          6           0       -1.216780    5.083020   -0.394450
     23          6           0       -8.859080    3.237470   -0.434170
     24          6           0       -8.670620    4.614040   -0.350200
     25          6           0       -7.423980    5.168180   -0.031280
     26          6           0       -6.276330    4.345560    0.152240
     27          6           0       -5.035900    5.013450    0.583510
     28          6           0       -5.063120    6.415830    0.824280
     29          6           0       -7.358330    6.557060    0.147020
     30          6           0       -6.197670    7.177030    0.585570
     31          1           0       -6.185710    8.248120    0.767770
     32          1           0       -4.195190    6.914760    1.252920
     33          1           0       -4.814250    4.534020    1.584850
     34          1           0       -8.241130    7.175010   -0.008960
     35          1           0       -9.537330    5.257210   -0.495870
     36          1           0       -9.857490    2.860360   -0.644850
     37          1           0       -9.040580    0.576790   -0.466090
     38          1           0       -7.905040   -1.952890   -0.284700
     39          1           0       -5.775160   -3.227080   -0.063190
     40          1           0       -2.983900   -3.027110    0.176000
     41          1           0       -1.046540   -1.464360    0.280470
     42          1           0       -0.256370    1.209460    0.198000
     43          1           0        0.255380    3.639130    0.085550
     44          1           0       -0.481260    5.864230   -0.566820
     45          1           0       -2.862910    5.527220   -1.673710
     46          1           0       -2.766570    6.473420   -0.200810
 ---------------------------------------------------------------------
                    Distance matrix (angstroms):
                    1          2          3          4          5
     1  C    0.000000
     2  C    1.375549   0.000000
     3  C    2.398645   1.355039   0.000000
     4  C    2.904751   2.433650   1.382916   0.000000
     5  C    1.428267   2.367877   2.725256   2.483855   0.000000
     6  C    2.490201   2.756352   2.354680   1.423771   1.429323
     7  C    3.522711   2.209677   1.352149   2.426521   4.061951
     8  C    4.769953   3.531369   2.407214   2.907569   5.063325
     9  C    5.062946   4.070759   2.732065   2.487009   4.947053
    10  C    4.312137   3.654019   2.357309   1.424981   3.860183
    11  C    3.597980   2.250103   2.224152   3.560183   4.554949
    12  C    4.923412   3.601366   3.506925   4.765680   5.915381
    13  C    5.903211   4.535955   4.032584   5.049243   6.681022
    14  C    5.848761   4.516447   3.621032   4.304617   6.334414
    15  C    1.410710   2.323331   3.608171   4.298370   2.591146
    16  C    2.483468   2.699825   4.042710   5.064784   3.863183
    17  C    2.944895   2.418043   3.553515   4.818093   4.357375
    18  C    2.478473   1.388645   2.242186   3.578803   3.705996
    19  C    7.284335   5.929903   5.491316   6.492224   8.117840
    20  C    5.579369   4.411950   4.682196   6.021651   6.771852
    21  C    6.966946   5.788718   5.930457   7.205490   8.122553
    22  C    7.682321   6.388873   6.210347   7.347796   8.680024
    23  C    3.736291   4.088835   5.431006   6.435679   5.023267
    24  C    4.899215   4.962622   6.236428   7.387673   6.261434
    25  C    5.168993   4.848690   5.967911   7.252245   6.594154
    26  C    4.393869   3.767789   4.739104   6.078377   5.804845
    27  C    5.409336   4.489536   5.139154   6.520511   6.748511
    28  C    6.747707   5.893599   6.555819   7.935774   8.113574
    29  C    6.554744   6.154258   7.193758   8.518165   7.981353
    30  C    7.237017   6.598458   7.451300   8.822389   8.652680
    31  H    8.316741   7.678629   8.508100   9.882598   9.732918
    32  H    7.566789   6.601524   7.101950   8.465555   8.886748
    33  H    5.295336   4.312747   4.843608   6.187226   6.556850
    34  H    7.266431   7.014036   8.124684   9.417745   8.678804
    35  H    5.838058   6.010028   7.302101   8.422995   7.151329
    36  H    4.072209   4.724028   6.075172   6.926812   5.176723
    37  H    2.154806   3.321110   4.525736   5.010466   2.884678
    38  H    2.180370   3.362210   3.812639   3.458841   1.087568
    39  H    3.465146   3.843398   3.354305   2.177366   2.178389
    40  H    5.039255   4.581155   3.356135   2.177847   4.316651
    41  H    6.136464   5.157195   3.819361   3.461244   5.942012
    42  H    6.843072   5.538334   4.541772   5.021955   7.217255
    43  H    8.099902   6.733777   6.129110   6.981434   8.819794
    44  H    8.757434   7.471260   7.280893   8.391618   9.758042
    45  H    7.053236   5.959905   6.160964   7.405444   8.205523
    46  H    7.712609   6.584669   6.826495   8.135997   8.934980
                    6          7          8          9         10
     6  C    0.000000
     7  C    3.646502   0.000000
     8  C    4.313831   1.381286   0.000000
     9  C    3.861685   2.366640   1.427052   0.000000
    10  C    2.600064   2.749696   2.489666   1.430171   0.000000
    11  C    4.540904   1.381747   2.478580   3.699041   4.110560
    12  C    5.851981   2.375019   2.897731   4.307204   5.059162
    13  C    6.327814   2.696298   2.472319   3.850912   4.936304
    14  C    5.693678   2.338716   1.415196   2.592537   3.854190
    15  C    3.851747   4.504668   5.844977   6.330757   5.688942
    16  C    4.951749   4.549010   5.923813   6.701831   6.346052
    17  C    5.113462   3.642481   4.967038   5.963865   5.903437
    18  C    4.125489   2.271194   3.622318   4.578352   4.561543
    19  C    7.780679   4.159373   3.801924   5.085196   6.283868
    20  C    6.956182   3.734456   4.376793   5.781947   6.468809
    21  C    8.225150   4.853875   5.192543   6.603511   7.475930
    22  C    8.537052   4.954986   4.880637   6.232555   7.327482
    23  C    6.225213   5.882417   7.247630   8.076309   7.730647
    24  C    7.365958   6.421691   7.732325   8.735527   8.587533
    25  C    7.497923   5.861657   7.075464   8.226494   8.301728
    26  C    6.509901   4.492628   5.672697   6.857771   7.026494
    27  C    7.215422   4.509327   5.439451   6.771462   7.225450
    28  C    8.625935   5.875488   6.707083   8.076215   8.606190
    29  C    8.846688   6.924720   8.038102   9.280437   9.488476
    30  C    9.348318   6.940418   7.890347   9.224051   9.630014
    31  H   10.427998   7.946635   8.836005  10.194326  10.655998
    32  H    9.276416   6.264680   6.914651   8.314529   8.991808
    33  H    6.929380   4.193115   5.081636   6.374853   6.837629
    34  H    9.642797   7.938717   9.084205  10.301559  10.447623
    35  H    8.323958   7.509896   8.818576   9.820230   9.647881
    36  H    6.500727   6.691661   8.064560   8.777761   8.286223
    37  H    4.289688   5.524969   6.837750   7.210816   6.430356
    38  H    2.177809   5.148477   6.137185   5.942913   4.762377
    39  H    1.087329   4.573703   5.040568   4.318241   2.913235
    40  H    2.912569   3.836906   3.464184   2.178672   1.087449
    41  H    4.762688   3.362991   2.179651   1.087594   2.178228
    42  H    6.439377   3.337428   2.164304   2.895072   4.299800
    43  H    8.336508   4.782171   4.129843   5.237667   6.559263
    44  H    9.599324   6.012460   5.841469   7.147011   8.303167
    45  H    8.358457   5.178953   5.553626   6.910768   7.718792
    46  H    9.118291   5.780279   6.156263   7.579065   8.447668
                   11         12         13         14         15
    11  C    0.000000
    12  C    1.368881   0.000000
    13  C    2.380471   1.420680   0.000000
    14  C    2.795005   2.488373   1.429659   0.000000
    15  C    4.171270   5.345965   6.532984   6.748464   0.000000
    16  C    3.790782   4.710340   6.045197   6.557765   1.434333
    17  C    2.602534   3.340789   4.719866   5.385854   2.517211
    18  C    1.444698   2.583255   3.793122   4.198233   2.777631
    19  C    3.718193   2.484863   1.465353   2.500772   7.802017
    20  C    2.468859   1.479906   2.545783   3.858121   5.639260
    21  C    3.756750   2.519322   2.914872   4.327797   7.019947
    22  C    4.181594   2.824319   2.425895   3.707117   7.972346
    23  C    4.998360   5.730116   7.119888   7.779303   2.435755
    24  C    5.314003   5.735513   7.150195   8.030353   3.719136
    25  C    4.597860   4.741283   6.134083   7.162068   4.269556
    26  C    3.195163   3.355439   4.764921   5.750703   3.848603
    27  C    3.137946   2.714274   3.978024   5.175971   5.124398
    28  C    4.515533   3.881487   4.950938   6.265131   6.319710
    29  C    5.586512   5.436864   6.740008   7.922146   5.664181
    30  C    5.564366   5.101491   6.252620   7.547811   6.550597
    31  H    6.571904   6.001846   7.053827   8.395459   7.602163
    32  H    4.968138   4.103632   4.921268   6.280220   7.258844
    33  H    2.934929   2.622134   3.799764   4.870747   5.169648
    34  H    6.619867   6.513425   7.818590   8.998095   6.234499
    35  H    6.394674   6.761755   8.170681   9.092617   4.566436
    36  H    5.929987   6.748302   8.118548   8.698389   2.664598
    37  H    5.255780   6.429604   7.614467   7.796114   1.088254
    38  H    5.591042   6.947535   7.754807   7.418119   2.906090
    39  H    5.570502   6.852677   7.219276   6.448687   4.754283
    40  H    5.196995   6.133169   5.931933   4.755415   6.444950
    41  H    4.627441   5.034728   4.309676   2.906036   7.414574
    42  H    3.881667   3.466637   2.186756   1.087081   7.796860
    43  H    4.581158   3.456849   2.205748   2.718752   8.722268
    44  H    5.268223   3.910519   3.415458   4.582390   9.014417
    45  H    4.116226   3.041201   3.458671   4.769805   7.042410
    46  H    4.611804   3.409772   3.837533   5.264939   7.632412
                   16         17         18         19         20
    16  C    0.000000
    17  C    1.437484   0.000000
    18  C    2.371785   1.386868   0.000000
    19  C    7.157708   5.770577   5.050976   0.000000
    20  C    4.661506   3.242593   3.111388   2.927955   0.000000
    21  C    6.004839   4.634990   4.539081   2.520322   1.522187
    22  C    7.120219   5.715924   5.302160   1.340470   2.546270
    23  C    1.389619   2.427891   3.645882   8.093783   5.371006
    24  C    2.416675   2.782873   4.164739   7.913695   5.029045
    25  C    2.836568   2.435100   3.740692   6.752673   3.827236
    26  C    2.527887   1.450861   2.501459   5.501879   2.626071
    27  C    3.913681   2.616542   3.108851   4.434397   1.574805
    28  C    5.002066   3.866198   4.518913   5.044997   2.511691
    29  C    4.233739   3.742857   4.952420   7.094215   4.239523
    30  C    5.138446   4.308158   5.273815   6.366330   3.737648
    31  H    6.183397   5.392815   6.347986   6.993763   4.587306
    32  H    5.992241   4.775791   5.232713   4.745946   2.766898
    33  H    4.115122   2.815727   3.030477   4.382208   1.939848
    34  H    4.837251   4.601676   5.888654   8.146757   5.311122
    35  H    3.386612   3.871722   5.252354   8.861029   5.952647
    36  H    2.158768   3.427529   4.527012   9.133704   6.446678
    37  H    2.189573   3.492629   3.865496   8.881976   6.675160
    38  H    4.318440   5.080436   4.630661   9.184347   7.725658
    39  H    5.947578   6.187784   5.212007   8.660066   8.005463
    40  H    7.238130   6.905819   5.590776   7.229029   7.551267
    41  H    7.776793   6.995931   5.614937   5.340114   6.508864
    42  H    7.639780   6.468755   5.282314   2.716263   4.730151
    43  H    8.157911   6.786411   5.974472   1.084401   4.005105
    44  H    8.115244   6.718005   6.371761   2.096851   3.510384
    45  H    6.032258   4.773473   4.760153   3.117234   2.144382
    46  H    6.494657   5.153418   5.264572   3.274862   2.183916
                   21         22         23         24         25
    21  C    0.000000
    22  C    1.508978   0.000000
    23  C    6.584618   7.862085   0.000000
    24  C    6.071616   7.468710   1.391946   0.000000
    25  C    4.802966   6.218398   2.439154   1.401033   0.000000
    26  C    3.854733   5.142156   2.870947   2.461128   1.423897
    27  C    2.687520   3.942959   4.336644   3.773928   2.470796
    28  C    2.947867   4.249237   5.108325   4.199989   2.803975
    29  C    4.878144   6.339134   3.689134   2.396802   1.401816
    30  C    4.102838   5.491319   4.862418   3.682399   2.433068
    31  H    4.694237   6.004905   5.805013   4.542155   3.414356
    32  H    2.807404   3.865233   6.174189   5.281362   3.889061
    33  H    3.201009   4.142562   4.702992   4.315369   3.134442
    34  H    5.864578   7.339381   4.008352   2.619060   2.166933
    35  H    6.877632   8.322991   2.131474   1.089070   2.165645
    36  H    7.649881   8.925513   1.087851   2.137960   3.409468
    37  H    8.033825   9.029014   2.667054   4.055822   4.887056
    38  H    9.085190   9.708187   5.279429   6.611730   7.141798
    39  H    9.244146   9.484004   7.172071   8.363565   8.555701
    40  H    8.529484   8.319996   8.610169   9.539541   9.323092
    41  H    7.165769   6.584275   9.146239   9.770941   9.206493
    42  H    4.950129   4.034582   8.861099   9.093475   8.191378
    43  H    3.507949   2.117185   9.138097   8.989650   7.830978
    44  H    2.219318   1.086734   8.780964   8.287069   6.998046
    45  H    1.096914   2.131564   6.537084   6.026199   4.861054
    46  H    1.091890   2.091066   6.902500   6.191722   4.839820
                   26         27         28         29         30
    26  C    0.000000
    27  C    1.473342   0.000000
    28  C    2.491894   1.423159   0.000000
    29  C    2.462008   2.822576   2.397210   0.000000
    30  C    2.865516   2.455767   1.386943   1.387019   0.000000
    31  H    3.951843   3.437892   2.149579   2.149431   1.086542
    32  H    3.484742   2.184006   1.089021   3.369929   2.126986
    33  H    2.055618   1.132106   2.044899   3.554207   3.146095
    34  H    3.448509   3.911120   3.372001   1.088819   2.128191
    35  H    3.447502   4.635445   4.806636   2.617434   4.001069
    36  H    3.958014   5.421475   6.147007   4.531937   5.791533
    37  H    4.714556   6.068202   7.181896   6.242555   7.263009
    38  H    6.520283   7.583907   8.907403   8.538415   9.328876
    39  H    7.592263   8.298859   9.709805   9.913628  10.432876
    40  H    8.074461   8.308271   9.690848  10.535312  10.706098
    41  H    7.818076   7.613728   8.861492  10.207824  10.064832
    42  H    6.788014   6.120692   7.113604   8.890290   8.429777
    43  H    6.570139   5.489478   6.045017   8.153936   7.376219
    44  H    6.033759   4.774079   4.820048   6.948645   5.977356
    45  H    4.047450   3.175041   3.445360   4.958269   4.352797
    46  H    4.119569   2.810076   2.515605   4.605675   3.589695
                   31         32         33         34         35
    31  H    0.000000
    32  H    2.444461   0.000000
    33  H    4.042655   2.482204   0.000000
    34  H    2.445327   4.246140   4.610701   0.000000
    35  H    4.666442   5.860392   5.211515   2.365412   0.000000
    36  H    6.671238   7.218125   5.762549   4.651148   2.422723
    37  H    8.277801   8.161045   6.142303   6.662176   4.706801
    38  H   10.398288   9.734602   7.424837   9.138246   7.395573
    39  H   11.512570  10.348206   7.992125  10.690530   9.291088
    40  H   11.735953  10.073121   7.906056  11.478499  10.584366
    41  H   10.999127   9.003850   7.202611  11.246538  10.857059
    42  H    9.220870   7.012675   5.809503   9.969303  10.148988
    43  H    7.949582   5.648015   5.361891   9.203372   9.942505
    44  H    6.324936   4.267124   5.017364   7.889546   9.076668
    45  H    4.940154   3.502199   3.925861   5.866162   6.782927
    46  H    3.972181   2.085442   3.338090   5.522666   6.885450
                   36         37         38         39         40
    36  H    0.000000
    37  H    2.431869   0.000000
    38  H    5.206644   2.778783   0.000000
    39  H    7.352596   5.029386   2.491790   0.000000
    40  H    9.087482   7.076987   5.058044   2.808617   0.000000
    41  H    9.858613   8.284221   6.899065   5.058175   2.491278
    42  H    9.778414   8.831966   8.290694   7.085771   5.038693
    43  H   10.169076   9.802913   9.899506   9.139714   7.412144
    44  H    9.845964  10.061269  10.784223  10.532376   9.266656
    45  H    7.556113   8.008040   9.127128   9.365508   8.752864
    46  H    7.970729   8.614164   9.869833  10.157276   9.510483
                   41         42         43         44         45
    41  H    0.000000
    42  H    2.789352   0.000000
    43  H    5.270541   2.485524   0.000000
    44  H    7.399032   4.722543   2.432960   0.000000
    45  H    7.483329   5.379628   4.047667   2.647836   0.000000
    46  H    8.136245   5.845462   4.152997   2.393265   1.753286
                   46
    46  H    0.000000
 Stoichiometry    C30H16
 Framework group  C1[X(C30H16)]
 Deg. of freedom   132
 Full point group                 C1      NOp   1
 Largest Abelian subgroup         C1      NOp   1
 Largest concise Abelian subgroup C1      NOp   1
                         Standard orientation:                         
 ---------------------------------------------------------------------
 Center     Atomic      Atomic             Coordinates (Angstroms)
 Number     Number       Type             X           Y           Z
 ---------------------------------------------------------------------
      1          6           0       -1.701823   -2.751018    0.084227
      2          6           0       -1.504564   -1.396610   -0.052891
      3          6           0       -2.524814   -0.508321   -0.131389
      4          6           0       -3.870148   -0.827444   -0.105008
      5          6           0       -3.067261   -3.169951    0.088819
      6          6           0       -4.133642   -2.223442   -0.010759
      7          6           0       -2.025442    0.747693   -0.168321
      8          6           0       -2.814502    1.881307   -0.152336
      9          6           0       -4.219853    1.634002   -0.169825
     10          6           0       -4.738617    0.301366   -0.151059
     11          6           0       -0.645715    0.681569   -0.133590
     12          6           0        0.080185    1.837232   -0.027070
     13          6           0       -0.646682    3.056817    0.024001
     14          6           0       -2.072932    3.083895   -0.070887
     15          6           0       -0.497533   -3.471233    0.229409
     16          6           0        0.777828   -2.815328    0.205917
     17          6           0        0.912718   -1.397972    0.007754
     18          6           0       -0.293100   -0.718379   -0.079186
     19          6           0        0.086582    4.308887    0.228707
     20          6           0        1.554552    1.779475    0.087075
     21          6           0        2.174588    2.998987    0.754457
     22          6           0        1.376832    4.269246    0.590015
     23          6           0        1.931663   -3.570371    0.378011
     24          6           0        3.186844   -2.971704    0.317758
     25          6           0        3.338636   -1.606211    0.043386
     26          6           0        2.207797   -0.755877   -0.116669
     27          6           0        2.470272    0.641745   -0.502023
     28          6           0        3.815902    1.047835   -0.725075
     29          6           0        4.643063   -1.117758   -0.114641
     30          6           0        4.884045    0.189614   -0.510275
     31          1           0        5.901870    0.530914   -0.677968
     32          1           0        4.030123    2.039417   -1.121106
     33          1           0        1.949738    0.740242   -1.502526
     34          1           0        5.498747   -1.776821    0.023086
     35          1           0        4.061729   -3.607477    0.445991
     36          1           0        1.873811   -4.642347    0.553912
     37          1           0       -0.549273   -4.549179    0.369599
     38          1           0       -3.303378   -4.226850    0.188914
     39          1           0       -5.161849   -2.576221    0.014202
     40          1           0       -5.815548    0.150956   -0.139151
     41          1           0       -4.912375    2.472605   -0.165391
     42          1           0       -2.603604    4.031506   -0.024359
     43          1           0       -0.443329    5.250357    0.135145
     44          1           0        1.898071    5.200649    0.794439
     45          1           0        2.294113    2.794147    1.825427
     46          1           0        3.171873    3.219791    0.368589
 ---------------------------------------------------------------------
 Rotational constants (GHZ):           0.2440095           0.1757819           0.1038399
 Standard basis: 6-311+G(d,p) (5D, 7F)
 There are   786 symmetry adapted cartesian basis functions of A   symmetry.
 There are   756 symmetry adapted basis functions of A   symmetry.
   756 basis functions,  1208 primitive gaussians,   786 cartesian basis functions
    98 alpha electrons       98 beta electrons
       nuclear repulsion energy      2639.6209700875 Hartrees.
 NAtoms=   46 NActive=   46 NUniq=   46 SFac= 1.00D+00 NAtFMM=   60 NAOKFM=F Big=F
 Integral buffers will be    131072 words long.
 Raffenetti 2 integral format.
 Two-electron integral symmetry is turned on.
 One-electron integrals computed using PRISM.
 NBasis=   756 RedAO= T EigKep=  1.03D-06  NBF=   756
 NBsUse=   734 1.00D-06 EigRej=  8.81D-07 NBFU=   734
 ExpMin= 4.38D-02 ExpMax= 4.56D+03 ExpMxC= 6.82D+02 IAcc=2 IRadAn=         4 AccDes= 0.00D+00
 Harris functional with IExCor=  402 and IRadAn=       4 diagonalized for initial guess.
 HarFok:  IExCor=  402 AccDes= 0.00D+00 IRadAn=         4 IDoV= 1 UseB2=F ITyADJ=14
 ICtDFT=  3500011 ScaDFX=  1.000000  1.000000  1.000000  1.000000
 FoFCou: FMM=F IPFlag=           0 FMFlag=      100000 FMFlg1=           0
         NFxFlg=           0 DoJE=T BraDBF=F KetDBF=T FulRan=T
         wScrn=  0.000000 ICntrl=       500 IOpCl=  0 I1Cent=   200000004 NGrid=           0
         NMat0=    1 NMatS0=      1 NMatT0=    0 NMatD0=    1 NMtDS0=    0 NMtDT0=    0
 Petite list used in FoFCou.
 Requested convergence on RMS density matrix=1.00D-08 within 128 cycles.
 Requested convergence on MAX density matrix=1.00D-06.
 Requested convergence on             energy=1.00D-06.
 No special actions if energy rises.
 EnCoef did     3 forward-backward iterations
 Restarting incremental Fock formation.
 SCF Done:  E(RB3LYP) =  -1152.97827093     A.U. after   21 cycles
            NFock= 21  Conv=0.81D-08     -V/T= 2.0039

 **********************************************************************

            Population analysis using the SCF Density.

 **********************************************************************

 Orbital symmetries:
       Occupied  (A) (A) (A) (A) (A) (A) (A) (A) (A) (A) (A) (A)
                 (A) (A) (A) (A) (A) (A) (A) (A) (A) (A) (A) (A)
                 (A) (A) (A) (A) (A) (A) (A) (A) (A) (A) (A) (A)
                 (A) (A) (A) (A) (A) (A) (A) (A) (A) (A) (A) (A)
                 (A) (A) (A) (A) (A) (A) (A) (A) (A) (A) (A) (A)
                 (A) (A) (A) (A) (A) (A) (A) (A) (A) (A) (A) (A)
                 (A) (A) (A) (A) (A) (A) (A) (A) (A) (A) (A) (A)
                 (A) (A) (A) (A) (A) (A) (A) (A) (A) (A) (A) (A)
                 (A) (A)
       Virtual   (A) (A) (A) (A) (A) (A) (A) (A) (A) (A) (A) (A)
                 (A) (A) (A) (A) (A) (A) (A) (A) (A) (A) (A) (A)
                 (A) (A) (A) (A) (A) (A) (A) (A) (A) (A) (A) (A)
                 (A) (A) (A) (A) (A) (A) (A) (A) (A) (A) (A) (A)
                 (A) (A) (A) (A) (A) (A) (A) (A) (A) (A) (A) (A)
                 (A) (A) (A) (A) (A) (A) (A) (A) (A) (A) (A) (A)
                 (A) (A) (A) (A) (A) (A) (A) (A) (A) (A) (A) (A)
                 (A) (A) (A) (A) (A) (A) (A) (A) (A) (A) (A) (A)
                 (A) (A) (A) (A) (A) (A) (A) (A) (A) (A) (A) (A)
                 (A) (A) (A) (A) (A) (A) (A) (A) (A) (A) (A) (A)
                 (A) (A) (A) (A) (A) (A) (A) (A) (A) (A) (A) (A)
                 (A) (A) (A) (A) (A) (A) (A) (A) (A) (A) (A) (A)
                 (A) (A) (A) (A) (A) (A) (A) (A) (A) (A) (A) (A)
                 (A) (A) (A) (A) (A) (A) (A) (A) (A) (A) (A) (A)
                 (A) (A) (A) (A) (A) (A) (A) (A) (A) (A) (A) (A)
                 (A) (A) (A) (A) (A) (A) (A) (A) (A) (A) (A) (A)
                 (A) (A) (A) (A) (A) (A) (A) (A) (A) (A) (A) (A)
                 (A) (A) (A) (A) (A) (A) (A) (A) (A) (A) (A) (A)
                 (A) (A) (A) (A) (A) (A) (A) (A) (A) (A) (A) (A)
                 (A) (A) (A) (A) (A) (A) (A) (A) (A) (A) (A) (A)
                 (A) (A) (A) (A) (A) (A) (A) (A) (A) (A) (A) (A)
                 (A) (A) (A) (A) (A) (A) (A) (A) (A) (A) (A) (A)
                 (A) (A) (A) (A) (A) (A) (A) (A) (A) (A) (A) (A)
                 (A) (A) (A) (A) (A) (A) (A) (A) (A) (A) (A) (A)
                 (A) (A) (A) (A) (A) (A) (A) (A) (A) (A) (A) (A)
                 (A) (A) (A) (A) (A) (A) (A) (A) (A) (A) (A) (A)
                 (A) (A) (A) (A) (A) (A) (A) (A) (A) (A) (A) (A)
                 (A) (A) (A) (A) (A) (A) (A) (A) (A) (A) (A) (A)
                 (A) (A) (A) (A) (A) (A) (A) (A) (A) (A) (A) (A)
                 (A) (A) (A) (A) (A) (A) (A) (A) (A) (A) (A) (A)
                 (A) (A) (A) (A) (A) (A) (A) (A) (A) (A) (A) (A)
                 (A) (A) (A) (A) (A) (A) (A) (A) (A) (A) (A) (A)
                 (A) (A) (A) (A) (A) (A) (A) (A) (A) (A) (A) (A)
                 (A) (A) (A) (A) (A) (A) (A) (A) (A) (A) (A) (A)
                 (A) (A) (A) (A) (A) (A) (A) (A) (A) (A) (A) (A)
                 (A) (A) (A) (A) (A) (A) (A) (A) (A) (A) (A) (A)
                 (A) (A) (A) (A) (A) (A) (A) (A) (A) (A) (A) (A)
                 (A) (A) (A) (A) (A) (A) (A) (A) (A) (A) (A) (A)
                 (A) (A) (A) (A) (A) (A) (A) (A) (A) (A) (A) (A)
                 (A) (A) (A) (A) (A) (A) (A) (A) (A) (A) (A) (A)
                 (A) (A) (A) (A) (A) (A) (A) (A) (A) (A) (A) (A)
                 (A) (A) (A) (A) (A) (A) (A) (A) (A) (A) (A) (A)
                 (A) (A) (A) (A) (A) (A) (A) (A) (A) (A) (A) (A)
                 (A) (A) (A) (A) (A) (A) (A) (A) (A) (A) (A) (A)
                 (A) (A) (A) (A) (A) (A) (A) (A) (A) (A) (A) (A)
                 (A) (A) (A) (A) (A) (A) (A) (A) (A) (A) (A) (A)
                 (A) (A) (A) (A) (A) (A) (A) (A) (A) (A) (A) (A)
                 (A) (A) (A) (A) (A) (A) (A) (A) (A) (A) (A) (A)
                 (A) (A) (A) (A) (A) (A) (A) (A) (A) (A) (A) (A)
                 (A) (A) (A) (A) (A) (A) (A) (A) (A) (A) (A) (A)
                 (A) (A) (A) (A) (A) (A) (A) (A) (A) (A) (A) (A)
                 (A) (A) (A) (A) (A) (A) (A) (A) (A) (A) (A) (A)
                 (A) (A) (A) (A) (A) (A) (A) (A) (A) (A) (A) (A)
 The electronic state is 1-A.
 Alpha  occ. eigenvalues --  -10.22275 -10.21211 -10.20263 -10.20028 -10.19866
 Alpha  occ. eigenvalues --  -10.19489 -10.19406 -10.19303 -10.19236 -10.19145
 Alpha  occ. eigenvalues --  -10.19113 -10.19006 -10.18828 -10.18778 -10.18698
 Alpha  occ. eigenvalues --  -10.18616 -10.18615 -10.18560 -10.18373 -10.18287
 Alpha  occ. eigenvalues --  -10.18268 -10.18190 -10.18150 -10.18102 -10.18016
 Alpha  occ. eigenvalues --  -10.16406 -10.16335 -10.14882 -10.14826 -10.14120
 Alpha  occ. eigenvalues --   -0.92531  -0.89531  -0.87816  -0.85383  -0.84081
 Alpha  occ. eigenvalues --   -0.83221  -0.80519  -0.80028  -0.78389  -0.76845
 Alpha  occ. eigenvalues --   -0.75780  -0.74808  -0.72575  -0.70707  -0.70537
 Alpha  occ. eigenvalues --   -0.66752  -0.66124  -0.64353  -0.63244  -0.62550
 Alpha  occ. eigenvalues --   -0.60420  -0.59143  -0.58265  -0.56654  -0.55982
 Alpha  occ. eigenvalues --   -0.52790  -0.51993  -0.51527  -0.50875  -0.49539
 Alpha  occ. eigenvalues --   -0.49096  -0.47737  -0.47125  -0.46505  -0.45786
 Alpha  occ. eigenvalues --   -0.44990  -0.44485  -0.44038  -0.43641  -0.42889
 Alpha  occ. eigenvalues --   -0.42739  -0.42562  -0.41972  -0.40990  -0.40256
 Alpha  occ. eigenvalues --   -0.40089  -0.39463  -0.39244  -0.38909  -0.37701
 Alpha  occ. eigenvalues --   -0.36590  -0.36167  -0.36105  -0.35094  -0.34527
 Alpha  occ. eigenvalues --   -0.33963  -0.32996  -0.32742  -0.32443  -0.32176
 Alpha  occ. eigenvalues --   -0.29762  -0.27635  -0.26950  -0.26609  -0.23079
 Alpha  occ. eigenvalues --   -0.21179  -0.20154  -0.15646
 Alpha virt. eigenvalues --   -0.12514  -0.08117  -0.04346  -0.03384  -0.01814
 Alpha virt. eigenvalues --   -0.01331  -0.00580   0.00521   0.00887   0.01577
 Alpha virt. eigenvalues --    0.01703   0.01973   0.02107   0.02662   0.02911
 Alpha virt. eigenvalues --    0.03163   0.03429   0.03786   0.04448   0.04607
 Alpha virt. eigenvalues --    0.04818   0.05140   0.05361   0.05647   0.05985
 Alpha virt. eigenvalues --    0.06859   0.07101   0.07265   0.07563   0.08239
 Alpha virt. eigenvalues --    0.08636   0.08776   0.09100   0.09305   0.09631
 Alpha virt. eigenvalues --    0.09958   0.10260   0.10323   0.10976   0.11445
 Alpha virt. eigenvalues --    0.11719   0.11910   0.12173   0.12396   0.13040
 Alpha virt. eigenvalues --    0.13295   0.13554   0.14060   0.14453   0.14792
 Alpha virt. eigenvalues --    0.15045   0.15140   0.15240   0.15553   0.15887
 Alpha virt. eigenvalues --    0.16192   0.16438   0.16536   0.16802   0.16935
 Alpha virt. eigenvalues --    0.16988   0.17321   0.17537   0.17580   0.18117
 Alpha virt. eigenvalues --    0.18347   0.18627   0.18743   0.19020   0.19453
 Alpha virt. eigenvalues --    0.19566   0.19646   0.19912   0.20266   0.20401
 Alpha virt. eigenvalues --    0.20527   0.20648   0.20914   0.21187   0.21422
 Alpha virt. eigenvalues --    0.21568   0.21907   0.22039   0.22207   0.22480
 Alpha virt. eigenvalues --    0.22644   0.22976   0.23320   0.23636   0.23695
 Alpha virt. eigenvalues --    0.23951   0.24158   0.24234   0.24497   0.24725
 Alpha virt. eigenvalues --    0.25081   0.25234   0.25500   0.25546   0.25752
 Alpha virt. eigenvalues --    0.26005   0.26233   0.26417   0.26872   0.26951
 Alpha virt. eigenvalues --    0.26974   0.27342   0.27734   0.28025   0.28517
 Alpha virt. eigenvalues --    0.28719   0.29153   0.29405   0.29494   0.29787
 Alpha virt. eigenvalues --    0.29936   0.30291   0.30456   0.31151   0.31170
 Alpha virt. eigenvalues --    0.31479   0.31725   0.32111   0.32323   0.32389
 Alpha virt. eigenvalues --    0.33278   0.33731   0.34213   0.34308   0.34867
 Alpha virt. eigenvalues --    0.35152   0.35742   0.35827   0.36540   0.36795
 Alpha virt. eigenvalues --    0.36947   0.37766   0.37928   0.38788   0.39104
 Alpha virt. eigenvalues --    0.39796   0.40287   0.40583   0.41499   0.41697
 Alpha virt. eigenvalues --    0.42132   0.42876   0.43697   0.44089   0.44528
 Alpha virt. eigenvalues --    0.45232   0.45419   0.45844   0.46445   0.46869
 Alpha virt. eigenvalues --    0.47590   0.48333   0.48928   0.49665   0.50098
 Alpha virt. eigenvalues --    0.50669   0.51132   0.51520   0.52209   0.53076
 Alpha virt. eigenvalues --    0.53661   0.53694   0.54343   0.54639   0.54939
 Alpha virt. eigenvalues --    0.55338   0.55626   0.56003   0.56071   0.56579
 Alpha virt. eigenvalues --    0.57145   0.57410   0.57856   0.58149   0.58634
 Alpha virt. eigenvalues --    0.58942   0.59523   0.59822   0.60196   0.60284
 Alpha virt. eigenvalues --    0.60550   0.60868   0.61171   0.61615   0.62203
 Alpha virt. eigenvalues --    0.62522   0.62833   0.63254   0.63852   0.64348
 Alpha virt. eigenvalues --    0.64803   0.65264   0.65293   0.65822   0.66066
 Alpha virt. eigenvalues --    0.66225   0.67081   0.67251   0.67772   0.68044
 Alpha virt. eigenvalues --    0.68157   0.68345   0.69073   0.69419   0.69574
 Alpha virt. eigenvalues --    0.69925   0.70590   0.70925   0.71238   0.71832
 Alpha virt. eigenvalues --    0.72144   0.72318   0.72898   0.73041   0.73666
 Alpha virt. eigenvalues --    0.74040   0.74334   0.74575   0.74728   0.75118
 Alpha virt. eigenvalues --    0.75583   0.76239   0.76472   0.76568   0.77109
 Alpha virt. eigenvalues --    0.77625   0.77993   0.78289   0.78656   0.79740
 Alpha virt. eigenvalues --    0.80575   0.80741   0.81066   0.82480   0.82589
 Alpha virt. eigenvalues --    0.83515   0.83979   0.85122   0.85858   0.87179
 Alpha virt. eigenvalues --    0.88371   0.88754   0.89328   0.89562   0.90127
 Alpha virt. eigenvalues --    0.90827   0.91047   0.91638   0.92080   0.92443
 Alpha virt. eigenvalues --    0.92864   0.93137   0.93339   0.93969   0.94993
 Alpha virt. eigenvalues --    0.95435   0.96144   0.96569   0.96830   0.97313
 Alpha virt. eigenvalues --    0.97545   0.98105   0.98615   0.99265   0.99367
 Alpha virt. eigenvalues --    0.99780   1.00216   1.01128   1.01296   1.01514
 Alpha virt. eigenvalues --    1.01781   1.02144   1.02700   1.02988   1.03534
 Alpha virt. eigenvalues --    1.04795   1.04999   1.05624   1.06486   1.07157
 Alpha virt. eigenvalues --    1.07191   1.07430   1.08149   1.08711   1.09380
 Alpha virt. eigenvalues --    1.10115   1.10527   1.10903   1.12059   1.12345
 Alpha virt. eigenvalues --    1.13268   1.14906   1.15507   1.15592   1.16042
 Alpha virt. eigenvalues --    1.16824   1.17757   1.18405   1.19308   1.20270
 Alpha virt. eigenvalues --    1.21322   1.22471   1.22729   1.25373   1.26025
 Alpha virt. eigenvalues --    1.27789   1.29553   1.30876   1.31971   1.32514
 Alpha virt. eigenvalues --    1.34737   1.37468   1.37820   1.39943   1.40400
 Alpha virt. eigenvalues --    1.41132   1.41349   1.41753   1.42609   1.43775
 Alpha virt. eigenvalues --    1.44324   1.44735   1.45760   1.46043   1.47438
 Alpha virt. eigenvalues --    1.48055   1.48788   1.48930   1.49493   1.49827
 Alpha virt. eigenvalues --    1.50360   1.50542   1.50986   1.52145   1.52452
 Alpha virt. eigenvalues --    1.52652   1.53687   1.54059   1.55252   1.55674
 Alpha virt. eigenvalues --    1.56977   1.57698   1.58400   1.58462   1.59208
 Alpha virt. eigenvalues --    1.59712   1.60978   1.61517   1.62080   1.63397
 Alpha virt. eigenvalues --    1.64073   1.64734   1.65244   1.66024   1.66429
 Alpha virt. eigenvalues --    1.66891   1.67624   1.69205   1.69379   1.69718
 Alpha virt. eigenvalues --    1.70974   1.71514   1.72167   1.72869   1.73438
 Alpha virt. eigenvalues --    1.73738   1.75208   1.75701   1.75963   1.76928
 Alpha virt. eigenvalues --    1.77619   1.77904   1.78902   1.79563   1.80546
 Alpha virt. eigenvalues --    1.80935   1.81474   1.82686   1.83343   1.83608
 Alpha virt. eigenvalues --    1.84421   1.85223   1.85739   1.86736   1.87637
 Alpha virt. eigenvalues --    1.88072   1.88166   1.88768   1.89221   1.90216
 Alpha virt. eigenvalues --    1.90397   1.90913   1.91022   1.92128   1.92350
 Alpha virt. eigenvalues --    1.92844   1.93157   1.93566   1.93903   1.95278
 Alpha virt. eigenvalues --    1.95698   1.96489   1.97135   1.97899   1.98419
 Alpha virt. eigenvalues --    1.98930   2.00662   2.01715   2.01999   2.02258
 Alpha virt. eigenvalues --    2.02998   2.03970   2.04333   2.05297   2.06178
 Alpha virt. eigenvalues --    2.06753   2.07180   2.07394   2.08957   2.10130
 Alpha virt. eigenvalues --    2.10599   2.11663   2.11896   2.13265   2.14348
 Alpha virt. eigenvalues --    2.14908   2.15483   2.16502   2.17969   2.18295
 Alpha virt. eigenvalues --    2.19309   2.20323   2.20577   2.22235   2.22566
 Alpha virt. eigenvalues --    2.22770   2.24027   2.25086   2.25680   2.26890
 Alpha virt. eigenvalues --    2.27983   2.28440   2.30130   2.31181   2.32186
 Alpha virt. eigenvalues --    2.32814   2.34783   2.37456   2.38579   2.39235
 Alpha virt. eigenvalues --    2.40996   2.41539   2.42397   2.43841   2.45159
 Alpha virt. eigenvalues --    2.46595   2.47378   2.48048   2.49835   2.51213
 Alpha virt. eigenvalues --    2.51674   2.52876   2.54631   2.56538   2.56810
 Alpha virt. eigenvalues --    2.58061   2.58190   2.59535   2.59972   2.61932
 Alpha virt. eigenvalues --    2.62322   2.64154   2.64661   2.65012   2.65880
 Alpha virt. eigenvalues --    2.67162   2.68004   2.68400   2.69856   2.70010
 Alpha virt. eigenvalues --    2.71100   2.71530   2.72757   2.73600   2.73996
 Alpha virt. eigenvalues --    2.74094   2.74294   2.74629   2.74828   2.75526
 Alpha virt. eigenvalues --    2.75955   2.76975   2.77358   2.77607   2.77970
 Alpha virt. eigenvalues --    2.78261   2.78482   2.79340   2.79644   2.79810
 Alpha virt. eigenvalues --    2.81265   2.82334   2.82962   2.84570   2.85247
 Alpha virt. eigenvalues --    2.85468   2.85724   2.86600   2.87754   2.88481
 Alpha virt. eigenvalues --    2.89751   2.90726   2.91089   2.91846   2.93322
 Alpha virt. eigenvalues --    2.93644   2.94858   2.96361   2.99294   2.99738
 Alpha virt. eigenvalues --    3.00107   3.01132   3.02746   3.02829   3.05091
 Alpha virt. eigenvalues --    3.06481   3.07442   3.08941   3.11316   3.12161
 Alpha virt. eigenvalues --    3.13291   3.14756   3.17237   3.17863   3.19078
 Alpha virt. eigenvalues --    3.20341   3.22340   3.23176   3.23509   3.24097
 Alpha virt. eigenvalues --    3.25190   3.26870   3.29114   3.30199   3.31951
 Alpha virt. eigenvalues --    3.34413   3.36569   3.38180   3.40183   3.41197
 Alpha virt. eigenvalues --    3.42977   3.44210   3.44661   3.46096   3.47724
 Alpha virt. eigenvalues --    3.48606   3.49230   3.49903   3.50975   3.53193
 Alpha virt. eigenvalues --    3.54165   3.54803   3.57987   3.59074   3.60094
 Alpha virt. eigenvalues --    3.63763   3.64784   3.66165   3.68909   3.71352
 Alpha virt. eigenvalues --    3.74988   3.78378   3.81278   3.83880   3.88297
 Alpha virt. eigenvalues --    3.91100   3.95638   3.97510   4.00521   4.03761
 Alpha virt. eigenvalues --    4.07507   4.07977   4.09747   4.11152   4.12328
 Alpha virt. eigenvalues --    4.13179   4.21181   4.24513   4.29819   4.36322
 Alpha virt. eigenvalues --    4.41436   4.51946   4.62441   4.67356   4.78762
 Alpha virt. eigenvalues --    4.80981   4.83061   4.84142   4.88496   4.92494
 Alpha virt. eigenvalues --    4.96380  23.40143  23.65132  23.70043  23.77289
 Alpha virt. eigenvalues --   23.78633  23.82323  23.86121  23.90048  23.91328
 Alpha virt. eigenvalues --   23.92630  23.95210  23.96488  23.97302  23.98132
 Alpha virt. eigenvalues --   23.99923  24.00083  24.03627  24.04487  24.04865
 Alpha virt. eigenvalues --   24.06858  24.08304  24.08864  24.10799  24.15771
 Alpha virt. eigenvalues --   24.16807  24.16942  24.18460  24.23749  24.27402
 Alpha virt. eigenvalues --   24.36633
          Condensed to atoms (all electrons):
               1          2          3          4          5          6
     1  C   10.508593   0.387216  -0.157585   1.009092  -2.021953  -1.545360
     2  C    0.387216   7.674624   0.222074   0.555319   0.241001   0.400805
     3  C   -0.157585   0.222074   7.964623   0.526000   1.339955  -0.068409
     4  C    1.009092   0.555319   0.526000  10.305446  -2.089263  -0.817652
     5  C   -2.021953   0.241001   1.339955  -2.089263  11.204846   2.307616
     6  C   -1.545360   0.400805  -0.068409  -0.817652   2.307616   7.845197
     7  C    0.510674  -0.066248  -0.518486   0.539173  -0.957508  -0.315006
     8  C   -0.187783   0.204009   0.186300   0.239863  -0.073650  -0.013838
     9  C    0.156500  -0.662950   1.169738  -0.742085  -0.010215  -0.185981
    10  C    0.530081  -0.970458  -1.710753  -2.190624  -0.886056  -0.429371
    11  C   -0.341227   0.307261  -0.389185   0.366583  -0.442441  -0.168517
    12  C   -0.133662  -0.197772  -0.330742  -0.104088  -0.240769  -0.101977
    13  C    0.122368  -0.155156  -0.325132  -0.123280  -0.090472  -0.107396
    14  C   -0.060296  -0.188495  -0.404770  -0.416136  -0.090191   0.014494
    15  C    1.151376   0.496720  -0.253747  -0.180151  -0.842331  -0.138717
    16  C   -1.203005  -0.754944  -0.086291  -0.812125   0.278177  -0.066345
    17  C   -1.095299   0.776746  -0.172866  -0.052015  -0.512577  -0.036785
    18  C    0.337247  -0.311780  -0.638885   0.608941  -1.188306  -0.460276
    19  C    0.062604  -0.036173   0.203138  -0.182930  -0.019113  -0.031414
    20  C    0.284573   0.157845  -0.293528  -0.090216   0.179173  -0.000255
    21  C    0.053984   0.073186  -0.019984  -0.018065   0.019239  -0.006438
    22  C   -0.012456  -0.051169  -0.055710   0.002468  -0.001880   0.003931
    23  C   -1.237558  -1.094126   0.065962  -0.220158   0.052440  -0.091150
    24  C   -0.077520  -0.136100   0.031955   0.012032  -0.086731  -0.030525
    25  C    0.133295  -0.608511   0.143098  -0.157487   0.215933   0.029245
    26  C   -0.787347   0.018233  -0.321417  -0.048480  -0.077143  -0.001258
    27  C   -0.513785  -0.109353  -0.082375   0.105177  -0.232281  -0.052980
    28  C   -0.062575   0.153393   0.055706   0.048001  -0.017162  -0.004362
    29  C   -0.018707  -0.280442   0.008360  -0.018186   0.009958   0.001681
    30  C   -0.018221  -0.026724  -0.000490  -0.000324  -0.001644  -0.001125
    31  H    0.000053   0.000053   0.000018   0.000002   0.000001   0.000000
    32  H   -0.000029  -0.000040  -0.000012  -0.000017  -0.000002  -0.000001
    33  H   -0.008350  -0.002362  -0.009362  -0.000420  -0.001634  -0.000526
    34  H    0.000388  -0.000234   0.000030  -0.000003   0.000028   0.000002
    35  H    0.004769   0.001400   0.000116   0.000037   0.000364   0.000022
    36  H    0.051421   0.007452   0.001502   0.000244   0.008472   0.000744
    37  H   -0.056536   0.020464  -0.011410   0.003254   0.001905   0.001878
    38  H   -0.124350   0.014315   0.006132  -0.017882   0.401439  -0.015952
    39  H    0.000254   0.011005   0.040121  -0.120045   0.036834   0.391265
    40  H    0.007514  -0.020930   0.035065  -0.098635  -0.003683  -0.009931
    41  H    0.002669  -0.003738  -0.000482  -0.033831  -0.001543   0.000026
    42  H   -0.000178   0.005457  -0.013323   0.013638   0.000336   0.000223
    43  H    0.000002  -0.000355   0.002007  -0.000088  -0.000007   0.000013
    44  H   -0.000001   0.000053  -0.000006   0.000028   0.000001   0.000001
    45  H    0.000514   0.000147  -0.001513   0.000175   0.000084   0.000043
    46  H   -0.000277  -0.000461   0.000045   0.000014  -0.000022  -0.000009
               7          8          9         10         11         12
     1  C    0.510674  -0.187783   0.156500   0.530081  -0.341227  -0.133662
     2  C   -0.066248   0.204009  -0.662950  -0.970458   0.307261  -0.197772
     3  C   -0.518486   0.186300   1.169738  -1.710753  -0.389185  -0.330742
     4  C    0.539173   0.239863  -0.742085  -2.190624   0.366583  -0.104088
     5  C   -0.957508  -0.073650  -0.010215  -0.886056  -0.442441  -0.240769
     6  C   -0.315006  -0.013838  -0.185981  -0.429371  -0.168517  -0.101977
     7  C    7.333417  -0.151282  -0.568465   0.662118   0.269570   0.495823
     8  C   -0.151282  10.450854  -0.898430  -0.810461  -0.159595  -1.143440
     9  C   -0.568465  -0.898430  11.324682   1.173550  -1.371082  -0.846331
    10  C    0.662118  -0.810461   1.173550  10.892540  -0.398576   0.107591
    11  C    0.269570  -0.159595  -1.371082  -0.398576   9.166424   1.499877
    12  C    0.495823  -1.143440  -0.846331   0.107591   1.499877   9.494249
    13  C   -0.170216  -1.772879  -0.851395  -0.338433   0.652990   1.093234
    14  C    0.139861   1.527742  -1.464493   0.392529   0.824778   0.095428
    15  C    0.096208  -0.043084  -0.077177   0.117300   0.049787   0.030517
    16  C   -0.332171   0.068240  -0.088404  -0.256810  -0.786850  -0.521059
    17  C    0.049915  -0.267851  -0.239230  -0.061689   1.140438   0.118451
    18  C    0.555277  -0.175000  -0.331712   0.400107  -0.578549   0.461446
    19  C   -1.300950   0.655705   0.846250  -0.037614  -1.774676  -2.861801
    20  C   -0.095724  -1.251709  -0.152010  -0.301948  -1.375918  -0.613562
    21  C   -0.028405   0.436020   0.165945  -0.044993  -1.419271  -2.070091
    22  C    0.157594  -0.684905  -0.244111   0.016988   0.277135   1.552232
    23  C   -0.123980   0.059141  -0.018402  -0.003732   0.226374   0.042260
    24  C   -0.019782   0.024600  -0.005171   0.008054   0.311548   0.106750
    25  C    0.011541  -0.132361  -0.031574  -0.034838  -0.901886  -0.503576
    26  C   -0.229845  -0.015114  -0.027252  -0.064481  -0.108986  -0.355236
    27  C   -0.328559  -0.127646  -0.087849   0.149763   1.186043   0.228096
    28  C    0.201381   0.044726   0.019248   0.008953   0.233185   0.368518
    29  C   -0.034252  -0.013331  -0.004581   0.000484  -0.130890  -0.106673
    30  C    0.018269   0.017399   0.003106  -0.000031  -0.065135   0.046129
    31  H    0.000005   0.000015   0.000001   0.000000   0.000240  -0.000361
[...]
 00001293,-0.00000743,0.00001041,-0.00009670,0.00006912,-0.00004882,-0.
 00014045,-0.00000139,0.00001634,-0.00004635,-0.00001681,-0.00004671,0.
 00004074,-0.00001822,0.00005623,-0.00000372,0.00001093,0.00000239,0.00
 000576,0.00000510,-0.00002158,0.00001793,-0.00001398,-0.00001005,-0.00
 000913,0.00000310,-0.00000166,-0.00000772,0.00000582,-0.00000182,-0.00
 000770,-0.00000352,-0.00000524,-0.00000929,-0.00000323,-0.00000117,-0.
 00000643,-0.00000859,-0.00000201,-0.00000202,-0.00000996,0.00000030,-0
 .00000004,-0.00001222,-0.00000128,0.00001890,-0.00002403,-0.00000131,0
 .00059479,-0.00087630,-0.00001915,0.31130465,0.00007048,-0.00001907,0.
 00000777,-0.00016820,-0.00002714,-0.00006613,0.00010220,-0.00004585,0.
 00001023,-0.00000354,0.00001675,0.00000958,-0.00000963,-0.00003448,-0.
 00001170,-0.00002520,0.00000092,-0.00001121,-0.00003126,0.00007261,0.0
 0003328,0.00019828,-0.00002237,-0.00018526,-0.00000429,-0.00000116,0.0
 0001200,-0.00001341,0.00000027,0.00000080,-0.00107488,0.00060928,0.000
 25814,-0.00137170,-0.00334694,0.00190361,-0.02081916,0.00699143,0.0064
 5273,-0.00137544,0.00133828,0.00007958,-0.00000045,0.00002653,-0.00000
 470,-0.00000418,0.00000538,-0.00001291,0.00000272,-0.00000661,0.000020
 09,0.00002780,-0.00023347,0.00007737,0.05760929,-0.06868296,-0.0124883
 5,-0.00029380,-0.00059981,0.00030566,0.00072468,-0.00275893,0.00361546
 ,0.03014271,-0.00428370,-0.00858926,0.00000054,-0.00000259,-0.00000045
 ,-0.00001488,-0.00000093,-0.00001310,-0.00000755,-0.00000934,0.0000196
 0,-0.00002988,0.00000096,-0.00001641,-0.00001675,0.00006362,-0.0001273
 0,0.00007656,0.00002742,-0.00002915,-0.00003151,0.00003086,-0.00001324
 ,-0.00002627,0.00002343,-0.00005356,-0.00000222,0.00000119,0.00000248,
 0.00000022,0.00000897,0.00003002,0.00004646,-0.00000430,-0.00004085,0.
 00000365,0.00000048,0.00000587,0.00000076,-0.00000162,0.00000175,-0.00
 000067,0.00000326,0.00000015,-0.00000260,0.00000108,0.00000340,0.00000
 081,-0.00000565,0.00000438,-0.00000298,0.00000039,0.00000088,0.0000051
 2,0.00000372,0.00000202,-0.00000237,-0.00001970,0.00000136,0.00055258,
 -0.00026965,-0.00012722,-0.06491611,0.07145718,-0.00002620,0.00001762,
 -0.00001998,0.00007036,-0.00000983,0.00007089,-0.00001022,0.00008318,0
 .00003373,0.00001711,-0.00003462,-0.00002130,-0.00000869,0.00001553,-0
 .00000206,0.00002503,0.00001402,0.00001023,-0.00003530,-0.00013199,0.0
 0005170,-0.00017387,0.00006904,-0.00013776,0.00002097,0.00002473,0.000
 00385,-0.00002216,-0.00001136,0.00000990,0.00063893,-0.00015634,-0.000
 15552,0.00156502,0.00189890,0.00212576,0.01079974,-0.00371400,-0.00067
 308,-0.00046035,-0.00093943,-0.00095957,-0.00000555,-0.00000570,0.0000
 1065,-0.00000351,-0.00000997,0.00000801,0.00001423,-0.00004514,-0.0000
 0482,-0.00004869,0.00011203,-0.00017252,0.07671252,-0.01268436,-0.0613
 8214,-0.00029371,0.00024671,-0.00002451,0.00339975,0.00396274,0.009040
 18,-0.00459703,0.00215360,0.00517631,-0.00000956,0.00002214,-0.0000073
 4,-0.00000412,-0.00000997,-0.00000913,-0.00007038,0.00008670,-0.000070
 04,0.00003414,-0.00000864,0.00000359,-0.00014079,-0.00017059,-0.000225
 42,-0.00007101,0.00008858,-0.00004266,-0.00002288,-0.00012396,0.000001
 92,0.00004839,-0.00001264,0.00010383,0.00000265,-0.00001169,0.00000603
 ,-0.00000486,-0.00002291,-0.00005358,0.00001691,0.00001463,-0.00000519
 ,-0.00000278,-0.00000307,-0.00000558,-0.00000025,-0.00000157,0.0000017
 3,0.00000464,0.00000039,0.00000132,0.00000376,0.00000231,0.00000229,0.
 00000219,0.00000541,0.00000061,0.00000048,0.00000201,0.00000287,-0.000
 00294,0.00000207,0.00000059,-0.00000100,0.00001316,0.00001260,-0.00017
 702,0.00044205,0.00034992,-0.08467029,0.01099308,0.05260900,-0.0001161
 9,-0.00001918,-0.00002665,0.00007288,0.00011794,-0.00001334,-0.0000787
 9,-0.00009077,0.00006022,-0.00008088,0.00002808,-0.00001837,0.00001877
 ,0.00008400,0.00002372,0.00005868,-0.00004383,-0.00000485,-0.00006928,
 0.00022896,-0.00006659,0.00008257,0.00033296,-0.00043397,0.00000876,-0
 .00013922,-0.00004181,0.00012807,0.00002367,0.00003256,0.00013018,-0.0
 0012793,-0.00015203,0.00000332,0.00015425,-0.00023761,0.00051362,0.003
 53814,0.00291303,0.00053880,-0.00027246,-0.00018116,-0.00000560,-0.000
 09978,0.00000164,0.00010313,0.00003760,0.00006204,-0.00002601,-0.00019
 048,-0.00003090,-0.00014044,-0.00000474,0.00000639,0.00984334,0.009958
 94,-0.00431109,-0.00355235,0.00454032,0.00028187,-0.01312616,-0.020795
 72,0.01146618,-0.14787440,-0.11147220,0.07421987,-0.00001640,-0.000009
 08,-0.00001614,0.00001442,0.00000679,0.00001169,0.00005071,-0.00005675
 ,-0.00002798,0.00022554,0.00020341,0.00019810,-0.00041252,-0.00089387,
 0.00104889,0.00005984,-0.00039464,-0.00005276,0.00004097,0.00006795,0.
 00000612,-0.00004578,0.00006795,-0.00007930,-0.00002370,0.00003104,0.0
 0000381,-0.00000583,0.00001387,0.00002772,-0.00033967,0.00006749,0.000
 17942,-0.00002473,0.00000671,0.00000614,-0.00001661,0.00000562,-0.0000
 0428,-0.00000932,-0.00000528,-0.00000353,-0.00000404,-0.00000823,-0.00
 000600,-0.00000421,-0.00000511,-0.00000670,0.00000508,-0.00000406,0.00
 000084,0.00000729,0.00000099,0.00000060,0.00000455,-0.00000861,0.00000
 072,0.00002369,-0.00000385,0.00012080,0.00023606,-0.00078357,-0.002360
 72,0.15254544,-0.00002574,-0.00008771,0.00000502,-0.00001571,0.0000483
 0,-0.00001507,-0.00001016,0.00000258,-0.00000339,-0.00013560,0.0000206
 6,0.00001862,-0.00007064,0.00008233,-0.00000319,0.00009524,0.00001398,
 0.00001756,-0.00005414,0.00019739,0.00009576,0.00038011,-0.00014090,-0
 .00050369,-0.00021155,-0.00018358,0.00005995,0.00017122,-0.00001559,-0
 .00000636,-0.00006608,-0.00016550,-0.00005040,0.00026244,0.00033229,-0
 .00030633,0.00485671,-0.00210717,0.00226234,-0.00124135,-0.00084359,0.
 00056344,0.00000336,0.00001129,-0.00000578,-0.00003152,-0.00001807,-0.
 00001035,0.00002205,0.00001399,0.00004173,-0.00008833,-0.00008232,-0.0
 0001152,-0.01919014,-0.01812401,0.01397494,0.00220307,-0.00063946,-0.0
 0011956,0.00706904,0.00856071,-0.00482260,-0.10824474,-0.18731543,0.08
 577023,0.00000539,-0.00000912,-0.00000033,0.00000712,-0.00000360,0.000
 00220,0.00003482,-0.00000985,0.00002970,-0.00008678,-0.00001543,-0.000
 08505,0.00035740,0.00033352,-0.00028381,-0.00003485,0.00009017,0.00003
 135,-0.00000384,0.00005129,-0.00001411,-0.00002924,-0.00003197,0.00000
 643,0.00000650,0.00000064,-0.00000043,-0.00000155,-0.00000662,-0.00000
 752,0.00006383,-0.00000630,-0.00006955,-0.00000254,0.00000165,0.000001
 30,-0.00000271,0.00000417,0.00000112,-0.00000430,-0.00000238,-0.000000
 87,-0.00000574,-0.00000010,-0.00000190,-0.00000413,-0.00000018,-0.0000
 0494,0.00000039,-0.00000543,-0.00000558,-0.00001370,-0.00001617,-0.000
 00690,0.00000972,-0.00000064,-0.00000030,0.00009395,0.00000510,0.00010
 264,-0.00047200,0.00035804,-0.00195577,0.11570913,0.19892783,-0.000133
 65,-0.00011893,-0.00001335,0.00011180,0.00011773,0.00001331,-0.0001850
 0,-0.00004678,0.00002562,-0.00026301,0.00012823,0.00001219,-0.00010828
 ,0.00018058,0.00000700,0.00017547,0.00000087,0.00002266,-0.00017343,0.
 00065678,0.00014847,0.00020694,0.00055074,-0.00116382,-0.00013006,-0.0
 0034741,-0.00006606,0.00034551,0.00005054,0.00005289,0.00008410,-0.000
 67879,-0.00018246,-0.00048511,0.00038417,-0.00040614,0.00223948,0.0029
 0198,0.00913405,0.00030009,-0.00070063,-0.00001708,-0.00000370,-0.0000
 7009,-0.00000924,-0.00002903,0.00001851,0.00001957,0.00005005,-0.00014
 918,0.00004763,-0.00019966,-0.00014760,-0.00012764,0.00430764,0.001860
 90,0.00376117,0.00175000,-0.00125454,0.00113382,0.00368482,0.00476923,
 -0.00182311,0.07263399,0.08799910,-0.08861311,0.00000636,-0.00001500,-
 0.00000142,0.00001266,-0.00000529,-0.00000072,0.00006509,-0.00008508,0
 .00001908,0.00006126,0.00010717,-0.00000512,-0.00002161,0.00052999,0.0
 0030497,0.00011266,-0.00005131,0.00008796,0.00008079,0.00011656,0.0000
 5069,-0.00014287,0.00000990,-0.00012052,0.00000942,-0.00001138,0.00000
 100,-0.00001071,-0.00001893,0.00001103,0.00001722,0.00004232,-0.000044
 57,-0.00000169,0.00000094,0.00000801,0.00000067,0.00000028,0.00000542,
 0.00000018,0.00000070,0.00000307,0.00000357,0.00000046,-0.00000317,0.0
 0000316,0.00000338,-0.00000953,0.00000338,0.00000372,-0.00000455,0.000
 00679,0.00000141,0.00000622,-0.00000451,-0.00000230,0.00000478,0.00008
 454,0.00003345,0.00031558,-0.00239573,-0.00170722,-0.00536753,-0.08239
 900,-0.09513729,0.08209619,0.00032205,-0.00016547,0.00013539,-0.000121
 56,-0.00000253,0.00004384,0.00008049,-0.00025800,0.00012991,-0.0000092
 0,0.00004984,-0.00002196,0.00015067,0.00004973,0.00000644,-0.00003583,
 -0.00020062,-0.00004755,0.00015448,-0.00048362,-0.00021675,-0.00036003
 ,-0.00021467,0.00020070,0.00012439,0.00003090,-0.00008605,-0.00006104,
 0.00001208,0.00001744,-0.00163919,0.00003020,-0.00139222,-0.00018509,-
 0.00039690,0.00035181,-0.00106110,0.00021993,0.00018885,0.00050790,0.0
 0028409,-0.00020202,-0.00006433,0.00031919,-0.00007444,-0.00011891,-0.
 00021298,-0.00017191,-0.00012945,0.00125168,-0.00006179,0.00079975,-0.
 00031324,0.00071854,-0.00339073,-0.00164022,0.00139478,0.00959541,-0.0
 0400715,0.01355549,-0.09969558,0.03231794,-0.09499433,-0.01717119,0.01
 283166,-0.02310148,0.00001231,-0.00005092,0.00001864,-0.00001177,-0.00
 004224,0.00002638,0.00032826,-0.00051553,0.00030967,-0.00155483,-0.001
 12926,0.00022094,0.00035058,-0.00020658,-0.00140254,-0.00067933,0.0009
 1068,0.00103253,0.00003991,0.00017546,-0.00125573,0.00116790,-0.000293
 44,0.00080253,-0.00000231,-0.00000485,0.00002647,-0.00005536,-0.000014
 04,0.00005947,0.00029865,-0.00011913,-0.00018975,0.00000297,-0.0000098
 8,0.00000812,0.00000102,0.00000071,-0.00000339,-0.00000905,0.00000187,
 0.00000263,-0.00001582,-0.00000126,0.00001986,0.00000137,-0.00001083,0
 .00000008,0.00000724,0.00000996,0.00000853,0.00000917,0.00000869,0.000
 00738,-0.00000422,-0.00000266,-0.00000318,0.00007451,-0.00005238,0.000
 00820,0.00039246,0.00114035,0.00157328,0.00071008,-0.00046542,0.000966
 91,0.11256206,0.00044353,-0.00039110,0.00014515,-0.00009827,-0.0003548
 6,-0.00000488,0.00013448,0.00009419,0.00000429,-0.00013069,-0.00037894
 ,-0.00003476,-0.00004426,0.00026037,0.00003352,0.00031126,-0.00011304,
 0.00005077,-0.00000021,-0.00087473,-0.00007563,-0.00060252,-0.00041522
 ,0.00024025,0.00007520,0.00016270,-0.00001589,-0.00019616,-0.00002000,
 0.00001649,-0.00165164,-0.00046221,-0.00098623,-0.00276812,0.00132707,
 0.00083598,0.00046363,-0.00110374,0.00096923,0.00030745,0.00116709,-0.
 00020243,-0.00013792,0.00051108,-0.00006554,-0.00006470,-0.00037044,-0
 .00009408,0.00003888,0.00083966,-0.00012588,0.00099111,0.00009932,0.00
 059828,0.00115668,0.00175882,-0.00087661,0.00961654,-0.01299014,0.0205
 8482,0.03463685,-0.05539066,0.06272010,0.00951764,-0.00605057,0.006678
 57,-0.00002809,0.00010546,-0.00005114,-0.00000214,-0.00008030,-0.00001
 845,-0.00021238,0.00111541,-0.00005230,-0.00004295,-0.00090358,-0.0002
 5134,0.00017556,-0.00013329,-0.00043092,-0.00122169,0.00028009,-0.0005
 6370,-0.00069302,-0.00045308,-0.00014753,0.00028330,-0.00014118,0.0006
 4468,0.00002647,-0.00001452,-0.00001167,0.00025358,0.00013655,-0.00015
 495,0.00008892,-0.00020568,0.00011646,0.00003360,-0.00000638,-0.000027
 40,-0.00000167,0.00001428,0.00001739,-0.00000964,-0.00000530,-0.000004
 14,-0.00002368,0.00000475,0.00002551,-0.00000556,-0.00000229,-0.000009
 65,0.00000913,0.00000216,-0.00001785,0.00000249,-0.00000714,0.00000737
 ,0.00000258,0.00000879,-0.00000908,-0.00003732,-0.00002236,-0.00009020
 ,0.00001178,-0.00043941,-0.00046061,-0.00026144,0.00030204,-0.00028027
 ,-0.03885978,0.06883521,-0.00019189,0.00021266,-0.00010703,0.00012837,
 -0.00006550,0.00005335,-0.00013880,0.00015636,-0.00002951,0.00023066,-
 0.00000616,-0.00000386,-0.00004366,-0.00012221,-0.00000108,-0.00010256
 ,0.00012651,0.00000084,-0.00000676,0.00037463,0.00014411,0.00027086,-0
 .00002405,-0.00004987,-0.00001461,0.00011081,0.00003208,-0.00010415,-0
 .00007239,-0.00000041,0.00111545,0.00016239,0.00061545,0.00095683,-0.0
 0143388,-0.00090252,0.00015852,0.00076098,-0.00033567,-0.00024743,-0.0
 0066543,0.00004273,-0.00003161,-0.00020161,0.00002341,-0.00000168,0.00
 011698,-0.00000414,-0.00022201,-0.00007384,0.00000500,-0.00006649,-0.0
 0003566,-0.00056259,0.00079773,-0.00153791,-0.00022985,-0.00307352,0.0
 0791947,-0.01175844,-0.09615630,0.06025671,-0.19861185,0.00338626,-0.0
 0301079,0.01004690,-0.00000618,-0.00000149,0.00002401,-0.00003832,0.00
 007171,0.00000567,-0.00007439,-0.00031599,-0.00030379,0.00026348,0.000
 38763,0.00103495,-0.00043633,0.00092214,0.00047671,-0.00141257,-0.0006
 9446,-0.00023386,0.00063107,-0.00050143,-0.00012684,0.00058793,-0.0000
 0389,0.00105033,0.00001240,-0.00003601,-0.00007451,0.00027382,0.000165
 65,-0.00016014,-0.00014118,0.00016030,-0.00011603,0.00001173,0.0000048
 5,-0.00006542,-0.00000486,-0.00000947,-0.00001466,0.00001034,0.0000024
 7,0.00000334,0.00002014,0.00000146,-0.00001319,0.00000242,0.00000985,0
 .00000539,-0.00000606,-0.00000350,0.00000033,-0.00000666,0.00000094,-0
 .00000457,0.00000179,-0.00000362,-0.00000215,-0.00001730,0.00001382,0.
 00001740,-0.00013129,-0.00036007,-0.00066050,-0.00072968,0.00036989,0.
 00027137,0.10503994,-0.06547515,0.22088882,-0.00071526,0.00027123,-0.0
 0012039,0.00003176,0.00122945,-0.00009071,0.00015788,-0.00061697,-0.00
 000588,-0.00029590,0.00073230,0.00006473,0.00022842,-0.00014398,-0.000
 03684,-0.00035015,-0.00016167,-0.00009002,-0.00017432,0.00061491,-0.00
 020227,0.00082567,0.00103949,-0.00012175,-0.00009201,-0.00067252,-0.00
 008708,0.00068468,0.00022332,-0.00002961,0.00195434,0.00024566,0.00000
 370,0.00007345,-0.00343388,0.00163821,-0.00103146,0.00153140,0.0012140
 3,0.00016316,-0.00164953,-0.00010851,0.00037250,-0.00078012,0.00008044
 ,0.00009936,0.00058606,0.00008178,0.00021462,-0.00097030,0.00046715,-0
 .00193172,-0.00046255,0.00010345,-0.00383439,-0.00164268,0.00181203,0.
 00026106,-0.01045343,-0.01113265,-0.04385324,-0.01361211,-0.00159843,-
 0.00078749,0.02768212,0.01706947,0.00007652,-0.00038078,0.00007496,0.0
 0013902,0.00008623,0.00013646,0.00135350,-0.00259389,0.00082371,-0.001
 34231,0.00134085,-0.00102740,0.00056692,-0.00046305,0.00049766,0.00238
 392,-0.00017157,0.00025771,0.00130625,0.00286665,0.00096918,-0.0031268
 0,0.00028290,-0.00233716,-0.00007359,0.00004889,0.00004116,-0.00097251
 ,0.00005568,0.00150423,0.00004397,-0.00016603,-0.00029409,0.00005319,0
 .00005671,0.00011053,0.00000439,0.00000147,-0.00001142,-0.00001999,-0.
 00000390,0.00000365,-0.00000106,-0.00002073,-0.00002608,0.00000140,-0.
 00002396,0.00000521,-0.00000037,0.00000505,0.00002879,0.00001426,0.000
 01218,-0.00000378,-0.00000018,-0.00002548,0.00003294,-0.00002801,-0.00
 010658,-0.00012725,-0.00086285,0.00032729,-0.00172622,0.00054710,-0.00
 083899,-0.00063750,-0.00131772,-0.01148679,-0.01049344,0.04925402,0.00
 074496,-0.00066909,0.00023500,-0.00016767,-0.00048582,-0.00020591,0.00
 024332,0.00009454,0.00031838,-0.00017523,-0.00050912,-0.00019302,-0.00
 017085,0.00036206,0.00003684,0.00047813,-0.00006052,0.00003131,0.00012
 555,-0.00115821,0.00016794,-0.00094115,-0.00058394,0.00012862,0.000064
 60,0.00019421,0.00005343,-0.00025172,-0.00003561,0.00001404,-0.0009922
 8,-0.00064742,0.00056509,-0.00374222,0.00056269,0.00053817,-0.00052199
 ,-0.00178327,-0.00025491,0.00035152,0.00163392,-0.00022671,-0.00022519
 ,0.00092526,-0.00013024,0.00009062,-0.00063793,0.00000204,-0.00000594,
 0.00108995,0.00014902,0.00125934,0.00034209,0.00025720,0.00081399,0.00
 289700,-0.00167059,-0.00443964,-0.02692580,-0.00761175,-0.01195307,-0.
 19606789,-0.11228146,0.00520060,-0.00862722,-0.00406116,-0.00001890,0.
 00033056,-0.00005475,-0.00017936,-0.00014692,-0.00006520,-0.00052049,0
 .00254980,-0.00026922,0.00117087,-0.00162274,0.00037086,0.00151346,0.0
 0033338,0.00035055,-0.00205597,0.00034105,-0.00088634,-0.00176581,-0.0
 0167682,-0.00154656,0.00257964,-0.00047768,0.00164526,0.00000972,0.000
 01853,0.00002961,0.00112774,0.00058652,-0.00028861,-0.00004537,-0.0001
 7972,0.00003705,0.00005528,-0.00003333,-0.00004135,0.00001820,0.000010
 53,0.00002559,-0.00000030,0.00000236,-0.00002696,-0.00003949,0.0000074
 8,0.00004700,-0.00000480,0.00000200,-0.00001627,0.00000111,-0.00000983
 ,0.00001393,-0.00000069,-0.00000881,0.00000405,0.00000571,0.00000556,-
 0.00000229,0.00004961,0.00000856,0.00009371,0.00017884,-0.00022636,0.0
 0025352,0.00046499,0.00047316,0.00035838,0.00002865,0.00430511,0.00234
 631,0.01164167,0.22549774,0.00073048,-0.00053995,0.00019153,-0.0001202
 6,-0.00069597,-0.00000601,0.00012162,0.00038024,0.00004108,-0.00004442
 ,-0.00052381,-0.00007552,-0.00021993,0.00028253,0.00002215,0.00042111,
 0.00002712,0.00008465,0.00029063,-0.00083898,0.00023301,-0.00066419,-0
 .00043726,0.00013114,0.00000150,0.00024206,0.00004157,-0.00030331,-0.0
 0006154,0.00001169,-0.00203509,0.00032803,-0.00048502,0.00073437,0.002
 75424,-0.00216382,0.00056024,-0.00066031,-0.00016883,0.00005334,0.0009
 7896,-0.00000572,-0.00028420,0.00091716,-0.00011973,-0.00002861,-0.000
 63545,-0.00010132,-0.00024814,0.00138947,-0.00022173,0.00148781,0.0002
 4448,0.00020612,0.00068876,0.00125239,-0.00093707,-0.00015637,0.013963
 26,0.01081060,-0.00225004,-0.11018190,-0.11618936,0.00058729,-0.004850
 96,-0.00325831,-0.00004956,0.00032230,-0.00005484,-0.00016971,-0.00012
 463,-0.00011796,-0.00077790,0.00211505,-0.00024264,0.00051920,-0.00155
 832,0.00086404,-0.00030265,-0.00068938,0.00020772,-0.00116540,0.000281
 02,-0.00078194,-0.00177206,-0.00201373,-0.00157509,0.00254512,-0.00042
 516,0.00157053,-0.00001733,0.00004966,0.00009376,0.00175368,-0.0001113
 7,-0.00129016,-0.00008744,0.00010100,0.00011828,0.00004071,-0.00004377
 ,-0.00014097,0.00000181,-0.00000216,0.00001033,0.00000407,0.00000419,-
 0.00000934,-0.00002445,0.00000932,0.00003692,-0.00000246,0.00001399,-0
 .00001054,0.00000440,0.00000053,-0.00001947,-0.00000565,-0.00001082,0.
 00000788,-0.00000197,0.00001991,-0.00001376,-0.00002712,0.00003361,-0.
 00000091,0.00004239,0.00000680,0.00036268,0.00053209,0.00007839,0.0004
 1540,-0.00364966,-0.02315063,-0.02036972,0.00328730,0.12176039,0.13289
 868\\0.00000481,0.00001111,0.00000112,-0.00002116,0.00000284,0.0000018
 5,-0.00000052,-0.00002715,0.00001162,0.00000565,0.00001061,-0.00000322
 ,0.00001041,-0.00001358,0.00000216,-0.00001523,0.00000033,0.00000059,0
 .00002280,0.00001871,-0.00000462,-0.00000783,-0.00000820,0.00000101,-0
 .00000528,-0.00000313,-0.00000412,0.00000806,0.00000145,-0.00000465,-0
 .00002291,-0.00001791,0.00000834,-0.00002051,0.00001172,0.00000971,0.0
 0002682,-0.00001997,-0.00002189,-0.00000036,0.00001298,-0.00000290,0.0
 0000135,0.00000297,0.00000708,-0.00001044,-0.00001310,-0.00000138,-0.0
 0000709,0.00001066,0.00000038,0.00002936,0.00000075,-0.00000079,-0.000
 00641,0.00000117,-0.00000044,0.00003050,0.00002303,-0.00001182,-0.0000
 0952,-0.00000159,-0.00000035,-0.00000161,-0.00000051,-0.00000413,0.000
 00120,-0.00000186,0.00000453,0.00000351,0.00000028,0.00000546,-0.00000
 715,0.00000307,-0.00000125,0.00000488,0.00000731,0.00000571,-0.0000270
 1,-0.00000984,0.00000475,0.00000887,-0.00001772,-0.00000224,0.00000241
 ,-0.00000138,0.00000045,-0.00000290,0.00000686,-0.00000038,0.00000200,
 -0.00000085,0.00000080,0.00000356,0.00000329,-0.00000294,0.00000730,-0
 .00000113,-0.00000341,-0.00000320,-0.00000097,0.00000443,-0.00000352,-
 0.00000007,0.00000560,-0.00000251,0.00000068,0.00000438,-0.00000080,0.
 00000046,0.00000387,-0.00000112,0.00000148,0.00000358,0.00000162,-0.00
 000024,0.00000108,-0.00000066,0.00000016,-0.00000168,0.00000107,0.0000
 0104,-0.00000256,0.00000066,0.00000063,-0.00000415,0.00000026,0.000001
 10,-0.00000607,-0.00000213,-0.00000014,-0.00000613,0.00000099,0.000000
 41,0.00000246,0.00000178,0.00000421,0.00000015\\\@


 IN THE FIGHT BETWEEN YOU AND THE WORLD, BACK THE WORLD

                                        -- FRANZ KAFKA
 Job cpu time:       1 days  1 hours  5 minutes 47.7 seconds.
 Elapsed time:       0 days  1 hours 15 minutes 30.2 seconds.
 File lengths (MBytes):  RWF=   2293 Int=      0 D2E=      0 Chk=     57 Scr=      1
 Normal termination of Gaussian 16 at Wed Jun 12 17:44:24 2019.
