 Entering Gaussian System, Link 0=/share/apps/gaussian16/g16/g16
 Initial command:
 /share/apps/gaussian16/g16/l1.exe "/home/amen01//scratch/460/Gau-45776.inp" -scrdir="/home/amen01//scratch/460/"
 Entering Link 1 = /share/apps/gaussian16/g16/l1.exe PID=     45777.
  
 Copyright (c) 1988-2017, Gaussian, Inc.  All Rights Reserved.
  
 This is part of the Gaussian(R) 16 program.  It is based on
 the Gaussian(R) 09 system (copyright 2009, Gaussian, Inc.),
 the Gaussian(R) 03 system (copyright 2003, Gaussian, Inc.),
 the Gaussian(R) 98 system (copyright 1998, Gaussian, Inc.),
 the Gaussian(R) 94 system (copyright 1995, Gaussian, Inc.),
 the Gaussian 92(TM) system (copyright 1992, Gaussian, Inc.),
 the Gaussian 90(TM) system (copyright 1990, Gaussian, Inc.),
 the Gaussian 88(TM) system (copyright 1988, Gaussian, Inc.),
 the Gaussian 86(TM) system (copyright 1986, Carnegie Mellon
 University), and the Gaussian 82(TM) system (copyright 1983,
 Carnegie Mellon University). Gaussian is a federally registered
 trademark of Gaussian, Inc.
  
 This software contains proprietary and confidential information,
 including trade secrets, belonging to Gaussian, Inc.
  
 This software is provided under written license and may be
 used, copied, transmitted, or stored only in accord with that
 written license.
  
 The following legend is applicable only to US Government
 contracts under FAR:
  
                    RESTRICTED RIGHTS LEGEND
  
 Use, reproduction and disclosure by the US Government is
 subject to restrictions as set forth in subparagraphs (a)
 and (c) of the Commercial Computer Software - Restricted
 Rights clause in FAR 52.227-19.
  
 Gaussian, Inc.
 340 Quinnipiac St., Bldg. 40, Wallingford CT 06492
  
  
 ---------------------------------------------------------------
 Warning -- This program may not be used in any manner that
 competes with the business of Gaussian, Inc. or will provide
 assistance to any competitor of Gaussian, Inc.  The licensee
 of this program is prohibited from giving any competitor of
 Gaussian, Inc. access to this program.  By using this program,
 the user acknowledges that Gaussian, Inc. is engaged in the
 business of creating and licensing software in the field of
 computational chemistry and represents and warrants to the
 licensee that it is not a competitor of Gaussian, Inc. and that
 it will not use this program in any manner prohibited above.
 ---------------------------------------------------------------
  

 Cite this work as:
 Gaussian 16, Revision B.01,
 M. J. Frisch, G. W. Trucks, H. B. Schlegel, G. E. Scuseria, 
 M. A. Robb, J. R. Cheeseman, G. Scalmani, V. Barone, 
 G. A. Petersson, H. Nakatsuji, X. Li, M. Caricato, A. V. Marenich, 
 J. Bloino, B. G. Janesko, R. Gomperts, B. Mennucci, H. P. Hratchian, 
 J. V. Ortiz, A. F. Izmaylov, J. L. Sonnenberg, D. Williams-Young, 
 F. Ding, F. Lipparini, F. Egidi, J. Goings, B. Peng, A. Petrone, 
 T. Henderson, D. Ranasinghe, V. G. Zakrzewski, J. Gao, N. Rega, 
 G. Zheng, W. Liang, M. Hada, M. Ehara, K. Toyota, R. Fukuda, 
 J. Hasegawa, M. Ishida, T. Nakajima, Y. Honda, O. Kitao, H. Nakai, 
 T. Vreven, K. Throssell, J. A. Montgomery, Jr., J. E. Peralta, 
 F. Ogliaro, M. J. Bearpark, J. J. Heyd, E. N. Brothers, K. N. Kudin, 
 V. N. Staroverov, T. A. Keith, R. Kobayashi, J. Normand, 
 K. Raghavachari, A. P. Rendell, J. C. Burant, S. S. Iyengar, 
 J. Tomasi, M. Cossi, J. M. Millam, M. Klene, C. Adamo, R. Cammi, 
 J. W. Ochterski, R. L. Martin, K. Morokuma, O. Farkas, 
 J. B. Foresman, and D. J. Fox, Gaussian, Inc., Wallingford CT, 2016.
 
 ******************************************
 Gaussian 16:  ES64L-G16RevB.01 20-Dec-2017
                12-Jun-2019 
 ******************************************
 %nprocshared=20
 Will use up to   20 processors via shared memory.
 %mem=100GB
 %chk=7-memb-carb-2b.chk
 -------------------------------------------
 # opt freq b3lyp/6-311+g(d,p) int=grid=fine
 -------------------------------------------
 1/18=20,19=15,26=3,38=1/1,3;
 2/9=110,12=2,17=6,18=5,40=1/2;
 3/5=4,6=6,7=111,11=2,25=1,30=1,71=1,74=-5,75=-4/1,2,3;
 4//1;
 5/5=2,38=5/2;
 6/7=2,8=2,9=2,10=2,28=1/1;
 7//1,2,3,16;
 1/18=20,19=15,26=3/3(2);
 2/9=110/2;
 99//99;
 2/9=110/2;
 3/5=4,6=6,7=111,11=2,25=1,30=1,71=1,74=-5,75=-4/1,2,3;
 4/5=5,16=3,69=1/1;
 5/5=2,38=5/2;
 7//1,2,3,16;
 1/18=20,19=15,26=3/3(-5);
 2/9=110/2;
 6/7=2,8=2,9=2,10=2,19=2,28=1/1;
 99/9=1/99;
 --------------
 7-memb-carb-2b
 --------------
 Symbolic Z-matrix:
 Charge =  0 Multiplicity = 1
 C                    -6.97543   0.02002  -0.29387 
 C                    -5.7527    0.62722  -0.12069 
 C                    -4.61211  -0.06609   0.10482 
 C                    -4.51139  -1.44415   0.17021 
 C                    -6.95885  -1.40719  -0.25032 
 C                    -5.7461   -2.12705  -0.02027 
 C                    -3.58188   0.79887   0.24472 
 C                    -2.2798    0.39519   0.44384 
 C                    -2.09272  -1.01639   0.54612 
 C                    -3.1912   -1.92096   0.41151 
 C                    -4.0518    2.09205   0.09541 
 C                    -3.1738    3.1516    0.04959 
 C                    -1.78627   2.81682   0.24027 
 C                    -1.3623    1.46829   0.47252 
 C                    -8.02965   0.94104  -0.46072 
 C                    -7.80457   2.35398  -0.38096 
 C                    -6.49375   2.91871  -0.19582 
 C                    -5.47696   1.98721  -0.10819 
 C                    -0.83479   3.8326    0.1284 
 C                    -3.60519   4.47369  -0.30742 
 C                    -2.5523    5.42406  -0.48073 
 C                    -1.20917   5.11995  -0.24405 
 C                    -8.89355   3.21397  -0.42534 
 C                    -8.72233   4.57543  -0.19937 
 C                    -7.45835   5.12514   0.05617 
 C                    -6.27875   4.33315   0.00814 
 C                    -5.00724   5.02546   0.20583 
 C                    -5.00701   6.31734   0.82253 
 C                    -7.39698   6.48514   0.36059 
 C                    -6.19795   7.07222   0.73466 
 H                    -6.18247   8.12786   1.00401 
 H                    -4.91365   6.14613   1.93979 
 H                    -8.29464   7.10023   0.35531 
 H                    -9.60927   5.20741  -0.19135 
 H                    -9.90038   2.83276  -0.58029 
 H                    -9.0397    0.55889  -0.59426 
 H                    -7.88704  -1.95866  -0.38091 
 H                    -5.77027  -3.21363   0.01227 
 H                    -3.0107   -2.99088   0.48252 
 H                    -1.09378  -1.41464   0.708 
 H                    -0.30528   1.24873   0.60725 
 H                     0.22155   3.61875   0.27581 
 H                    -0.45043   5.8868   -0.37915 
 H                    -2.78573   6.42365  -0.84783 
 H                    -4.05428   4.35118  -1.34111 
 H                    -4.13663   6.98918   0.71387 
 

 GradGradGradGradGradGradGradGradGradGradGradGradGradGradGradGradGradGrad
 Berny optimization.
 Initialization pass.
                           ----------------------------
                           !    Initial Parameters    !
                           ! (Angstroms and Degrees)  !
 --------------------------                            --------------------------
 ! Name  Definition              Value          Derivative Info.                !
 --------------------------------------------------------------------------------
 ! R1    R(1,2)                  1.3761         estimate D2E/DX2                !
 ! R2    R(1,5)                  1.428          estimate D2E/DX2                !
 ! R3    R(1,15)                 1.4098         estimate D2E/DX2                !
 ! R4    R(2,3)                  1.3537         estimate D2E/DX2                !
 ! R5    R(2,18)                 1.3877         estimate D2E/DX2                !
 ! R6    R(3,4)                  1.3833         estimate D2E/DX2                !
 ! R7    R(3,7)                  1.3524         estimate D2E/DX2                !
 ! R8    R(4,6)                  1.4238         estimate D2E/DX2                !
 ! R9    R(4,10)                 1.4242         estimate D2E/DX2                !
 ! R10   R(5,6)                  1.4289         estimate D2E/DX2                !
 ! R11   R(5,37)                 1.0875         estimate D2E/DX2                !
 ! R12   R(6,38)                 1.0873         estimate D2E/DX2                !
 ! R13   R(7,8)                  1.3777         estimate D2E/DX2                !
 ! R14   R(7,11)                 1.384          estimate D2E/DX2                !
 ! R15   R(8,9)                  1.4276         estimate D2E/DX2                !
 ! R16   R(8,14)                 1.4122         estimate D2E/DX2                !
 ! R17   R(9,10)                 1.4293         estimate D2E/DX2                !
 ! R18   R(9,40)                 1.0875         estimate D2E/DX2                !
 ! R19   R(10,39)                1.0874         estimate D2E/DX2                !
 ! R20   R(11,12)                1.3768         estimate D2E/DX2                !
 ! R21   R(11,18)                1.4434         estimate D2E/DX2                !
 ! R22   R(12,13)                1.44           estimate D2E/DX2                !
 ! R23   R(12,20)                1.4358         estimate D2E/DX2                !
 ! R24   R(13,14)                1.4326         estimate D2E/DX2                !
 ! R25   R(13,19)                1.3963         estimate D2E/DX2                !
 ! R26   R(14,41)                1.088          estimate D2E/DX2                !
 ! R27   R(15,16)                1.433          estimate D2E/DX2                !
 ! R28   R(15,36)                1.0882         estimate D2E/DX2                !
 ! R29   R(16,17)                1.4393         estimate D2E/DX2                !
 ! R30   R(16,23)                1.3883         estimate D2E/DX2                !
 ! R31   R(17,18)                1.3818         estimate D2E/DX2                !
 ! R32   R(17,26)                1.4452         estimate D2E/DX2                !
 ! R33   R(19,22)                1.3915         estimate D2E/DX2                !
 ! R34   R(19,42)                1.0878         estimate D2E/DX2                !
 ! R35   R(20,21)                1.4289         estimate D2E/DX2                !
 ! R36   R(20,27)                1.5917         estimate D2E/DX2                !
 ! R37   R(20,45)                1.1337         estimate D2E/DX2                !
 ! R38   R(21,22)                1.3973         estimate D2E/DX2                !
 ! R39   R(21,44)                1.0902         estimate D2E/DX2                !
 ! R40   R(22,43)                1.0872         estimate D2E/DX2                !
 ! R41   R(23,24)                1.3907         estimate D2E/DX2                !
 ! R42   R(23,35)                1.0877         estimate D2E/DX2                !
 ! R43   R(24,25)                1.4018         estimate D2E/DX2                !
 ! R44   R(24,34)                1.0891         estimate D2E/DX2                !
 ! R45   R(25,26)                1.4216         estimate D2E/DX2                !
 ! R46   R(25,29)                1.395          estimate D2E/DX2                !
 ! R47   R(26,27)                1.4612         estimate D2E/DX2                !
 ! R48   R(27,28)                1.4315         estimate D2E/DX2                !
 ! R49   R(28,30)                1.4128         estimate D2E/DX2                !
 ! R50   R(28,32)                1.1342         estimate D2E/DX2                !
 ! R51   R(28,46)                1.1049         estimate D2E/DX2                !
 ! R52   R(29,30)                1.3865         estimate D2E/DX2                !
 ! R53   R(29,33)                1.0882         estimate D2E/DX2                !
 ! R54   R(30,31)                1.0896         estimate D2E/DX2                !
 ! A1    A(2,1,5)              115.2675         estimate D2E/DX2                !
 ! A2    A(2,1,15)             113.0204         estimate D2E/DX2                !
 ! A3    A(5,1,15)             131.7014         estimate D2E/DX2                !
 ! A4    A(1,2,3)              122.9311         estimate D2E/DX2                !
 ! A5    A(1,2,18)             127.5969         estimate D2E/DX2                !
 ! A6    A(3,2,18)             109.4515         estimate D2E/DX2                !
 ! A7    A(2,3,4)              125.4122         estimate D2E/DX2                !
 ! A8    A(2,3,7)              109.3607         estimate D2E/DX2                !
 ! A9    A(4,3,7)              125.2247         estimate D2E/DX2                !
 ! A10   A(3,4,6)              114.1019         estimate D2E/DX2                !
 ! A11   A(3,4,10)             114.1432         estimate D2E/DX2                !
 ! A12   A(6,4,10)             131.7545         estimate D2E/DX2                !
 ! A13   A(1,5,6)              121.216          estimate D2E/DX2                !
 ! A14   A(1,5,37)             119.5541         estimate D2E/DX2                !
 ! A15   A(6,5,37)             119.2246         estimate D2E/DX2                !
 ! A16   A(4,6,5)              121.0584         estimate D2E/DX2                !
 ! A17   A(4,6,38)             119.642          estimate D2E/DX2                !
 ! A18   A(5,6,38)             119.2993         estimate D2E/DX2                !
 ! A19   A(3,7,8)              123.1959         estimate D2E/DX2                !
 ! A20   A(3,7,11)             109.1343         estimate D2E/DX2                !
 ! A21   A(8,7,11)             127.6101         estimate D2E/DX2                !
 ! A22   A(7,8,9)              115.0833         estimate D2E/DX2                !
 ! A23   A(7,8,14)             113.2245         estimate D2E/DX2                !
 ! A24   A(9,8,14)             131.6657         estimate D2E/DX2                !
 ! A25   A(8,9,10)             121.2183         estimate D2E/DX2                !
 ! A26   A(8,9,40)             119.5466         estimate D2E/DX2                !
 ! A27   A(10,9,40)            119.2218         estimate D2E/DX2                !
 ! A28   A(4,10,9)             121.0951         estimate D2E/DX2                !
 ! A29   A(4,10,39)            119.6266         estimate D2E/DX2                !
 ! A30   A(9,10,39)            119.2738         estimate D2E/DX2                !
 ! A31   A(7,11,12)            120.4066         estimate D2E/DX2                !
 ! A32   A(7,11,18)            106.4149         estimate D2E/DX2                !
 ! A33   A(12,11,18)           132.9082         estimate D2E/DX2                !
 ! A34   A(11,12,13)           115.5398         estimate D2E/DX2                !
 ! A35   A(11,12,20)           121.6884         estimate D2E/DX2                !
 ! A36   A(13,12,20)           122.4457         estimate D2E/DX2                !
 ! A37   A(12,13,14)           121.7003         estimate D2E/DX2                !
 ! A38   A(12,13,19)           118.4802         estimate D2E/DX2                !
 ! A39   A(14,13,19)           119.7442         estimate D2E/DX2                !
 ! A40   A(8,14,13)            121.3157         estimate D2E/DX2                !
 ! A41   A(8,14,41)            118.7116         estimate D2E/DX2                !
 ! A42   A(13,14,41)           119.8404         estimate D2E/DX2                !
 ! A43   A(1,15,16)            121.3407         estimate D2E/DX2                !
 ! A44   A(1,15,36)            118.6335         estimate D2E/DX2                !
 ! A45   A(16,15,36)           119.9279         estimate D2E/DX2                !
 ! A46   A(15,16,17)           122.4869         estimate D2E/DX2                !
 ! A47   A(15,16,23)           119.065          estimate D2E/DX2                !
 ! A48   A(17,16,23)           118.3885         estimate D2E/DX2                !
 ! A49   A(16,17,18)           114.4466         estimate D2E/DX2                !
 ! A50   A(16,17,26)           122.5266         estimate D2E/DX2                !
 ! A51   A(18,17,26)           122.7783         estimate D2E/DX2                !
 ! A52   A(2,18,11)            105.583          estimate D2E/DX2                !
 ! A53   A(2,18,17)            120.923          estimate D2E/DX2                !
 ! A54   A(11,18,17)           133.3562         estimate D2E/DX2                !
 ! A55   A(13,19,22)           120.7408         estimate D2E/DX2                !
 ! A56   A(13,19,42)           120.5208         estimate D2E/DX2                !
 ! A57   A(22,19,42)           118.648          estimate D2E/DX2                !
 ! A58   A(12,20,21)           114.9103         estimate D2E/DX2                !
 ! A59   A(12,20,27)           120.2432         estimate D2E/DX2                !
 ! A60   A(12,20,45)           104.255          estimate D2E/DX2                !
 ! A61   A(21,20,27)           117.2316         estimate D2E/DX2                !
 ! A62   A(21,20,45)           104.6654         estimate D2E/DX2                !
 ! A63   A(27,20,45)            88.9995         estimate D2E/DX2                !
 ! A64   A(20,21,22)           122.8863         estimate D2E/DX2                !
 ! A65   A(20,21,44)           119.532          estimate D2E/DX2                !
 ! A66   A(22,21,44)           117.5433         estimate D2E/DX2                !
 ! A67   A(19,22,21)           120.3523         estimate D2E/DX2                !
 ! A68   A(19,22,43)           119.872          estimate D2E/DX2                !
 ! A69   A(21,22,43)           119.7531         estimate D2E/DX2                !
 ! A70   A(16,23,24)           120.3094         estimate D2E/DX2                !
 ! A71   A(16,23,35)           120.8995         estimate D2E/DX2                !
 ! A72   A(24,23,35)           118.701          estimate D2E/DX2                !
 ! A73   A(23,24,25)           121.637          estimate D2E/DX2                !
 ! A74   A(23,24,34)           117.9709         estimate D2E/DX2                !
 ! A75   A(25,24,34)           120.3585         estimate D2E/DX2                !
 ! A76   A(24,25,26)           121.5701         estimate D2E/DX2                !
 ! A77   A(24,25,29)           117.4997         estimate D2E/DX2                !
 ! A78   A(26,25,29)           120.9302         estimate D2E/DX2                !
 ! A79   A(17,26,25)           115.2511         estimate D2E/DX2                !
 ! A80   A(17,26,27)           127.7545         estimate D2E/DX2                !
 ! A81   A(25,26,27)           116.9694         estimate D2E/DX2                !
 ! A82   A(20,27,26)           123.9603         estimate D2E/DX2                !
 ! A83   A(20,27,28)           116.8463         estimate D2E/DX2                !
 ! A84   A(26,27,28)           119.0779         estimate D2E/DX2                !
 ! A85   A(27,28,30)           117.0825         estimate D2E/DX2                !
 ! A86   A(27,28,32)           106.748          estimate D2E/DX2                !
 ! A87   A(27,28,46)           120.4318         estimate D2E/DX2                !
 ! A88   A(30,28,32)           102.2            estimate D2E/DX2                !
 ! A89   A(30,28,46)           109.454          estimate D2E/DX2                !
 ! A90   A(32,28,46)            97.1131         estimate D2E/DX2                !
 ! A91   A(25,29,30)           120.6462         estimate D2E/DX2                !
 ! A92   A(25,29,33)           120.9112         estimate D2E/DX2                !
 ! A93   A(30,29,33)           118.3828         estimate D2E/DX2                !
 ! A94   A(28,30,29)           121.3023         estimate D2E/DX2                !
 ! A95   A(28,30,31)           119.3627         estimate D2E/DX2                !
 ! A96   A(29,30,31)           119.2904         estimate D2E/DX2                !
 ! D1    D(5,1,2,3)             -1.385          estimate D2E/DX2                !
 ! D2    D(5,1,2,18)          -179.5599         estimate D2E/DX2                !
 ! D3    D(15,1,2,3)           177.5714         estimate D2E/DX2                !
 ! D4    D(15,1,2,18)           -0.6034         estimate D2E/DX2                !
 ! D5    D(2,1,5,6)              0.9417         estimate D2E/DX2                !
 ! D6    D(2,1,5,37)          -179.8968         estimate D2E/DX2                !
 ! D7    D(15,1,5,6)          -177.7719         estimate D2E/DX2                !
 ! D8    D(15,1,5,37)            1.3897         estimate D2E/DX2                !
 ! D9    D(2,1,15,16)           -2.9501         estimate D2E/DX2                !
 ! D10   D(2,1,15,36)         -179.3492         estimate D2E/DX2                !
 ! D11   D(5,1,15,16)          175.7859         estimate D2E/DX2                !
 ! D12   D(5,1,15,36)           -0.6132         estimate D2E/DX2                !
 ! D13   D(1,2,3,4)              1.0709         estimate D2E/DX2                !
 ! D14   D(1,2,3,7)           -179.4724         estimate D2E/DX2                !
 ! D15   D(18,2,3,4)           179.5373         estimate D2E/DX2                !
 ! D16   D(18,2,3,7)            -1.006          estimate D2E/DX2                !
 ! D17   D(1,2,18,11)         -179.5381         estimate D2E/DX2                !
 ! D18   D(1,2,18,17)            4.1872         estimate D2E/DX2                !
 ! D19   D(3,2,18,11)            2.0865         estimate D2E/DX2                !
 ! D20   D(3,2,18,17)         -174.1882         estimate D2E/DX2                !
 ! D21   D(2,3,4,6)             -0.1795         estimate D2E/DX2                !
 ! D22   D(2,3,4,10)           179.6324         estimate D2E/DX2                !
 ! D23   D(7,3,4,6)           -179.552          estimate D2E/DX2                !
 ! D24   D(7,3,4,10)             0.2598         estimate D2E/DX2                !
 ! D25   D(2,3,7,8)           -177.9574         estimate D2E/DX2                !
 ! D26   D(2,3,7,11)            -0.5739         estimate D2E/DX2                !
 ! D27   D(4,3,7,8)              1.5006         estimate D2E/DX2                !
 ! D28   D(4,3,7,11)           178.8841         estimate D2E/DX2                !
 ! D29   D(3,4,6,5)             -0.2486         estimate D2E/DX2                !
 ! D30   D(3,4,6,38)           179.9375         estimate D2E/DX2                !
 ! D31   D(10,4,6,5)           179.9815         estimate D2E/DX2                !
 ! D32   D(10,4,6,38)            0.1676         estimate D2E/DX2                !
 ! D33   D(3,4,10,9)            -0.9501         estimate D2E/DX2                !
 ! D34   D(3,4,10,39)          179.8306         estimate D2E/DX2                !
 ! D35   D(6,4,10,9)           178.8197         estimate D2E/DX2                !
 ! D36   D(6,4,10,39)           -0.3996         estimate D2E/DX2                !
 ! D37   D(1,5,6,4)             -0.1562         estimate D2E/DX2                !
 ! D38   D(1,5,6,38)           179.6583         estimate D2E/DX2                !
 ! D39   D(37,5,6,4)          -179.3204         estimate D2E/DX2                !
 ! D40   D(37,5,6,38)            0.4941         estimate D2E/DX2                !
 ! D41   D(3,7,8,9)             -2.3456         estimate D2E/DX2                !
 ! D42   D(3,7,8,14)           176.0054         estimate D2E/DX2                !
 ! D43   D(11,7,8,9)          -179.2247         estimate D2E/DX2                !
 ! D44   D(11,7,8,14)           -0.8736         estimate D2E/DX2                !
 ! D45   D(3,7,11,12)         -172.9265         estimate D2E/DX2                !
 ! D46   D(3,7,11,18)            1.8407         estimate D2E/DX2                !
 ! D47   D(8,7,11,12)            4.3095         estimate D2E/DX2                !
 ! D48   D(8,7,11,18)          179.0767         estimate D2E/DX2                !
 ! D49   D(7,8,9,10)             1.5953         estimate D2E/DX2                !
 ! D50   D(7,8,9,40)          -179.7425         estimate D2E/DX2                !
 ! D51   D(14,8,9,10)         -176.3761         estimate D2E/DX2                !
 ! D52   D(14,8,9,40)            2.2861         estimate D2E/DX2                !
 ! D53   D(7,8,14,13)           -3.1183         estimate D2E/DX2                !
 ! D54   D(7,8,14,41)         -178.93           estimate D2E/DX2                !
 ! D55   D(9,8,14,13)          174.8824         estimate D2E/DX2                !
 ! D56   D(9,8,14,41)           -0.9293         estimate D2E/DX2                !
 ! D57   D(8,9,10,4)             0.0117         estimate D2E/DX2                !
 ! D58   D(8,9,10,39)          179.2337         estimate D2E/DX2                !
 ! D59   D(40,9,10,4)         -178.6549         estimate D2E/DX2                !
 ! D60   D(40,9,10,39)           0.5672         estimate D2E/DX2                !
 ! D61   D(7,11,12,13)          -3.3036         estimate D2E/DX2                !
 ! D62   D(7,11,12,20)         170.29           estimate D2E/DX2                !
 ! D63   D(18,11,12,13)       -176.4437         estimate D2E/DX2                !
 ! D64   D(18,11,12,20)         -2.8501         estimate D2E/DX2                !
 ! D65   D(7,11,18,2)           -2.3719         estimate D2E/DX2                !
 ! D66   D(7,11,18,17)         173.2316         estimate D2E/DX2                !
 ! D67   D(12,11,18,2)         171.4632         estimate D2E/DX2                !
 ! D68   D(12,11,18,17)        -12.9333         estimate D2E/DX2                !
 ! D69   D(11,12,13,14)         -0.5007         estimate D2E/DX2                !
 ! D70   D(11,12,13,19)        176.335          estimate D2E/DX2                !
 ! D71   D(20,12,13,14)       -174.0409         estimate D2E/DX2                !
 ! D72   D(20,12,13,19)          2.7949         estimate D2E/DX2                !
 ! D73   D(11,12,20,21)       -172.1377         estimate D2E/DX2                !
 ! D74   D(11,12,20,27)         39.1278         estimate D2E/DX2                !
 ! D75   D(11,12,20,45)        -58.1841         estimate D2E/DX2                !
 ! D76   D(13,12,20,21)          1.0106         estimate D2E/DX2                !
 ! D77   D(13,12,20,27)       -147.7239         estimate D2E/DX2                !
 ! D78   D(13,12,20,45)        114.9643         estimate D2E/DX2                !
 ! D79   D(12,13,14,8)           3.9013         estimate D2E/DX2                !
 ! D80   D(12,13,14,41)        179.6664         estimate D2E/DX2                !
 ! D81   D(19,13,14,8)        -172.8953         estimate D2E/DX2                !
 ! D82   D(19,13,14,41)          2.8698         estimate D2E/DX2                !
 ! D83   D(12,13,19,22)         -4.1157         estimate D2E/DX2                !
 ! D84   D(12,13,19,42)        179.3881         estimate D2E/DX2                !
 ! D85   D(14,13,19,22)        172.7837         estimate D2E/DX2                !
 ! D86   D(14,13,19,42)         -3.7125         estimate D2E/DX2                !
 ! D87   D(1,15,16,17)           3.214          estimate D2E/DX2                !
 ! D88   D(1,15,16,23)        -173.9301         estimate D2E/DX2                !
 ! D89   D(36,15,16,17)        179.567          estimate D2E/DX2                !
 ! D90   D(36,15,16,23)          2.423          estimate D2E/DX2                !
 ! D91   D(15,16,17,18)          0.2736         estimate D2E/DX2                !
 ! D92   D(15,16,17,26)       -174.1424         estimate D2E/DX2                !
 ! D93   D(23,16,17,18)        177.4361         estimate D2E/DX2                !
 ! D94   D(23,16,17,26)          3.0201         estimate D2E/DX2                !
 ! D95   D(15,16,23,24)        172.7269         estimate D2E/DX2                !
 ! D96   D(15,16,23,35)         -3.7771         estimate D2E/DX2                !
 ! D97   D(17,16,23,24)         -4.5348         estimate D2E/DX2                !
 ! D98   D(17,16,23,35)        178.9612         estimate D2E/DX2                !
 ! D99   D(16,17,18,2)          -3.686          estimate D2E/DX2                !
 ! D100  D(16,17,18,11)       -178.7482         estimate D2E/DX2                !
 ! D101  D(26,17,18,2)         170.7142         estimate D2E/DX2                !
 ! D102  D(26,17,18,11)         -4.3479         estimate D2E/DX2                !
 ! D103  D(16,17,26,25)          1.9324         estimate D2E/DX2                !
 ! D104  D(16,17,26,27)       -179.957          estimate D2E/DX2                !
 ! D105  D(18,17,26,25)       -172.0199         estimate D2E/DX2                !
 ! D106  D(18,17,26,27)          6.0907         estimate D2E/DX2                !
 ! D107  D(13,19,22,21)          1.5739         estimate D2E/DX2                !
 ! D108  D(13,19,22,43)       -176.6947         estimate D2E/DX2                !
 ! D109  D(42,19,22,21)        178.1346         estimate D2E/DX2                !
 ! D110  D(42,19,22,43)         -0.134          estimate D2E/DX2                !
 ! D111  D(12,20,21,22)         -3.7154         estimate D2E/DX2                !
 ! D112  D(12,20,21,44)        173.9727         estimate D2E/DX2                !
 ! D113  D(27,20,21,22)        146.0026         estimate D2E/DX2                !
 ! D114  D(27,20,21,44)        -36.3093         estimate D2E/DX2                !
 ! D115  D(45,20,21,22)       -117.4295         estimate D2E/DX2                !
 ! D116  D(45,20,21,44)         60.2586         estimate D2E/DX2                !
 ! D117  D(12,20,27,26)        -53.8639         estimate D2E/DX2                !
 ! D118  D(12,20,27,28)        130.0885         estimate D2E/DX2                !
 ! D119  D(21,20,27,26)        158.1008         estimate D2E/DX2                !
 ! D120  D(21,20,27,28)        -17.9468         estimate D2E/DX2                !
 ! D121  D(45,20,27,26)         52.0917         estimate D2E/DX2                !
 ! D122  D(45,20,27,28)       -123.9559         estimate D2E/DX2                !
 ! D123  D(20,21,22,19)          2.5699         estimate D2E/DX2                !
 ! D124  D(20,21,22,43)       -179.1594         estimate D2E/DX2                !
 ! D125  D(44,21,22,19)       -175.1614         estimate D2E/DX2                !
 ! D126  D(44,21,22,43)          3.1092         estimate D2E/DX2                !
 ! D127  D(16,23,24,25)          1.0544         estimate D2E/DX2                !
 ! D128  D(16,23,24,34)       -176.8425         estimate D2E/DX2                !
 ! D129  D(35,23,24,25)        177.6345         estimate D2E/DX2                !
 ! D130  D(35,23,24,34)         -0.2623         estimate D2E/DX2                !
 ! D131  D(23,24,25,26)          4.2916         estimate D2E/DX2                !
 ! D132  D(23,24,25,29)       -175.7405         estimate D2E/DX2                !
 ! D133  D(34,24,25,26)       -177.8611         estimate D2E/DX2                !
 ! D134  D(34,24,25,29)          2.1068         estimate D2E/DX2                !
 ! D135  D(24,25,26,17)         -5.524          estimate D2E/DX2                !
 ! D136  D(24,25,26,27)        176.1521         estimate D2E/DX2                !
 ! D137  D(29,25,26,17)        174.5092         estimate D2E/DX2                !
 ! D138  D(29,25,26,27)         -3.8148         estimate D2E/DX2                !
 ! D139  D(24,25,29,30)        174.5179         estimate D2E/DX2                !
 ! D140  D(24,25,29,33)         -2.6252         estimate D2E/DX2                !
 ! D141  D(26,25,29,30)         -5.5139         estimate D2E/DX2                !
 ! D142  D(26,25,29,33)        177.3429         estimate D2E/DX2                !
 ! D143  D(17,26,27,20)         24.701          estimate D2E/DX2                !
 ! D144  D(17,26,27,28)       -159.3341         estimate D2E/DX2                !
 ! D145  D(25,26,27,20)       -157.2165         estimate D2E/DX2                !
 ! D146  D(25,26,27,28)         18.7485         estimate D2E/DX2                !
 ! D147  D(20,27,28,30)        152.1062         estimate D2E/DX2                !
 ! D148  D(20,27,28,32)        -94.2068         estimate D2E/DX2                !
 ! D149  D(20,27,28,46)         14.8651         estimate D2E/DX2                !
 ! D150  D(26,27,28,30)        -24.1431         estimate D2E/DX2                !
 ! D151  D(26,27,28,32)         89.5439         estimate D2E/DX2                !
 ! D152  D(26,27,28,46)       -161.3842         estimate D2E/DX2                !
 ! D153  D(27,28,30,29)         14.9384         estimate D2E/DX2                !
 ! D154  D(27,28,30,31)       -167.5098         estimate D2E/DX2                !
 ! D155  D(32,28,30,29)       -101.273          estimate D2E/DX2                !
 ! D156  D(32,28,30,31)         76.2788         estimate D2E/DX2                !
 ! D157  D(46,28,30,29)        156.5619         estimate D2E/DX2                !
 ! D158  D(46,28,30,31)        -25.8863         estimate D2E/DX2                !
 ! D159  D(25,29,30,28)         -0.1512         estimate D2E/DX2                !
 ! D160  D(25,29,30,31)       -177.7047         estimate D2E/DX2                !
 ! D161  D(33,29,30,28)        177.0629         estimate D2E/DX2                !
 ! D162  D(33,29,30,31)         -0.4907         estimate D2E/DX2                !
 --------------------------------------------------------------------------------
 Trust Radius=3.00D-01 FncErr=1.00D-07 GrdErr=1.00D-06 EigMax=2.50D+02 EigMin=1.00D-04
 Number of steps in this run=    276 maximum allowed number of steps=    276.
 GradGradGradGradGradGradGradGradGradGradGradGradGradGradGradGradGradGrad

                          Input orientation:                          
 ---------------------------------------------------------------------
 Center     Atomic      Atomic             Coordinates (Angstroms)
 Number     Number       Type             X           Y           Z
 ---------------------------------------------------------------------
      1          6           0       -6.975430    0.020020   -0.293870
      2          6           0       -5.752700    0.627220   -0.120690
      3          6           0       -4.612110   -0.066090    0.104820
      4          6           0       -4.511390   -1.444150    0.170210
      5          6           0       -6.958850   -1.407190   -0.250320
      6          6           0       -5.746100   -2.127050   -0.020270
      7          6           0       -3.581880    0.798870    0.244720
      8          6           0       -2.279800    0.395190    0.443840
      9          6           0       -2.092720   -1.016390    0.546120
     10          6           0       -3.191200   -1.920960    0.411510
     11          6           0       -4.051800    2.092050    0.095410
     12          6           0       -3.173800    3.151600    0.049590
     13          6           0       -1.786270    2.816820    0.240270
     14          6           0       -1.362300    1.468290    0.472520
     15          6           0       -8.029650    0.941040   -0.460720
     16          6           0       -7.804570    2.353980   -0.380960
     17          6           0       -6.493750    2.918710   -0.195820
     18          6           0       -5.476960    1.987210   -0.108190
     19          6           0       -0.834790    3.832600    0.128400
     20          6           0       -3.605190    4.473690   -0.307420
     21          6           0       -2.552300    5.424060   -0.480730
     22          6           0       -1.209170    5.119950   -0.244050
     23          6           0       -8.893550    3.213970   -0.425340
     24          6           0       -8.722330    4.575430   -0.199370
     25          6           0       -7.458350    5.125140    0.056170
     26          6           0       -6.278750    4.333150    0.008140
     27          6           0       -5.007240    5.025460    0.205830
     28          6           0       -5.007010    6.317340    0.822530
     29          6           0       -7.396980    6.485140    0.360590
     30          6           0       -6.197950    7.072220    0.734660
     31          1           0       -6.182470    8.127860    1.004010
     32          1           0       -4.913650    6.146130    1.939790
     33          1           0       -8.294640    7.100230    0.355310
     34          1           0       -9.609270    5.207410   -0.191350
     35          1           0       -9.900380    2.832760   -0.580290
     36          1           0       -9.039700    0.558890   -0.594260
     37          1           0       -7.887040   -1.958660   -0.380910
     38          1           0       -5.770270   -3.213630    0.012270
     39          1           0       -3.010700   -2.990880    0.482520
     40          1           0       -1.093780   -1.414640    0.708000
     41          1           0       -0.305280    1.248730    0.607250
     42          1           0        0.221550    3.618750    0.275810
     43          1           0       -0.450430    5.886800   -0.379150
     44          1           0       -2.785730    6.423650   -0.847830
     45          1           0       -4.054280    4.351180   -1.341110
     46          1           0       -4.136630    6.989180    0.713870
 ---------------------------------------------------------------------
                    Distance matrix (angstroms):
                    1          2          3          4          5
     1  C    0.000000
     2  C    1.376137   0.000000
     3  C    2.398260   1.353691   0.000000
     4  C    2.903559   2.432293   1.383282   0.000000
     5  C    1.427971   2.368634   2.726144   2.483601   0.000000
     6  C    2.489180   2.756108   2.355661   1.423778   1.428945
     7  C    3.523190   2.208042   1.352443   2.429131   4.063950
     8  C    4.768009   3.526126   2.401538   2.904830   5.062010
     9  C    5.061678   4.067130   2.728579   2.484804   4.946338
    10  C    4.311074   3.652087   2.356605   1.424245   3.859685
    11  C    3.604505   2.255102   2.229709   3.566725   4.562362
    12  C    4.937322   3.612785   3.524956   4.787966   5.932884
    13  C    5.919018   4.545020   4.039169   5.058365   6.696157
    14  C    5.847398   4.509424   3.612588   4.300054   6.333424
    15  C    1.409786   2.323490   3.607454   4.297134   2.589414
    16  C    2.478392   2.694367   4.035409   5.057135   3.857293
    17  C    2.940074   2.409507   3.541184   4.806067   4.351172
    18  C    2.479864   1.387718   2.238164   3.575481   3.706501
    19  C    7.240272   5.875572   5.428488   6.431425   8.068639
    20  C    5.585148   4.409308   4.668344   6.005844   6.770158
    21  C    6.985889   5.777704   5.892999   7.171755   8.132450
    22  C    7.698151   6.390892   6.212626   7.359598   8.698415
    23  C    3.727973   4.080322   5.419464   6.423090   5.012865
    24  C    4.879790   4.940977   6.207266   7.355539   6.237323
    25  C    5.139843   4.813710   5.920500   7.200913   6.558565
    26  C    4.379459   3.745296   4.705353   6.043759   5.786263
    27  C    5.401657   4.472901   5.107858   6.488682   6.737644
    28  C    6.691582   5.815770   6.435778   7.804607   8.039220
    29  C    6.511820   6.103320   7.123169   8.440173   7.928054
    30  C    7.169092   6.516740   7.339418   8.700095   8.570271
    31  H    8.249263   7.596661   8.391388   9.752492   9.648486
    32  H    6.838816   5.950458   6.484575   7.804203   8.126012
    33  H    7.231260   6.970502   8.061012   9.346319   8.632921
    34  H    5.818646   5.988010   7.271116   8.388227   7.126088
    35  H    4.068031   4.720052   6.069473   6.920724   5.170943
    36  H    2.154490   3.321642   4.525800   5.010207   2.883349
    37  H    2.180317   3.363019   3.813518   3.458824   1.087525
    38  H    3.464480   3.843191   3.355132   2.177334   2.178279
    39  H    5.038590   4.579637   3.355826   2.177609   4.316598
    40  H    6.136432   5.153781   3.815896   3.459790   5.942851
    41  H    6.841977   5.530873   4.531001   5.013379   7.215215
    42  H    8.066716   6.693140   6.080424   6.931438   8.780378
    43  H    8.775079   7.472888   7.279472   8.398573   9.776422
    44  H    7.672479   6.552118   6.808813   8.118903   8.893481
    45  H    5.328112   4.271058   4.681256   6.006570   6.541038
    46  H    7.592333   6.616850   7.097454   8.459141   8.910310
                    6          7          8          9         10
     6  C    0.000000
     7  C    3.648983   0.000000
     8  C    4.311882   1.377686   0.000000
     9  C    3.860252   2.367194   1.427592   0.000000
    10  C    2.599312   2.752803   2.489226   1.429344   0.000000
    11  C    4.548059   1.383992   2.478048   3.701828   4.116406
    12  C    5.872457   2.395818   2.924460   4.334445   5.085485
    13  C    6.339557   2.701177   2.479779   3.857584   4.944665
    14  C    5.690959   2.329496   1.412152   2.590862   3.851703
    15  C    3.849906   4.505609   5.846106   6.331856   5.688798
    16  C    4.944393   4.543232   5.919479   6.696574   6.339267
    17  C    5.103870   3.628606   4.953251   5.950172   5.890509
    18  C    4.123991   2.264514   3.614014   4.571960   4.557256
    19  C    7.724021   4.094332   3.742104   5.026886   6.223847
    20  C    6.945194   3.716141   4.353758   5.758218   6.448240
    21  C    8.211677   4.793610   5.120412   6.537968   7.426547
    22  C    8.552942   4.953825   4.893138   6.249776   7.343883
    23  C    6.212650   5.873289   7.241732   8.067897   7.719107
    24  C    7.335752   6.394048   7.706771   8.704937   8.553926
    25  C    7.451973   5.811986   7.024251   8.169971   8.245142
    26  C    6.482184   4.451990   5.629295   6.813945   6.986384
    27  C    7.194125   4.460631   5.379124   6.716709   7.182831
    28  C    8.518467   5.728732   6.530922   7.896397   8.446046
    29  C    8.777259   6.848509   7.954870   9.189263   9.399665
    30  C    9.241248   6.814601   7.747206   9.072710   9.488006
    31  H   10.315171   7.813686   8.679793  10.027613  10.501311
    32  H    8.542852   5.765420   6.499873   7.823149   8.389304
    33  H    9.580126   7.869528   9.007980  10.216640  10.364851
    34  H    8.291421   7.480295   8.791021   9.786627   9.610865
    35  H    6.493949   6.688856   8.066215   8.777489   8.282187
    36  H    4.288536   5.527140   6.841104   7.214049   6.431655
    37  H    2.177623   5.150707   6.136934   5.943181   4.762380
    38  H    1.087336   4.576378   5.039168   4.317086   2.912386
    39  H    2.912287   3.839922   3.464272   2.178381   1.087360
    40  H    4.762561   3.362275   2.179887   1.087515   2.177943
    41  H    6.433677   3.327147   2.157304   2.886078   4.291128
    42  H    8.289435   4.734846   4.083666   5.187816   6.507969
    43  H    9.612217   6.006848   5.846511   7.155926   8.312525
    44  H    9.086425   5.784952   6.186009   7.601155   8.448838
    45  H    6.824539   3.918791   4.688783   6.018319   6.569347
    46  H    9.286280   6.232799   6.855759   8.264070   8.965258
                   11         12         13         14         15
    11  C    0.000000
    12  C    1.376819   0.000000
    13  C    2.383045   1.440026   0.000000
    14  C    2.786521   2.508772   1.432558   0.000000
    15  C    4.178205   5.359689   6.556656   6.752961   0.000000
    16  C    3.791941   4.718644   6.067955   6.558637   1.432977
    17  C    2.594475   3.337144   4.728734   5.374214   2.518003
    18  C    1.443442   2.585584   3.798798   4.187712   2.781182
    19  C    3.657835   2.437404   1.396294   2.446763   7.776515
    20  C    2.456408   1.435784   2.520645   3.830312   5.663829
    21  C    3.699017   2.414866   2.811466   4.239446   7.078081
    22  C    4.167008   2.796497   2.423225   3.724452   8.001824
    23  C    4.997242   5.739773   7.149419   7.782884   2.431828
    24  C    5.297917   5.733712   7.169025   8.017219   3.709030
    25  C    4.561333   4.717231   6.126559   7.120936   4.254439
    26  C    3.160609   3.322423   4.747159   5.709164   3.846023
    27  C    3.087062   2.626264   3.905627   5.100017   5.124621
    28  C    4.392517   3.738984   4.792268   6.076159   6.299816
    29  C    5.528091   5.389291   6.704559   7.848482   5.640201
    30  C    5.460466   4.998606   6.149453   7.406501   6.509641
    31  H    6.465007   5.892892   6.936643   8.238106   7.563590
    32  H    4.536528   3.945522   4.873723   6.053689   6.524176
    33  H    6.568950   6.473650   7.792286   8.932515   6.218661
    34  H    6.377552   6.760154   8.191492   9.079331   4.557376
    35  H    5.933895   6.763526   8.155511   8.710281   2.663181
    36  H    5.263589   6.445578   7.642443   7.804326   1.088151
    37  H    5.598589   6.965251   7.772417   7.419202   2.904302
    38  H    5.577660   6.874533   7.231222   6.446891   4.752873
    39  H    5.202876   6.159877   5.940311   4.754106   6.445119
    40  H    4.628393   5.060685   4.313185   2.904968   7.417643
    41  H    3.874220   3.487163   2.187901   1.087957   7.803917
    42  H    4.541462   3.434793   2.162336   2.678013   8.706027
    43  H    5.253113   3.883540   3.404839   4.591305   9.050512
    44  H    4.610357   3.415007   3.897705   5.322130   7.596549
    45  H    2.677175   2.036734   3.162103   4.341321   5.311093
    46  H    4.936757   4.011899   4.812180   6.183477   7.288022
                   16         17         18         19         20
    16  C    0.000000
    17  C    1.439252   0.000000
    18  C    2.372065   1.381750   0.000000
    19  C    7.143080   5.741441   5.001118   0.000000
    20  C    4.704612   3.282407   3.118621   2.876813   0.000000
    21  C    6.084545   4.678994   4.528174   2.419427   1.428922
    22  C    7.153226   5.724908   5.295899   1.391456   2.482454
    23  C    1.388319   2.428765   3.643983   8.101416   5.437605
    24  C    2.410415   2.776923   4.152062   7.929219   5.119292
    25  C    2.826708   2.421216   3.714771   6.748883   3.924720
    26  C    2.529158   1.445152   2.481901   5.468246   2.695784
    27  C    3.912312   2.609489   3.090341   4.340305   1.591735
    28  C    4.998295   3.846832   4.453888   4.905422   2.577001
    29  C    4.216931   3.720865   4.913004   7.081823   4.343943
    30  C    5.107605   4.266724   5.204570   6.294932   3.815848
    31  H    6.155245   5.354599   6.280312   6.914740   4.659955
    32  H    5.303178   4.180166   4.669920   5.026993   3.091776
    33  H    4.827955   4.586072   5.856375   8.147285   5.415613
    34  H    3.381561   3.865829   5.239522   8.887285   6.049859
    35  H    2.159023   3.429334   4.528187   9.148051   6.511262
    36  H    2.189381   3.494190   3.869041   8.863406   6.703867
    37  H    4.313428   5.075850   4.631712   9.139602   7.727533
    38  H    5.940647   6.178375   5.210497   8.603593   7.992788
    39  H    7.231481   6.893115   5.586838   7.170765   7.529756
    40  H    7.773225   6.982441   5.608121   5.285503   6.481565
    41  H    7.644442   6.459947   5.272901   2.680683   4.703870
    42  H    8.151662   6.768142   5.939899   1.087803   3.964217
    43  H    8.158688   6.735346   6.367592   2.150599   3.457533
    44  H    6.478344   5.143844   5.241353   3.387142   2.183095
    45  H    4.356073   3.051995   3.021997   3.576800   1.133669
    46  H    6.011449   4.790853   5.243279   4.605314   2.766433
                   21         22         23         24         25
    21  C    0.000000
    22  C    1.397318   0.000000
    23  C    6.715580   7.919301   0.000000
    24  C    6.234469   7.532999   1.390666   0.000000
    25  C    4.944385   6.256390   2.438077   1.401830   0.000000
    26  C    3.913503   5.136467   2.877090   2.464314   1.421623
    27  C    2.580112   3.825788   4.333968   3.764121   2.457697
    28  C    2.919253   4.122490   5.127697   4.228727   2.831557
    29  C    5.030371   6.365401   3.682114   2.391046   1.395005
    30  C    4.181431   5.445839   4.847469   3.671358   2.416625
    31  H    4.763730   5.944652   5.791313   4.529765   3.397440
    32  H    3.457785   4.421015   5.480055   4.642106   3.326551
    33  H    6.040114   7.381370   4.008881   2.620153   2.165605
    34  H    7.066223   8.400721   2.130918   1.089094   2.166677
    35  H    7.792241   8.993410   1.087675   2.137709   3.409340
    36  H    8.109817   9.068799   2.664459   4.048365   4.875896
    37  H    9.109005   9.732389   5.269833   6.589765   7.110207
    38  H    9.230822   9.503572   7.159638   8.332401   8.508033
    39  H    8.482287   8.340202   8.598389   9.504564   9.264618
    40  H    7.092826   6.604588   9.140290   9.741614   9.148845
    41  H    4.864790   4.065473   8.870558   9.086490   8.154548
    42  H    3.394958   2.137947   9.150984   9.007443   7.829324
    43  H    2.154601   1.087197   8.856209   8.377132   7.062618
    44  H    1.090152   2.133009   6.912742   6.251371   4.933226
    45  H    2.036485   3.144710   5.054742   4.810878   3.760199
    46  H    2.527206   3.603006   6.178859   5.262019   3.865364
                   26         27         28         29         30
    26  C    0.000000
    27  C    1.461202   0.000000
    28  C    2.493504   1.431528   0.000000
    29  C    2.450657   2.804545   2.439980   0.000000
    30  C    2.834936   2.426248   1.412764   1.386457   0.000000
    31  H    3.924392   3.412205   2.166246   2.141857   1.089571
    32  H    2.980212   2.066707   1.134151   2.962386   1.989826
    33  H    3.441086   3.890246   3.411704   1.088190   2.130915
    34  H    3.449129   4.622720   4.841559   2.613706   3.996513
    35  H    3.964041   5.419293   6.168895   4.526825   5.780147
    36  H    4.714952   6.070513   7.171445   6.223400   7.229456
    37  H    6.505754   7.577298   8.845056   8.490450   9.254962
    38  H    7.563892   8.276611   9.595753   9.840409  10.320052
    39  H    8.034090   8.265860   9.525955  10.442666  10.558793
    40  H    7.772439   7.552631   8.666603  10.112247   9.903537
    41  H    6.749439   6.044275   6.916894   8.818902   8.285700
    42  H    6.544915   5.415162   5.909241   8.140355   7.303902
    43  H    6.044265   4.674251   4.732000   7.011404   5.973255
    44  H    4.159815   2.828470   2.781275   4.767356   3.816826
    45  H    2.601743   1.937991   3.074869   4.315462   4.038341
    46  H    3.484427   2.207320   1.104870   3.317943   2.063097
                   31         32         33         34         35
    31  H    0.000000
    32  H    2.532359   0.000000
    33  H    2.436821   3.853826   0.000000
    34  H    4.658419   5.241355   2.368514   0.000000
    35  H    6.661152   6.495899   4.654573   2.423836   0.000000
    36  H    8.246668   7.393440   6.651761   4.700583   2.431347
    37  H   10.322860   8.939481   9.097892   7.372555   5.201057
    38  H   11.392228   9.594490  10.623833   9.257067   7.346276
    39  H   11.574042   9.446153  11.391519  10.545482   9.083614
    40  H   10.818581   8.560021  11.157051  10.824692   9.861861
    41  H    9.056556   6.855455   9.906230  10.142640   9.797211
    42  H    7.865991   5.960433   9.200680   9.969308  10.188432
    43  H    6.308071   5.036374   7.971416   9.185923   9.933236
    44  H    4.227468   3.517938   5.679207   6.962105   7.973977
    45  H    4.928701   3.837273   5.330644   5.736985   6.087802
    46  H    2.359287   1.678503   4.174919   5.826141   7.222984
                   36         37         38         39         40
    36  H    0.000000
    37  H    2.777085   0.000000
    38  H    5.028813   2.492038   0.000000
    39  H    7.078783   5.058624   2.808199   0.000000
    40  H    8.290256   6.901454   5.058652   2.491978   0.000000
    41  H    8.843619   8.291375   7.080450   5.030820   2.779464
    42  H    9.792370   9.863469   9.091357   7.360528   5.220335
    43  H   10.109820  10.809922  10.548542   9.279583   7.409914
    44  H    8.577403   9.823670  10.125434   9.510721   8.168359
    45  H    6.308222   7.444872   7.874174   7.636788   6.797653
    46  H    8.191455   9.763604  10.356561  10.046036   8.937738
                   41         42         43         44         45
    41  H    0.000000
    42  H    2.450387   0.000000
    43  H    4.744022   2.454502   0.000000
    44  H    5.920278   4.263070   2.441617   0.000000
    45  H    5.241784   4.629644   4.033761   2.479451   0.000000
    46  H    6.902418   5.526792   3.999751   2.140949   3.344962
                   46
    46  H    0.000000
 Stoichiometry    C30H16
 Framework group  C1[X(C30H16)]
 Deg. of freedom   132
 Full point group                 C1      NOp   1
 Largest Abelian subgroup         C1      NOp   1
 Largest concise Abelian subgroup C1      NOp   1
                         Standard orientation:                         
 ---------------------------------------------------------------------
 Center     Atomic      Atomic             Coordinates (Angstroms)
 Number     Number       Type             X           Y           Z
 ---------------------------------------------------------------------
      1          6           0        1.701146   -2.744276   -0.190535
      2          6           0        1.495415   -1.386729   -0.098374
      3          6           0        2.503500   -0.499574    0.072502
      4          6           0        3.846888   -0.818906    0.154998
      5          6           0        3.065691   -3.159861   -0.124163
      6          6           0        4.121047   -2.211899    0.047525
      7          6           0        1.993578    0.751329    0.138242
      8          6           0        2.774922    1.878504    0.268616
      9          6           0        4.176597    1.633303    0.383513
     10          6           0        4.703474    0.305784    0.327653
     11          6           0        0.618471    0.688793   -0.005299
     12          6           0       -0.123463    1.842977   -0.119412
     13          6           0        0.618260    3.071837   -0.003546
     14          6           0        2.032232    3.078837    0.226363
     15          6           0        0.502564   -3.476554   -0.311647
     16          6           0       -0.774595   -2.828143   -0.268639
     17          6           0       -0.913028   -1.399039   -0.168913
     18          6           0        0.284007   -0.710293   -0.124542
     19          6           0       -0.059716    4.278607   -0.187098
     20          6           0       -1.514717    1.813391   -0.472985
     21          6           0       -2.099610    3.092999   -0.722625
     22          6           0       -1.400544    4.291733   -0.558792
     23          6           0       -1.925428   -3.604671   -0.264477
     24          6           0       -3.169712   -3.014341   -0.071553
     25          6           0       -3.307986   -1.630110    0.101400
     26          6           0       -2.194480   -0.752297   -0.001372
     27          6           0       -2.466383    0.678978    0.111018
     28          6           0       -3.695816    1.109046    0.704995
     29          6           0       -4.584201   -1.139953    0.378994
     30          6           0       -4.777652    0.201007    0.673386
     31          1           0       -5.777995    0.552883    0.923710
     32          1           0       -3.502462    1.212846    1.817712
     33          1           0       -5.443440   -1.806699    0.415240
     34          1           0       -4.041753   -3.664961   -0.022933
     35          1           0       -1.869179   -4.687139   -0.354676
     36          1           0        0.558764   -4.561083   -0.380275
     37          1           0        3.308102   -4.217869   -0.191738
     38          1           0        5.148713   -2.563315    0.099565
     39          1           0        5.777661    0.156336    0.406005
     40          1           0        4.860396    2.471679    0.494115
     41          1           0        2.563470    4.025137    0.303526
     42          1           0        0.465896    5.226758   -0.097334
     43          1           0       -1.900145    5.238169   -0.750249
     44          1           0       -3.123415    3.152958   -1.092301
     45          1           0       -1.536490    1.287088   -1.476846
     46          1           0       -4.070879    2.134323    0.535076
 ---------------------------------------------------------------------
 Rotational constants (GHZ):           0.2418275           0.1790052           0.1048039
 Standard basis: 6-311+G(d,p) (5D, 7F)
 There are   786 symmetry adapted cartesian basis functions of A   symmetry.
 There are   756 symmetry adapted basis functions of A   symmetry.
   756 basis functions,  1208 primitive gaussians,   786 cartesian basis functions
    98 alpha electrons       98 beta electrons
       nuclear repulsion energy      2648.3646869163 Hartrees.
 NAtoms=   46 NActive=   46 NUniq=   46 SFac= 1.00D+00 NAtFMM=   60 NAOKFM=F Big=F
 Integral buffers will be    131072 words long.
 Raffenetti 2 integral format.
 Two-electron integral symmetry is turned on.
 One-electron integrals computed using PRISM.
 NBasis=   756 RedAO= T EigKep=  1.08D-06  NBF=   756
 NBsUse=   733 1.00D-06 EigRej=  9.08D-07 NBFU=   733
 ExpMin= 4.38D-02 ExpMax= 4.56D+03 ExpMxC= 6.82D+02 IAcc=2 IRadAn=         4 AccDes= 0.00D+00
 Harris functional with IExCor=  402 and IRadAn=       4 diagonalized for initial guess.
 HarFok:  IExCor=  402 AccDes= 0.00D+00 IRadAn=         4 IDoV= 1 UseB2=F ITyADJ=14
 ICtDFT=  3500011 ScaDFX=  1.000000  1.000000  1.000000  1.000000
 FoFCou: FMM=F IPFlag=           0 FMFlag=      100000 FMFlg1=           0
         NFxFlg=           0 DoJE=T BraDBF=F KetDBF=T FulRan=T
         wScrn=  0.000000 ICntrl=       500 IOpCl=  0 I1Cent=   200000004 NGrid=           0
         NMat0=    1 NMatS0=      1 NMatT0=    0 NMatD0=    1 NMtDS0=    0 NMtDT0=    0
 Petite list used in FoFCou.
 Requested convergence on RMS density matrix=1.00D-08 within 128 cycles.
 Requested convergence on MAX density matrix=1.00D-06.
 Requested convergence on             energy=1.00D-06.
 No special actions if energy rises.
 EnCoef did     4 forward-backward iterations
 Restarting incremental Fock formation.
 SCF Done:  E(RB3LYP) =  -1152.97263447     A.U. after   21 cycles
            NFock= 21  Conv=0.44D-08     -V/T= 2.0036

 **********************************************************************

            Population analysis using the SCF Density.

 **********************************************************************

 Orbital symmetries:
       Occupied  (A) (A) (A) (A) (A) (A) (A) (A) (A) (A) (A) (A)
                 (A) (A) (A) (A) (A) (A) (A) (A) (A) (A) (A) (A)
                 (A) (A) (A) (A) (A) (A) (A) (A) (A) (A) (A) (A)
                 (A) (A) (A) (A) (A) (A) (A) (A) (A) (A) (A) (A)
                 (A) (A) (A) (A) (A) (A) (A) (A) (A) (A) (A) (A)
                 (A) (A) (A) (A) (A) (A) (A) (A) (A) (A) (A) (A)
                 (A) (A) (A) (A) (A) (A) (A) (A) (A) (A) (A) (A)
                 (A) (A) (A) (A) (A) (A) (A) (A) (A) (A) (A) (A)
                 (A) (A)
       Virtual   (A) (A) (A) (A) (A) (A) (A) (A) (A) (A) (A) (A)
                 (A) (A) (A) (A) (A) (A) (A) (A) (A) (A) (A) (A)
                 (A) (A) (A) (A) (A) (A) (A) (A) (A) (A) (A) (A)
                 (A) (A) (A) (A) (A) (A) (A) (A) (A) (A) (A) (A)
                 (A) (A) (A) (A) (A) (A) (A) (A) (A) (A) (A) (A)
                 (A) (A) (A) (A) (A) (A) (A) (A) (A) (A) (A) (A)
                 (A) (A) (A) (A) (A) (A) (A) (A) (A) (A) (A) (A)
                 (A) (A) (A) (A) (A) (A) (A) (A) (A) (A) (A) (A)
                 (A) (A) (A) (A) (A) (A) (A) (A) (A) (A) (A) (A)
                 (A) (A) (A) (A) (A) (A) (A) (A) (A) (A) (A) (A)
                 (A) (A) (A) (A) (A) (A) (A) (A) (A) (A) (A) (A)
                 (A) (A) (A) (A) (A) (A) (A) (A) (A) (A) (A) (A)
                 (A) (A) (A) (A) (A) (A) (A) (A) (A) (A) (A) (A)
                 (A) (A) (A) (A) (A) (A) (A) (A) (A) (A) (A) (A)
                 (A) (A) (A) (A) (A) (A) (A) (A) (A) (A) (A) (A)
                 (A) (A) (A) (A) (A) (A) (A) (A) (A) (A) (A) (A)
                 (A) (A) (A) (A) (A) (A) (A) (A) (A) (A) (A) (A)
                 (A) (A) (A) (A) (A) (A) (A) (A) (A) (A) (A) (A)
                 (A) (A) (A) (A) (A) (A) (A) (A) (A) (A) (A) (A)
                 (A) (A) (A) (A) (A) (A) (A) (A) (A) (A) (A) (A)
                 (A) (A) (A) (A) (A) (A) (A) (A) (A) (A) (A) (A)
                 (A) (A) (A) (A) (A) (A) (A) (A) (A) (A) (A) (A)
                 (A) (A) (A) (A) (A) (A) (A) (A) (A) (A) (A) (A)
                 (A) (A) (A) (A) (A) (A) (A) (A) (A) (A) (A) (A)
                 (A) (A) (A) (A) (A) (A) (A) (A) (A) (A) (A) (A)
                 (A) (A) (A) (A) (A) (A) (A) (A) (A) (A) (A) (A)
                 (A) (A) (A) (A) (A) (A) (A) (A) (A) (A) (A) (A)
                 (A) (A) (A) (A) (A) (A) (A) (A) (A) (A) (A) (A)
                 (A) (A) (A) (A) (A) (A) (A) (A) (A) (A) (A) (A)
                 (A) (A) (A) (A) (A) (A) (A) (A) (A) (A) (A) (A)
                 (A) (A) (A) (A) (A) (A) (A) (A) (A) (A) (A) (A)
                 (A) (A) (A) (A) (A) (A) (A) (A) (A) (A) (A) (A)
                 (A) (A) (A) (A) (A) (A) (A) (A) (A) (A) (A) (A)
                 (A) (A) (A) (A) (A) (A) (A) (A) (A) (A) (A) (A)
                 (A) (A) (A) (A) (A) (A) (A) (A) (A) (A) (A) (A)
                 (A) (A) (A) (A) (A) (A) (A) (A) (A) (A) (A) (A)
                 (A) (A) (A) (A) (A) (A) (A) (A) (A) (A) (A) (A)
                 (A) (A) (A) (A) (A) (A) (A) (A) (A) (A) (A) (A)
                 (A) (A) (A) (A) (A) (A) (A) (A) (A) (A) (A) (A)
                 (A) (A) (A) (A) (A) (A) (A) (A) (A) (A) (A) (A)
                 (A) (A) (A) (A) (A) (A) (A) (A) (A) (A) (A) (A)
                 (A) (A) (A) (A) (A) (A) (A) (A) (A) (A) (A) (A)
                 (A) (A) (A) (A) (A) (A) (A) (A) (A) (A) (A) (A)
                 (A) (A) (A) (A) (A) (A) (A) (A) (A) (A) (A) (A)
                 (A) (A) (A) (A) (A) (A) (A) (A) (A) (A) (A) (A)
                 (A) (A) (A) (A) (A) (A) (A) (A) (A) (A) (A) (A)
                 (A) (A) (A) (A) (A) (A) (A) (A) (A) (A) (A) (A)
                 (A) (A) (A) (A) (A) (A) (A) (A) (A) (A) (A) (A)
                 (A) (A) (A) (A) (A) (A) (A) (A) (A) (A) (A) (A)
                 (A) (A) (A) (A) (A) (A) (A) (A) (A) (A) (A) (A)
                 (A) (A) (A) (A) (A) (A) (A) (A) (A) (A) (A) (A)
                 (A) (A) (A) (A) (A) (A) (A) (A) (A) (A) (A) (A)
                 (A) (A) (A) (A) (A) (A) (A) (A) (A) (A) (A)
 The electronic state is 1-A.
 Alpha  occ. eigenvalues --  -10.22269 -10.21310 -10.20775 -10.20203 -10.19964
 Alpha  occ. eigenvalues --  -10.19406 -10.19400 -10.19289 -10.18980 -10.18840
 Alpha  occ. eigenvalues --  -10.18831 -10.18743 -10.18630 -10.18619 -10.18520
 Alpha  occ. eigenvalues --  -10.18512 -10.18422 -10.18322 -10.18225 -10.18097
 Alpha  occ. eigenvalues --  -10.18024 -10.18011 -10.17940 -10.17854 -10.17696
 Alpha  occ. eigenvalues --  -10.17663 -10.16983 -10.16161 -10.15997 -10.15547
 Alpha  occ. eigenvalues --   -0.93602  -0.89828  -0.88843  -0.85997  -0.84671
 Alpha  occ. eigenvalues --   -0.83777  -0.80878  -0.80269  -0.78455  -0.77767
 Alpha  occ. eigenvalues --   -0.76243  -0.74984  -0.72471  -0.71341  -0.70905
 Alpha  occ. eigenvalues --   -0.67128  -0.66306  -0.64359  -0.63571  -0.63056
 Alpha  occ. eigenvalues --   -0.60592  -0.59570  -0.59072  -0.56789  -0.55932
 Alpha  occ. eigenvalues --   -0.53421  -0.52588  -0.51410  -0.51205  -0.50035
 Alpha  occ. eigenvalues --   -0.49060  -0.48072  -0.47787  -0.46342  -0.45982
 Alpha  occ. eigenvalues --   -0.45234  -0.45122  -0.44296  -0.43621  -0.43553
 Alpha  occ. eigenvalues --   -0.43159  -0.42584  -0.42318  -0.41044  -0.40579
 Alpha  occ. eigenvalues --   -0.40081  -0.39915  -0.39782  -0.39206  -0.38200
 Alpha  occ. eigenvalues --   -0.36617  -0.36437  -0.35415  -0.35088  -0.34877
 Alpha  occ. eigenvalues --   -0.34543  -0.33862  -0.33357  -0.32830  -0.31525
 Alpha  occ. eigenvalues --   -0.29711  -0.28519  -0.27894  -0.25013  -0.22832
 Alpha  occ. eigenvalues --   -0.22096  -0.21348  -0.14876
 Alpha virt. eigenvalues --   -0.11241  -0.09252  -0.05705  -0.03325  -0.01564
 Alpha virt. eigenvalues --   -0.01139  -0.00578   0.00681   0.00842   0.01539
 Alpha virt. eigenvalues --    0.01569   0.01795   0.01900   0.02289   0.02989
 Alpha virt. eigenvalues --    0.03016   0.03188   0.04098   0.04467   0.04622
 Alpha virt. eigenvalues --    0.04807   0.04890   0.05284   0.05611   0.06283
 Alpha virt. eigenvalues --    0.06652   0.06918   0.07268   0.07627   0.07894
 Alpha virt. eigenvalues --    0.08724   0.08903   0.08943   0.09242   0.09387
 Alpha virt. eigenvalues --    0.09780   0.10109   0.10475   0.10796   0.11500
 Alpha virt. eigenvalues --    0.11801   0.12009   0.12329   0.12617   0.12979
 Alpha virt. eigenvalues --    0.13105   0.13316   0.14252   0.14388   0.14823
 Alpha virt. eigenvalues --    0.15021   0.15179   0.15417   0.15634   0.15735
 Alpha virt. eigenvalues --    0.16126   0.16396   0.16583   0.16866   0.17089
 Alpha virt. eigenvalues --    0.17210   0.17580   0.17686   0.17901   0.18066
 Alpha virt. eigenvalues --    0.18448   0.18592   0.18802   0.18991   0.19193
 Alpha virt. eigenvalues --    0.19555   0.19637   0.20025   0.20073   0.20340
 Alpha virt. eigenvalues --    0.20483   0.20737   0.20810   0.21226   0.21363
 Alpha virt. eigenvalues --    0.21481   0.21869   0.21973   0.22115   0.22741
 Alpha virt. eigenvalues --    0.22898   0.23089   0.23340   0.23506   0.23719
 Alpha virt. eigenvalues --    0.23998   0.24161   0.24585   0.24721   0.24858
 Alpha virt. eigenvalues --    0.25094   0.25336   0.25644   0.25744   0.25792
 Alpha virt. eigenvalues --    0.25966   0.26254   0.26586   0.26742   0.27010
 Alpha virt. eigenvalues --    0.27475   0.27702   0.27913   0.28438   0.28656
 Alpha virt. eigenvalues --    0.28951   0.29119   0.29177   0.29689   0.29813
 Alpha virt. eigenvalues --    0.30371   0.30698   0.30916   0.31075   0.31469
 Alpha virt. eigenvalues --    0.31837   0.31919   0.32818   0.32977   0.33160
 Alpha virt. eigenvalues --    0.33416   0.33859   0.34580   0.34796   0.34810
 Alpha virt. eigenvalues --    0.35052   0.35483   0.35832   0.36323   0.36520
 Alpha virt. eigenvalues --    0.37209   0.37302   0.37649   0.38123   0.39051
 Alpha virt. eigenvalues --    0.40141   0.40461   0.40721   0.41372   0.41600
 Alpha virt. eigenvalues --    0.42741   0.43147   0.43655   0.44178   0.44720
 Alpha virt. eigenvalues --    0.45584   0.45909   0.46231   0.46648   0.47815
 Alpha virt. eigenvalues --    0.48218   0.48351   0.49958   0.50391   0.50737
 Alpha virt. eigenvalues --    0.50857   0.51516   0.52131   0.52801   0.53207
 Alpha virt. eigenvalues --    0.53514   0.54067   0.54721   0.54918   0.55350
 Alpha virt. eigenvalues --    0.55475   0.56074   0.56087   0.56876   0.57087
 Alpha virt. eigenvalues --    0.57396   0.57764   0.58520   0.58654   0.59089
 Alpha virt. eigenvalues --    0.59531   0.59723   0.59968   0.60395   0.60838
 Alpha virt. eigenvalues --    0.61091   0.61167   0.61604   0.62491   0.62712
 Alpha virt. eigenvalues --    0.62901   0.63456   0.63860   0.64318   0.64637
 Alpha virt. eigenvalues --    0.65197   0.65296   0.65789   0.66021   0.66602
 Alpha virt. eigenvalues --    0.67001   0.67352   0.67651   0.67985   0.68184
 Alpha virt. eigenvalues --    0.68655   0.68934   0.69166   0.69758   0.70225
 Alpha virt. eigenvalues --    0.70598   0.70866   0.71154   0.71797   0.71944
 Alpha virt. eigenvalues --    0.72414   0.72678   0.72915   0.73011   0.73600
 Alpha virt. eigenvalues --    0.73811   0.74116   0.74645   0.75029   0.75673
 Alpha virt. eigenvalues --    0.75856   0.76415   0.76454   0.77143   0.77248
 Alpha virt. eigenvalues --    0.77718   0.78161   0.78429   0.79326   0.79651
 Alpha virt. eigenvalues --    0.81021   0.81494   0.82096   0.82845   0.83769
 Alpha virt. eigenvalues --    0.84309   0.85424   0.85483   0.86630   0.87923
 Alpha virt. eigenvalues --    0.88231   0.88586   0.89235   0.89665   0.90488
 Alpha virt. eigenvalues --    0.90737   0.90828   0.91732   0.92465   0.92844
 Alpha virt. eigenvalues --    0.93261   0.93782   0.93880   0.94752   0.95125
 Alpha virt. eigenvalues --    0.95425   0.96103   0.96586   0.96770   0.97456
 Alpha virt. eigenvalues --    0.97819   0.98023   0.98506   0.98631   0.99262
 Alpha virt. eigenvalues --    1.00090   1.00718   1.01302   1.01867   1.02070
 Alpha virt. eigenvalues --    1.02164   1.02638   1.03460   1.03587   1.04005
 Alpha virt. eigenvalues --    1.04627   1.05218   1.06064   1.06601   1.06955
 Alpha virt. eigenvalues --    1.07192   1.08148   1.08386   1.08968   1.09238
 Alpha virt. eigenvalues --    1.10082   1.10887   1.11614   1.13704   1.13873
 Alpha virt. eigenvalues --    1.14663   1.15274   1.15869   1.15974   1.16842
 Alpha virt. eigenvalues --    1.17482   1.18029   1.19317   1.19870   1.20866
 Alpha virt. eigenvalues --    1.22027   1.23275   1.24396   1.25329   1.26508
 Alpha virt. eigenvalues --    1.29287   1.31196   1.32220   1.33307   1.34427
 Alpha virt. eigenvalues --    1.37184   1.37500   1.38833   1.39722   1.40138
 Alpha virt. eigenvalues --    1.41141   1.41607   1.42050   1.43774   1.44622
 Alpha virt. eigenvalues --    1.45711   1.46597   1.46939   1.47590   1.48252
 Alpha virt. eigenvalues --    1.48594   1.49021   1.49515   1.50069   1.50684
 Alpha virt. eigenvalues --    1.51164   1.51481   1.52045   1.52812   1.53759
 Alpha virt. eigenvalues --    1.54229   1.54364   1.54670   1.55885   1.57011
 Alpha virt. eigenvalues --    1.57901   1.58223   1.58937   1.59377   1.60112
 Alpha virt. eigenvalues --    1.60319   1.61650   1.62437   1.63237   1.64616
 Alpha virt. eigenvalues --    1.64703   1.65169   1.65861   1.67297   1.67913
 Alpha virt. eigenvalues --    1.68731   1.69002   1.69448   1.70351   1.71148
 Alpha virt. eigenvalues --    1.71752   1.72372   1.72499   1.73983   1.74567
 Alpha virt. eigenvalues --    1.75227   1.75575   1.76356   1.76727   1.77862
 Alpha virt. eigenvalues --    1.78026   1.78903   1.79614   1.80268   1.81468
 Alpha virt. eigenvalues --    1.81869   1.82134   1.83550   1.84099   1.84745
 Alpha virt. eigenvalues --    1.85260   1.86185   1.86731   1.86810   1.88282
 Alpha virt. eigenvalues --    1.88314   1.88719   1.88978   1.89668   1.90033
 Alpha virt. eigenvalues --    1.90684   1.91461   1.91866   1.92361   1.93395
 Alpha virt. eigenvalues --    1.93701   1.94290   1.95084   1.95500   1.96981
 Alpha virt. eigenvalues --    1.97258   1.97373   1.98157   1.98879   1.99959
 Alpha virt. eigenvalues --    2.00590   2.01524   2.02090   2.02654   2.03494
 Alpha virt. eigenvalues --    2.03898   2.04469   2.05213   2.06382   2.07065
 Alpha virt. eigenvalues --    2.07420   2.08539   2.08905   2.09514   2.11252
 Alpha virt. eigenvalues --    2.11673   2.12803   2.13096   2.14058   2.14883
 Alpha virt. eigenvalues --    2.15759   2.16816   2.17991   2.18164   2.19011
 Alpha virt. eigenvalues --    2.21042   2.21305   2.21630   2.22504   2.23402
 Alpha virt. eigenvalues --    2.23890   2.25229   2.25612   2.26634   2.28243
 Alpha virt. eigenvalues --    2.28540   2.30007   2.30866   2.31812   2.33999
 Alpha virt. eigenvalues --    2.35122   2.36030   2.37854   2.38871   2.41883
 Alpha virt. eigenvalues --    2.42460   2.42585   2.43929   2.44649   2.45956
 Alpha virt. eigenvalues --    2.46391   2.47389   2.48815   2.50125   2.51426
 Alpha virt. eigenvalues --    2.53649   2.55749   2.56094   2.57545   2.58131
 Alpha virt. eigenvalues --    2.58989   2.60299   2.60761   2.62407   2.63640
 Alpha virt. eigenvalues --    2.64085   2.64503   2.65064   2.66418   2.67605
 Alpha virt. eigenvalues --    2.69180   2.69959   2.70705   2.71620   2.71900
 Alpha virt. eigenvalues --    2.72433   2.73236   2.73680   2.74069   2.74368
 Alpha virt. eigenvalues --    2.74715   2.74886   2.75690   2.76183   2.76756
 Alpha virt. eigenvalues --    2.77108   2.77411   2.77962   2.78206   2.78713
 Alpha virt. eigenvalues --    2.79115   2.79425   2.80045   2.80684   2.80898
 Alpha virt. eigenvalues --    2.83199   2.83362   2.84306   2.85269   2.86354
 Alpha virt. eigenvalues --    2.86468   2.87172   2.87469   2.88172   2.89248
 Alpha virt. eigenvalues --    2.90625   2.91275   2.91954   2.93529   2.93828
 Alpha virt. eigenvalues --    2.94537   2.96039   2.98139   2.99394   3.00895
 Alpha virt. eigenvalues --    3.01449   3.02260   3.03000   3.05380   3.06780
 Alpha virt. eigenvalues --    3.07986   3.08529   3.11482   3.14407   3.15381
 Alpha virt. eigenvalues --    3.16600   3.16960   3.18046   3.20288   3.21385
 Alpha virt. eigenvalues --    3.22324   3.23474   3.23728   3.25053   3.26176
 Alpha virt. eigenvalues --    3.29297   3.31600   3.34373   3.37516   3.38304
 Alpha virt. eigenvalues --    3.38595   3.39850   3.42153   3.42210   3.42937
 Alpha virt. eigenvalues --    3.44047   3.44645   3.46336   3.46779   3.48072
 Alpha virt. eigenvalues --    3.48510   3.49968   3.51478   3.53247   3.54413
 Alpha virt. eigenvalues --    3.55404   3.57054   3.58982   3.61253   3.62692
 Alpha virt. eigenvalues --    3.65375   3.66396   3.69706   3.71234   3.73301
 Alpha virt. eigenvalues --    3.74234   3.77921   3.84094   3.87726   3.91801
 Alpha virt. eigenvalues --    3.95741   3.98018   4.03526   4.04659   4.07395
 Alpha virt. eigenvalues --    4.08000   4.10562   4.12081   4.14207   4.17857
 Alpha virt. eigenvalues --    4.22135   4.25702   4.30603   4.37588   4.46301
 Alpha virt. eigenvalues --    4.52710   4.69392   4.75202   4.77815   4.80639
 Alpha virt. eigenvalues --    4.82628   4.83672   4.87083   4.91731   4.95085
 Alpha virt. eigenvalues --   23.39807  23.63401  23.71388  23.79572  23.84893
 Alpha virt. eigenvalues --   23.86882  23.88712  23.91387  23.93031  23.94083
 Alpha virt. eigenvalues --   23.96167  23.99105  23.99612  24.00484  24.02245
 Alpha virt. eigenvalues --   24.03407  24.04068  24.04640  24.06438  24.06888
 Alpha virt. eigenvalues --   24.08392  24.08859  24.10440  24.14413  24.15572
 Alpha virt. eigenvalues --   24.16106  24.17211  24.17400  24.26147  24.35567
          Condensed to atoms (all electrons):
               1          2          3          4          5          6
     1  C    9.269478   0.643429  -0.240782   0.561930  -1.259691  -0.972268
     2  C    0.643429   7.297532   0.401013   0.537609   0.438523   0.571330
     3  C   -0.240782   0.401013   7.339773   0.511534   0.904655  -0.011851
     4  C    0.561930   0.537609   0.511534  10.412854  -1.420636  -0.729332
     5  C   -1.259691   0.438523   0.904655  -1.420636   9.794607   1.584068
     6  C   -0.972268   0.571330  -0.011851  -0.729332   1.584068   8.219834
     7  C    0.237092  -0.130323  -0.296817   0.203095  -0.626413  -0.346481
     8  C   -0.024133   0.071652   0.307123   0.609163  -0.105919  -0.278628
     9  C   -0.180413  -0.202271   0.206239  -0.931653   0.114556   0.098606
    10  C    0.389616  -1.250357  -1.638119  -2.112789  -0.749318  -1.240629
    11  C    0.003942   0.063619   0.215990   0.420379  -0.284267  -0.211860
    12  C   -0.101126  -0.380813   0.013301  -0.080043  -0.100421  -0.113430
    13  C    0.202584  -0.274947  -0.407504  -0.320953  -0.110596  -0.022561
    14  C    0.022463  -0.274210  -0.079821  -0.457588  -0.082669  -0.112264
    15  C    1.176618   0.599914  -0.264220  -0.349203  -0.701813   0.018923
    16  C   -1.502720  -0.479523   0.076999  -0.940739   0.226317   0.196299
    17  C   -0.499956   0.342319  -0.119941  -0.126591  -0.484539   0.004968
    18  C    0.446169  -0.442119  -0.459307   0.273110  -0.710397  -0.507715
    19  C    0.092393   0.002387   0.063640  -0.126114  -0.016893   0.022005
    20  C    0.045028   0.281923  -0.473988   0.100377   0.165698  -0.030833
    21  C   -0.025453   0.200916  -0.130670   0.066612   0.042700  -0.012338
    22  C   -0.012707  -0.059678  -0.022386  -0.035527  -0.006235  -0.005615
    23  C   -1.069520  -0.842623   0.102747  -0.213541  -0.143912  -0.100856
    24  C   -0.158457  -0.228282  -0.005954  -0.017169  -0.099610  -0.030633
    25  C   -0.244440  -0.265897   0.178857  -0.080209   0.087931   0.006003
    26  C   -0.741207  -0.257816  -0.212662   0.009021  -0.153809  -0.008078
    27  C   -0.206987  -0.219987   0.032536   0.032981  -0.181760  -0.055340
    28  C   -0.014259   0.043046   0.025638   0.014671  -0.022182  -0.005750
    29  C   -0.076147  -0.145135   0.019686  -0.009499  -0.002210   0.000658
    30  C   -0.022848  -0.040527   0.009885  -0.001592  -0.001721  -0.000396
    31  H    0.000044   0.000078   0.000013   0.000002   0.000002  -0.000000
    32  H    0.000170  -0.000763   0.001442   0.000078   0.000080  -0.000011
    33  H    0.000520  -0.000052  -0.000010  -0.000005   0.000035   0.000002
    34  H    0.002201   0.001716   0.000078   0.000061   0.000048  -0.000006
    35  H    0.041655   0.008860   0.000549   0.000395   0.006010   0.000393
    36  H   -0.030493   0.026193  -0.008587   0.004865   0.005553   0.003792
    37  H   -0.089653   0.013925  -0.002440  -0.018297   0.369121  -0.030996
    38  H    0.016009   0.003908   0.032534  -0.103726   0.030919   0.371492
    39  H    0.004644  -0.016187   0.031119  -0.106945  -0.003764   0.001081
    40  H    0.002331  -0.004236  -0.000760  -0.040784  -0.001567  -0.000462
    41  H   -0.000322   0.004371  -0.012881   0.011305   0.000199   0.000516
    42  H    0.000013  -0.000138   0.000938   0.000036   0.000007   0.000002
    43  H    0.000004   0.000050   0.000154   0.000036   0.000001   0.000002
    44  H   -0.000106  -0.000188  -0.000427   0.000045  -0.000010   0.000001
    45  H   -0.005815  -0.012951  -0.011127  -0.001136  -0.000510   0.000029
    46  H   -0.000330  -0.000066  -0.000411  -0.000007  -0.000024  -0.000003
               7          8          9         10         11         12
     1  C    0.237092  -0.024133  -0.180413   0.389616   0.003942  -0.101126
     2  C   -0.130323   0.071652  -0.202271  -1.250357   0.063619  -0.380813
     3  C   -0.296817   0.307123   0.206239  -1.638119   0.215990   0.013301
     4  C    0.203095   0.609163  -0.931653  -2.112789   0.420379  -0.080043
     5  C   -0.626413  -0.105919   0.114556  -0.749318  -0.284267  -0.100421
     6  C   -0.346481  -0.278628   0.098606  -1.240629  -0.211860  -0.113430
     7  C    7.014727   0.458238   0.004351   1.202211  -0.330005   0.158577
     8  C    0.458238   7.945027  -0.558121  -0.909561   0.658368  -0.115131
     9  C    0.004351  -0.558121   8.251977   0.816467  -0.124274  -0.211652
    10  C    1.202211  -0.909561   0.816467  11.970426  -0.652987   0.259867
    11  C   -0.330005   0.658368  -0.124274  -0.652987   9.064956   1.282226
    12  C    0.158577  -0.115131  -0.211652   0.259867   1.282226   9.676637
    13  C   -0.627780  -1.470038  -0.264644  -0.270917   0.266965   0.559417
    14  C    0.275126   1.215660  -0.405973   0.449437   0.721557   0.627098
    15  C    0.028190   0.009988  -0.059222   0.006840   0.074299   0.037317
    16  C   -0.489127   0.160455  -0.132881  -0.282847  -0.469656  -0.672300
    17  C    0.005859  -0.083895   0.000020  -0.126008   0.430595  -0.211914
    18  C    0.307462   0.121458  -0.374000   0.522671  -0.723604   0.398330
    19  C   -0.740145  -0.922951  -0.091098  -0.233912  -1.128721  -1.333545
    20  C   -0.257988  -0.854885   0.038850  -0.353965  -1.637429   0.536432
    21  C    0.588769  -0.211356   0.001552  -0.053652  -1.604549  -2.454286
    22  C   -0.183415  -0.197638  -0.077852   0.021253  -0.367816   0.055550
    23  C   -0.085831   0.051406  -0.023638  -0.009513   0.225058  -0.022960
    24  C   -0.051350   0.020396  -0.004932   0.004282   0.262843  -0.078726
    25  C   -0.000421   0.000800   0.007441  -0.028534  -0.504016  -0.923230
    26  C    0.066331   0.015212  -0.050229  -0.004860  -0.252151  -0.335366
    27  C   -0.268568   0.093593   0.017776   0.146893   0.788305  -0.601142
    28  C   -0.147860   0.053868   0.017177   0.018938   0.258421   0.002252
    29  C    0.035014  -0.000246   0.000263  -0.002265  -0.082718   0.096383
    30  C    0.005819   0.009751   0.001467   0.000335   0.028365  -0.064963
    31  H    0.000064   0.000007   0.000000   0.000000  -0.000946  -0.001028
[...]
 ,-0.00020627,0.00030880,0.00022443,-0.00027644,-0.00104028,-0.00066202
 ,-0.00005963,-0.00008865,-0.00001646,0.00000670,-0.00002268,-0.0000114
 7,-0.00000385,0.00007213,0.00002713,-0.00002700,0.00002496,0.00000590,
 -0.00004170,0.00000417,0.00004358,-0.00000900,0.00000578,0.00000052,-0
 .00001837,0.00000244,-0.00000594,-0.00000361,-0.00000592,0.00000451,-0
 .00000303,-0.00000217,0.00000025,-0.00000518,-0.00000045,-0.00000023,0
 .00000028,-0.00000750,0.00000031,0.00000379,-0.00000429,-0.00000116,0.
 00000411,-0.00000119,0.00000011,-0.00001358,-0.00000925,-0.00004644,0.
 00067733,-0.00024351,0.00074789,0.19944253,0.00001566,0.00003080,0.000
 00322,0.00000656,-0.00004593,-0.00000720,-0.00009147,-0.00000905,-0.00
 000943,0.00003291,0.00004277,0.00000318,0.00003264,0.00002182,0.000002
 22,-0.00002000,-0.00002602,-0.00000179,0.00022626,0.00009052,0.0000159
 3,0.00007374,-0.00056666,-0.00003211,-0.00011134,0.00001072,-0.0000358
 1,0.00003121,-0.00007346,0.00001244,-0.00017120,0.00002312,-0.00004788
 ,0.00072580,0.00011377,0.00001793,0.00319083,-0.00428056,0.00159335,-0
 .00130981,-0.00015691,-0.00014246,-0.00000505,0.00000004,-0.00000196,-
 0.00000883,0.00000997,0.00000646,-0.00007353,0.00001951,0.00000662,0.0
 0001772,-0.00004549,0.00000317,-0.02298489,-0.01784036,-0.00172313,0.0
 0210775,0.00048592,0.00086298,0.00747335,0.00840571,0.00076226,-0.1363
 1403,-0.19954166,-0.00664760,-0.00010267,0.00003449,-0.00000678,0.0000
 2965,-0.00009927,0.00000197,-0.00000613,0.00001509,-0.00000759,0.00012
 142,-0.00002667,-0.00014194,0.00001486,0.00025882,0.00024035,-0.000011
 73,-0.00000670,-0.00009730,0.00001704,-0.00005313,-0.00000476,-0.00000
 751,-0.00002395,0.00002067,0.00000369,0.00000802,-0.00000259,0.0001372
 2,0.00000259,0.00002289,-0.00001070,0.00000346,-0.00000021,-0.00000576
 ,0.00000711,0.00000200,-0.00000138,-0.00000432,-0.00000088,-0.00000488
 ,0.00000048,0.00000054,-0.00000564,-0.00000656,-0.00000016,0.00000125,
 -0.00000597,0.00000053,-0.00001211,-0.00001516,0.00000214,0.00001342,-
 0.00001125,0.00000284,0.00006038,-0.00001798,0.00004273,0.00040724,0.0
 0094905,-0.00038924,0.14623604,0.21108912,-0.00004948,0.00001957,0.000
 00113,0.00001786,0.00002203,0.00002362,0.00011117,0.00010993,0.0000239
 1,0.00007263,-0.00015843,-0.00000416,0.00001064,-0.00001297,-0.0000012
 8,0.00002653,0.00001195,-0.00000351,0.00001794,-0.00033537,0.00010924,
 -0.00002592,-0.00011738,-0.00066905,0.00006380,0.00007920,-0.00006896,
 -0.00013244,-0.00000011,0.00003220,0.00019826,0.00040381,-0.00031641,-
 0.00038551,-0.00041120,-0.00037097,-0.00090413,0.00120213,0.00637228,0
 .00019808,0.00019003,0.00022205,0.00002496,-0.00003375,-0.00000648,-0.
 00002347,0.00002259,0.00000160,0.00003974,-0.00004998,0.00000781,-0.00
 002281,0.00005327,-0.00002051,0.00316726,0.00268442,0.00372836,-0.0023
 7176,0.00148525,0.00697325,-0.00356362,-0.00397452,0.00291542,-0.01235
 553,-0.00616576,-0.03978649,0.00004370,-0.00007403,-0.00001632,0.00005
 364,0.00014088,-0.00000226,-0.00019737,-0.00004930,-0.00004975,-0.0000
 1633,0.00034062,0.00008415,-0.00081800,-0.00111574,0.00003686,0.000180
 51,-0.00003841,0.00007953,0.00001237,0.00001879,-0.00000095,-0.0000181
 8,0.00005660,0.00000531,-0.00000448,-0.00000115,0.00000916,-0.00007562
 ,-0.00005484,0.00001063,0.00000190,0.00000191,0.00000299,-0.00000983,-
 0.00000530,0.00001221,-0.00000027,-0.00000380,0.00000526,0.00000172,-0
 .00000185,0.00000090,-0.00000020,0.00000207,0.00000009,0.00000073,-0.0
 0000012,0.00000254,-0.00000263,0.00000115,0.00001396,-0.00000041,0.000
 00414,0.00000328,-0.00004021,0.00001216,0.00019917,0.00065250,-0.00048
 013,-0.00337075,0.01416452,0.00609826,0.02811327,-0.00000664,0.0000118
 7,0.00000203,0.00004449,0.00001227,-0.00001632,-0.00010652,-0.00026844
 ,0.00000149,0.00003452,0.00016630,0.00000097,0.00006879,0.00006352,0.0
 0000948,-0.00006659,-0.00007657,-0.00000113,-0.00014036,0.00010178,0.0
 0009345,-0.00019806,-0.00028949,-0.00004293,0.00008818,0.00010790,-0.0
 0002132,-0.00000282,-0.00004601,0.00000206,0.00089119,-0.00131809,0.00
 022181,-0.00394009,-0.00181356,-0.00159007,-0.00079073,-0.00093832,0.0
 0006644,0.00022962,0.00059103,0.00013497,-0.00003385,0.00001583,0.0000
 0097,0.00003562,-0.00001165,0.00004476,-0.00000828,0.00012034,0.000009
 59,0.00022650,-0.00001325,-0.00000200,-0.00481012,0.00040636,-0.001946
 01,0.00684534,-0.01924135,0.00574861,-0.05965789,0.04559255,-0.0152023
 7,-0.00345471,0.03099698,-0.00618919,-0.00016261,0.00019362,0.00000382
 ,-0.00011424,-0.00028596,-0.00000999,0.00017115,0.00002767,-0.00002042
 ,-0.00039541,0.00030454,-0.00018038,0.00143197,0.00010778,0.00008117,-
 0.00579591,-0.00012832,0.00316285,-0.00000655,-0.00037438,-0.00023892,
 -0.00012285,-0.00001044,-0.00016069,0.00003163,-0.00002098,0.00006063,
 -0.00203203,0.00037344,0.00080227,-0.00000549,0.00001578,0.00002335,-0
 .00001762,-0.00000105,0.00000335,0.00000170,0.00000528,-0.00000315,0.0
 0000083,0.00000328,0.00000162,0.00000019,-0.00000862,0.00000054,-0.000
 00064,0.00000075,-0.00000413,0.00000353,0.00000615,0.00000349,0.000001
 71,-0.00001312,-0.00000116,0.00005769,-0.00008279,0.00001607,-0.000363
 46,0.00130924,-0.00001427,0.00070899,0.00014577,0.00093703,0.07421529,
 -0.00006953,-0.00002071,0.00000410,0.00003215,-0.00012559,0.00001224,-
 0.00005581,-0.00010711,-0.00008033,0.00005612,-0.00006393,-0.00000984,
 -0.00002705,0.00003248,-0.00001057,0.00002451,0.00000527,0.00001052,-0
 .00045651,0.00014284,0.00005672,0.00004926,-0.00021314,0.00006754,0.00
 003063,0.00020403,0.00000158,-0.00013983,-0.00007647,-0.00001756,0.001
 06771,-0.00118896,0.00051823,-0.00406077,0.00020468,-0.00159828,-0.000
 39976,-0.00002142,-0.00012418,0.00012421,0.00016538,-0.00004393,-0.000
 04533,-0.00005476,-0.00000997,-0.00003477,0.00001837,0.00000636,0.0001
 1528,-0.00006873,-0.00002693,0.00019990,0.00017880,0.00002028,0.001085
 73,0.00224565,0.00093329,0.00522504,-0.01414482,0.00503590,0.04597121,
 -0.33360370,0.05147647,-0.00047565,-0.00567601,0.00274798,0.00006746,-
 0.00009314,-0.00001500,0.00005309,0.00018576,0.00002497,-0.00021664,-0
 .00016521,-0.00008212,-0.00014571,0.00028992,0.00027780,0.00094841,-0.
 00179405,-0.00030893,0.00438425,-0.00008100,-0.00259411,0.00044449,-0.
 00030509,0.00008908,0.00035612,0.00136287,0.00006236,-0.00002925,-0.00
 002577,-0.00006232,0.00174254,-0.00001235,0.00116552,0.00012537,0.0000
 6041,0.00005159,-0.00002010,0.00000236,0.00001150,-0.00000465,0.000004
 30,0.00000064,-0.00000474,0.00000141,-0.00000354,-0.00000602,-0.000003
 72,-0.00000050,-0.00000759,-0.00000944,0.00000288,-0.00000399,-0.00000
 807,-0.00000074,0.00001020,-0.00001017,0.00000126,0.00002618,-0.000023
 09,-0.00001674,0.00000113,-0.00038182,-0.00022279,0.00035541,0.0011078
 0,-0.00077630,-0.05760658,0.35136902,-0.00001089,-0.00001601,0.0000139
 1,-0.00000707,-0.00016321,0.00005329,-0.00006698,0.00004952,0.00001686
 ,0.00009194,-0.00011222,-0.00005770,-0.00002275,-0.00001314,-0.0000178
 3,0.00000232,0.00000762,-0.00003883,-0.00021328,0.00006560,0.00001259,
 0.00000181,-0.00015347,-0.00010512,0.00002221,0.00019783,0.00008830,-0
 .00018791,-0.00005340,-0.00000281,0.00034875,-0.00059585,0.00025456,-0
 .00177776,0.00022173,0.00117673,-0.00016097,-0.00058924,-0.00058104,0.
 00011559,0.00019111,-0.00046671,-0.00005590,-0.00005319,-0.00000728,0.
 00001177,-0.00003319,-0.00004254,0.00007310,-0.00009059,-0.00004192,0.
 00007366,0.00019321,0.00006911,-0.00172011,0.00105721,0.00612547,0.001
 51836,-0.00665149,0.00034322,-0.01609060,0.05626803,-0.03248576,-0.000
 02726,0.00444227,0.00262135,0.00021688,-0.00010725,-0.00001194,-0.0000
 1834,0.00021088,0.00012579,-0.00001109,-0.00002564,-0.00021439,-0.0001
 7758,-0.00012120,0.00008123,-0.00074273,0.00002042,0.00129751,-0.00039
 857,0.00118041,-0.00452238,-0.00013229,0.00019733,0.00065621,-0.000059
 71,-0.00034693,-0.00014449,0.00000774,0.00004661,-0.00020415,0.0047221
 0,-0.00089733,-0.00089387,-0.00003801,-0.00002846,0.00001351,0.0000091
 1,0.00000027,0.00000578,-0.00000874,0.00000016,0.00000517,-0.00000273,
 -0.00000330,-0.00000875,-0.00000124,0.00000014,0.00000403,-0.00000674,
 -0.00000127,0.00001549,-0.00000361,-0.00000284,-0.00000917,0.00000203,
 -0.00000142,0.00000932,0.00001365,-0.00000538,0.00009455,-0.00009323,0
 .00026916,0.00049818,0.00077765,-0.00046756,-0.00453493,0.01605813,-0.
 05556853,0.02789262,0.00054205,-0.00078413,0.00006861,-0.00089846,0.00
 117413,-0.00022600,0.00048782,-0.00146712,0.00012900,-0.00125517,0.001
 88955,-0.00027067,-0.00052751,0.00004863,-0.00003083,-0.00013402,0.000
 05576,-0.00004295,-0.00102776,0.00227318,0.00013934,0.00135559,0.00222
 567,0.00002840,-0.00097357,-0.00118604,-0.00011541,0.00189571,0.000034
 72,0.00029719,0.00029984,-0.00432143,0.00066673,0.00105628,0.00603847,
 -0.00816361,-0.00017672,0.00221639,0.00024079,-0.00054924,-0.00167745,
 0.00005918,-0.00022140,0.00074586,0.00014273,0.00085105,-0.00044714,-0
 .00009886,-0.00034096,0.00084475,0.00077898,0.00009667,-0.00105662,-0.
 00069966,0.00102244,0.00126744,-0.00052799,-0.01386972,0.00099060,-0.0
 1376801,-0.01480115,-0.00862047,-0.02047548,0.00123624,-0.00456796,0.0
 0054374,-0.00017522,0.00116684,0.00021932,-0.00167460,-0.00146008,0.00
 016653,0.00404630,-0.00117386,-0.00133065,-0.00578301,-0.00098496,-0.0
 0105843,-0.00731510,0.00583394,0.02218055,-0.00015980,0.00090736,-0.00
 081606,-0.00011940,0.00139933,0.00044448,-0.00111123,-0.00035249,-0.00
 119561,0.00004922,0.00004779,-0.00033410,-0.00035821,-0.00132334,-0.00
 046409,0.00004403,-0.00003155,0.00010686,0.00003034,-0.00005580,0.0000
 6083,-0.00003818,0.00005515,-0.00004977,-0.00004245,-0.00000467,-0.000
 02840,0.00000976,0.00000421,-0.00000045,-0.00003317,0.00000800,-0.0000
 0107,-0.00000297,0.00000433,-0.00000438,-0.00000896,-0.00005887,0.0000
 0490,-0.00003714,0.00002721,0.00001946,0.00000348,-0.00003976,-0.00007
 474,-0.00021205,0.00008512,0.00106628,0.00044985,0.00011579,0.00110953
 ,0.03869356,0.00012203,-0.00022493,-0.00000490,0.00044443,-0.00161113,
 -0.00017403,-0.00127643,0.00040274,0.00014361,-0.00003878,-0.00050035,
 0.00012989,-0.00025297,0.00021337,-0.00003814,0.00039796,0.00014005,0.
 00003937,-0.00069248,0.00216433,-0.00157912,0.00186065,0.00020558,0.00
 031441,-0.00012340,0.00027056,0.00006795,-0.00017741,-0.00019607,-0.00
 004889,0.00122686,-0.00208673,0.00004216,0.00436082,-0.00892832,0.0288
 3230,0.00081650,0.00146819,0.00049362,-0.00040516,-0.00238286,-0.00036
 457,-0.00013506,0.00022925,0.00002897,0.00014804,-0.00036830,0.0000301
 3,0.00017684,-0.00146637,-0.00043476,0.00005090,0.00136522,0.00025362,
 0.00006741,-0.00268234,-0.00023750,0.00003233,-0.02904229,-0.01286605,
 -0.00371476,-0.00233919,-0.01791507,-0.00358055,0.00140550,-0.00021701
 ,0.00019449,-0.00003603,-0.00001242,0.00009653,0.00053889,-0.00003354,
 -0.00179456,0.00222131,0.00092595,0.00379477,0.00137653,0.00061872,-0.
 00198737,0.00027429,-0.00588577,-0.00282440,-0.00160141,0.00040274,-0.
 00106443,-0.00184351,-0.00036356,0.00229413,0.00011001,0.00056000,-0.0
 0000379,-0.00002164,-0.00000150,0.00090759,-0.00029388,-0.00034006,-0.
 00001410,-0.00003715,-0.00009036,0.00003963,-0.00000019,-0.00001868,0.
 00000770,0.00001599,-0.00004893,0.00000012,0.00001162,0.00002730,-0.00
 000990,0.00001966,0.00000916,-0.00000086,-0.00000755,0.00000081,-0.000
 01603,-0.00000283,-0.00000121,0.00000895,-0.00000140,-0.00000508,0.000
 01180,0.00000132,-0.00017730,-0.00003160,-0.00009117,-0.00002116,-0.00
 021325,0.00009316,0.00092822,0.00027087,0.00022958,0.00084638,0.000151
 00,0.04392850,0.00072234,-0.00025941,0.00015044,-0.00032648,-0.0007545
 5,-0.00018670,-0.00016561,-0.00026065,-0.00015755,-0.00033585,0.000298
 59,-0.00007831,-0.00010741,0.00001178,-0.00000870,0.00003544,-0.000006
 49,0.00000700,-0.00013401,0.00069671,0.00057369,-0.00006896,0.00031916
 ,-0.00014294,-0.00010984,-0.00025873,-0.00004721,0.00032537,0.00003901
 ,0.00006492,-0.00211179,-0.00194426,0.00199527,-0.00229202,0.00733736,
 -0.00880132,0.00091034,0.00081061,-0.00037291,-0.00016890,0.00005165,-
 0.00003609,-0.00012029,0.00054178,0.00004638,-0.00014417,-0.00007648,-
 0.00008416,0.00006607,0.00137922,-0.00026971,0.00119202,0.00054520,-0.
 00065936,0.00013707,0.00144118,-0.00041925,-0.01800175,-0.00456419,-0.
 24966641,-0.00824607,-0.00444827,-0.00891025,0.00216816,-0.00313966,0.
 00111578,-0.00024927,0.00008671,-0.00004580,-0.00006653,-0.00018538,-0
 .00033771,0.00073843,-0.00084068,0.00094491,-0.00221557,-0.00194291,0.
 00246632,0.00852395,-0.00258273,-0.02130656,0.00149533,0.00111786,0.00
 008886,0.00005930,0.00033876,0.00003196,-0.00016326,-0.00022749,0.0001
 7020,0.00002774,-0.00007555,0.00018255,-0.00044339,0.00021004,0.000497
 94,-0.00000296,0.00002510,-0.00007234,-0.00000119,-0.00000383,-0.00004
 398,-0.00000091,-0.00000553,0.00004355,-0.00001032,0.00000120,0.000008
 05,0.00000196,0.00000040,-0.00000090,-0.00000492,0.00000135,-0.0000010
 8,0.00000538,-0.00000086,-0.00000159,-0.00000504,-0.00000514,0.0000075
 1,-0.00004328,0.00006096,0.00010719,-0.00001699,0.00000572,-0.00002723
 ,-0.00021221,0.00004724,0.00027307,-0.00051067,-0.00022923,0.00043546,
 0.02032251,0.00685783,0.28143865,-0.00013052,0.00023826,-0.00001334,0.
 00000651,-0.00041934,0.00001397,-0.00022360,-0.00003326,-0.00004963,0.
 00001385,-0.00011149,-0.00000726,0.00000341,-0.00030525,-0.00000149,-0
 .00010642,0.00013114,-0.00000543,-0.00040731,0.00042596,-0.00006802,0.
 00061745,0.00043053,0.00017627,-0.00005394,-0.00017466,-0.00000809,0.0
 0000386,0.00008001,0.00000186,0.00029281,-0.00029647,0.00018181,-0.000
 19215,-0.00004627,-0.00033760,0.00087581,0.00139900,0.00007711,-0.0002
 4924,-0.00096013,-0.00000227,0.00011227,-0.00029902,-0.00006289,-0.000
 53833,0.00033844,-0.00001031,-0.00008471,-0.00087029,0.00019020,-0.000
 21637,0.00054900,-0.00008371,0.00006232,-0.00187056,0.00059793,0.00057
 647,0.00064752,0.00155848,0.00001404,0.00015894,-0.00423524,-0.0024567
 9,0.00202028,0.00236102,0.00032053,-0.00147983,-0.00017422,0.00133811,
 0.00165132,0.00023251,-0.00202558,-0.00173240,0.00010879,0.00280754,0.
 00022676,0.00056588,-0.00340597,-0.00950200,-0.00002450,-0.07530139,-0
 .04052709,0.08438985,-0.00018227,0.00587953,0.00169487,-0.02348215,-0.
 01102042,0.02240831,0.00077058,0.00048976,-0.00089799,0.00249110,0.007
 25258,-0.01526868,-0.00064556,0.00003213,-0.00154113,0.00005425,0.0000
 2840,-0.00005496,0.00000634,-0.00002423,-0.00000293,-0.00000237,-0.000
 00531,-0.00000386,-0.00000275,0.00000708,-0.00000446,-0.00000852,-0.00
 001257,0.00000151,-0.00000033,-0.00001399,-0.00000105,0.00000327,0.000
 00508,0.00000156,0.00000234,-0.00000042,-0.00009164,0.00006475,-0.0000
 8058,-0.00060757,0.00002220,0.00005112,-0.00004558,-0.00330532,0.00119
 812,-0.00314023,-0.00032305,0.00087496,-0.00045179,0.10288483,-0.00012
 226,-0.00053362,-0.00001850,0.00010849,0.00011121,0.00013549,0.0005430
 7,0.00073808,0.00000128,-0.00021184,-0.00091052,-0.00002087,-0.0004210
 7,0.00037832,-0.00007902,0.00072065,0.00017309,0.00011410,-0.00029966,
 -0.00094194,-0.00001419,0.00012927,0.00021992,0.00004827,-0.00009925,0
 .00011103,-0.00001238,-0.00026586,-0.00000484,-0.00005260,-0.00005271,
 0.00056699,0.00018014,-0.00100372,-0.00074560,0.00013428,0.00079519,0.
 00040101,-0.00006134,-0.00020211,-0.00021211,0.00000737,-0.00013941,0.
 00000733,-0.00004601,-0.00009791,-0.00027146,0.00002567,-0.00014360,-0
 .00056931,-0.00108829,-0.00035788,0.00036078,-0.00007224,0.00005964,-0
 .00027921,0.00006769,-0.00126454,0.00011195,-0.00119042,0.00125875,0.0
 0086234,0.00014582,-0.00073391,0.00043497,-0.00035175,0.00036933,-0.00
 078497,-0.00014969,0.00073296,0.00153565,0.00034752,-0.00166511,-0.000
 40821,0.00024572,0.00411916,-0.00291514,0.00016451,-0.01490755,-0.0191
 9036,0.02042493,-0.04098120,-0.08854611,0.07924379,0.00219411,-0.00022
 786,0.00002209,0.00483972,0.00952812,-0.01082365,-0.00056088,0.0001773
 9,0.00018270,0.00033919,0.00211591,-0.00230007,0.00023050,-0.00009091,
 0.00099328,-0.00003457,0.00000327,0.00000836,-0.00000063,0.00001313,-0
 .00002860,-0.00000156,-0.00002475,-0.00000695,-0.00000950,0.00002630,-
 0.00000147,-0.00000064,-0.00001251,0.00000362,-0.00001055,-0.00001521,
 0.00000118,0.00000870,0.00000715,-0.00000474,-0.00002878,0.00005172,-0
 .00006419,-0.00006325,0.00002998,0.00002989,-0.00003903,0.00003318,-0.
 00002854,0.00159806,0.00046732,0.00063622,0.00000253,-0.00092000,-0.00
 041342,0.04566967,0.09913848,-0.00008798,0.00002756,-0.00001899,0.0001
 6595,0.00005827,0.00004280,0.00000348,0.00006119,0.00000419,0.00011439
 ,-0.00008235,0.00002489,0.00010904,0.00012574,0.00002088,0.00003804,-0
 .00009106,-0.00000460,0.00030985,-0.00039595,0.00005814,-0.00035258,-0
 .00043452,-0.00007914,0.00015507,0.00009591,0.00001304,-0.00011166,-0.
 00001211,-0.00001048,-0.00006080,0.00053777,-0.00004978,-0.00040428,-0
 .00040156,-0.00016364,-0.00036993,-0.00054790,-0.00005895,0.00019557,0
 .00045124,0.00002830,0.00000618,-0.00007062,-0.00002506,-0.00000910,-0
 .00001164,0.00010741,-0.00028330,0.00038161,-0.00034730,0.00013042,-0.
 00012152,0.00000358,-0.00016576,-0.00016925,0.00002688,-0.00054874,-0.
 00058568,-0.00035253,0.00199590,0.00151186,-0.00157877,0.00022305,-0.0
 0054840,-0.00130054,-0.00018820,0.00026885,0.00005094,-0.00025851,-0.0
 0048055,-0.00006349,0.00040246,0.00040989,-0.00011976,-0.00084456,-0.0
 0071073,-0.00132837,-0.00330914,-0.00049456,0.00810625,0.08080315,0.07
 870332,-0.17338633,-0.00045907,-0.00181094,-0.00091358,0.00495839,0.00
 048099,-0.00173556,0.00039967,-0.00044004,0.00048005,0.00519186,0.0120
 9827,-0.02720830,0.00000448,0.00006016,0.00016266,-0.00003208,-0.00000
 510,-0.00001988,0.00000498,-0.00000123,-0.00000114,0.00000866,-0.00000
 728,0.00000743,0.00000275,-0.00000420,0.00000122,0.00001060,0.00000885
 ,0.00000004,0.00000391,0.00001207,0.00000133,-0.00000547,0.00000509,-0
 .00000235,0.00001095,-0.00001277,0.00002514,0.00001558,-0.00007026,0.0
 0035336,-0.00005259,-0.00000354,-0.00004049,-0.00133583,-0.00077637,0.
 00248139,0.00098127,-0.00067354,0.00102836,-0.08736608,-0.08633498,0.1
 9578077\\0.00000141,0.00000177,0.00000379,-0.00000023,0.00000356,-0.00
 001253,0.00000123,0.00000255,0.00000771,0.00000735,0.00000439,-0.00000
 327,-0.00000024,-0.00000198,0.00000037,-0.00000130,-0.00000249,-0.0000
 0127,0.00000533,-0.00000633,0.00001007,-0.00000808,-0.00000611,-0.0000
 0284,0.00000519,0.00000605,-0.00000235,-0.00000465,-0.00000284,0.00000
 134,-0.00001086,0.00000754,0.00000631,0.00001084,-0.00000459,-0.000003
 10,-0.00000759,-0.00000517,-0.00000107,0.00000509,0.00000860,-0.000004
 25,-0.00000046,-0.00000525,-0.00000054,0.00000614,0.00000465,0.0000040
 1,-0.00000457,-0.00000009,0.00000884,0.00000746,-0.00001279,-0.0000122
 7,0.00000877,0.00000991,-0.00000228,-0.00001335,0.00002498,0.00001390,
 -0.00000406,-0.00002890,-0.00000428,0.00000109,-0.00000202,-0.00000177
 ,-0.00000267,0.00000065,-0.00000022,-0.00000844,-0.00000212,0.00000314
 ,0.00001450,-0.00001301,-0.00000463,-0.00000985,0.00000648,0.00000184,
 0.00001806,-0.00002217,-0.00001299,0.00001041,0.00002146,-0.00000485,-
 0.00000967,0.00000435,0.00000520,0.00000328,0.00000213,-0.00000269,0.0
 0000252,-0.00000119,0.00000237,-0.00000292,-0.00000124,-0.00000494,-0.
 00000116,-0.00000131,-0.00000150,0.00000082,-0.00000005,0.00000011,0.0
 0000013,-0.00000241,0.00000532,0.00000029,-0.00000014,0.00000197,0.000
 00063,-0.00000002,0.00000070,0.00000184,0.,0.00000034,0.00000147,0.000
 00061,-0.00000171,0.00000101,0.00000061,-0.00000177,-0.00000013,-0.000
 00040,-0.00000097,-0.00000181,-0.00000128,0.00000075,-0.00000250,0.000
 00324,-0.00000316,0.00000330,0.00000556,0.00000351,-0.00000672,0.00000
 484,-0.00000275,-0.00001692,0.,0.00001242\\\@


 BE NOT THE FIRST BY WHOM THE NEW ARE TRIED,
 NOR YET THE THE LAST TO LAY THE OLD ASIDE.

                          -- ALEXANDER POPE
 Job cpu time:       0 days 22 hours 39 minutes 32.7 seconds.
 Elapsed time:       0 days  1 hours  8 minutes 10.3 seconds.
 File lengths (MBytes):  RWF=   2278 Int=      0 D2E=      0 Chk=     53 Scr=      1
 Normal termination of Gaussian 16 at Wed Jun 12 06:58:35 2019.
