 Entering Gaussian System, Link 0=/share/apps/gaussian16/g16/g16
 Initial command:
 /share/apps/gaussian16/g16/l1.exe "/home/amen01//scratch/971/Gau-39460.inp" -scrdir="/home/amen01//scratch/971/"
 Entering Link 1 = /share/apps/gaussian16/g16/l1.exe PID=     39461.
  
 Copyright (c) 1988-2017, Gaussian, Inc.  All Rights Reserved.
  
 This is part of the Gaussian(R) 16 program.  It is based on
 the Gaussian(R) 09 system (copyright 2009, Gaussian, Inc.),
 the Gaussian(R) 03 system (copyright 2003, Gaussian, Inc.),
 the Gaussian(R) 98 system (copyright 1998, Gaussian, Inc.),
 the Gaussian(R) 94 system (copyright 1995, Gaussian, Inc.),
 the Gaussian 92(TM) system (copyright 1992, Gaussian, Inc.),
 the Gaussian 90(TM) system (copyright 1990, Gaussian, Inc.),
 the Gaussian 88(TM) system (copyright 1988, Gaussian, Inc.),
 the Gaussian 86(TM) system (copyright 1986, Carnegie Mellon
 University), and the Gaussian 82(TM) system (copyright 1983,
 Carnegie Mellon University). Gaussian is a federally registered
 trademark of Gaussian, Inc.
  
 This software contains proprietary and confidential information,
 including trade secrets, belonging to Gaussian, Inc.
  
 This software is provided under written license and may be
 used, copied, transmitted, or stored only in accord with that
 written license.
  
 The following legend is applicable only to US Government
 contracts under FAR:
  
                    RESTRICTED RIGHTS LEGEND
  
 Use, reproduction and disclosure by the US Government is
 subject to restrictions as set forth in subparagraphs (a)
 and (c) of the Commercial Computer Software - Restricted
 Rights clause in FAR 52.227-19.
  
 Gaussian, Inc.
 340 Quinnipiac St., Bldg. 40, Wallingford CT 06492
  
  
 ---------------------------------------------------------------
 Warning -- This program may not be used in any manner that
 competes with the business of Gaussian, Inc. or will provide
 assistance to any competitor of Gaussian, Inc.  The licensee
 of this program is prohibited from giving any competitor of
 Gaussian, Inc. access to this program.  By using this program,
 the user acknowledges that Gaussian, Inc. is engaged in the
 business of creating and licensing software in the field of
 computational chemistry and represents and warrants to the
 licensee that it is not a competitor of Gaussian, Inc. and that
 it will not use this program in any manner prohibited above.
 ---------------------------------------------------------------
  

 Cite this work as:
 Gaussian 16, Revision B.01,
 M. J. Frisch, G. W. Trucks, H. B. Schlegel, G. E. Scuseria, 
 M. A. Robb, J. R. Cheeseman, G. Scalmani, V. Barone, 
 G. A. Petersson, H. Nakatsuji, X. Li, M. Caricato, A. V. Marenich, 
 J. Bloino, B. G. Janesko, R. Gomperts, B. Mennucci, H. P. Hratchian, 
 J. V. Ortiz, A. F. Izmaylov, J. L. Sonnenberg, D. Williams-Young, 
 F. Ding, F. Lipparini, F. Egidi, J. Goings, B. Peng, A. Petrone, 
 T. Henderson, D. Ranasinghe, V. G. Zakrzewski, J. Gao, N. Rega, 
 G. Zheng, W. Liang, M. Hada, M. Ehara, K. Toyota, R. Fukuda, 
 J. Hasegawa, M. Ishida, T. Nakajima, Y. Honda, O. Kitao, H. Nakai, 
 T. Vreven, K. Throssell, J. A. Montgomery, Jr., J. E. Peralta, 
 F. Ogliaro, M. J. Bearpark, J. J. Heyd, E. N. Brothers, K. N. Kudin, 
 V. N. Staroverov, T. A. Keith, R. Kobayashi, J. Normand, 
 K. Raghavachari, A. P. Rendell, J. C. Burant, S. S. Iyengar, 
 J. Tomasi, M. Cossi, J. M. Millam, M. Klene, C. Adamo, R. Cammi, 
 J. W. Ochterski, R. L. Martin, K. Morokuma, O. Farkas, 
 J. B. Foresman, and D. J. Fox, Gaussian, Inc., Wallingford CT, 2016.
 
 ******************************************
 Gaussian 16:  ES64L-G16RevB.01 20-Dec-2017
                27-Aug-2019 
 ******************************************
 %nprocshared=20
 Will use up to   20 processors via shared memory.
 %mem=180GB
 %chk=7-memb-dir-2cis.chk
 -------------------------------------------
 # opt freq b3lyp/6-311+g(d,p) int=grid=fine
 -------------------------------------------
 1/18=20,19=15,26=3,38=1/1,3;
 2/9=110,12=2,17=6,18=5,40=1/2;
 3/5=4,6=6,7=111,11=2,25=1,30=1,71=1,74=-5,75=-4/1,2,3;
 4//1;
 5/5=2,38=5/2;
 6/7=2,8=2,9=2,10=2,28=1/1;
 7//1,2,3,16;
 1/18=20,19=15,26=3/3(2);
 2/9=110/2;
 99//99;
 2/9=110/2;
 3/5=4,6=6,7=111,11=2,25=1,30=1,71=1,74=-5,75=-4/1,2,3;
 4/5=5,16=3,69=1/1;
 5/5=2,38=5/2;
 7//1,2,3,16;
 1/18=20,19=15,26=3/3(-5);
 2/9=110/2;
 6/7=2,8=2,9=2,10=2,19=2,28=1/1;
 99/9=1/99;
 ---------------
 7-memb-dir-2cis
 ---------------
 Symbolic Z-matrix:
 Charge =  0 Multiplicity = 1
 C                    -1.51246  -2.74545   0.27224 
 C                    -1.37897  -1.4386   -0.22004 
 C                    -2.48838  -0.6233   -0.54971 
 C                    -3.79941  -0.99839  -0.24807 
 C                    -2.87845  -3.20419   0.411 
 C                    -3.95395  -2.36548   0.18325 
 C                    -2.05037   0.66339  -0.81788 
 C                    -2.86859   1.73903  -0.48316 
 C                    -4.26387   1.40346  -0.32754 
 C                    -4.71795   0.0941   -0.23761 
 C                    -0.54068   0.68035  -0.81113 
 C                     0.00506   1.87139  -0.12214 
 C                    -0.84945   2.95577   0.24049 
 C                    -2.23294   2.94407  -0.05712 
 C                    -0.29383  -3.36577   0.60007 
 C                     0.93574  -2.68337   0.47189 
 C                     1.00531  -1.29153   0.07619 
 C                    -0.20143  -0.70519  -0.26145 
 C                    -0.19669   3.99589   1.00178 
 C                     1.46945   1.97324  -0.05966 
 C                     2.01883   3.00698   0.85361 
 C                     1.16076   3.98824   1.30899 
 C                     2.17687  -3.37449   0.67674 
 C                     3.36138  -2.78011   0.39026 
 C                     3.449    -1.41113  -0.0495 
 C                     2.27162  -0.60007  -0.08445 
 C                     2.41879   0.79751  -0.37253 
 C                     3.66364   1.24051  -0.82746 
 C                     4.69088  -0.88945  -0.45419 
 C                     4.78689   0.41206  -0.89749 
 H                     5.72861   0.80838  -1.25879 
 H                     3.78083   2.28475  -1.09628 
 H                    -0.04397   0.70059  -1.80048 
 H                     5.56276  -1.53443  -0.43607 
 H                     4.28774  -3.33738   0.48059 
 H                     2.14847  -4.40668   1.00977 
 H                    -0.27346  -4.39355   0.94966 
 H                    -3.06357  -4.21643   0.75424 
 H                    -4.95302  -2.74422   0.37795 
 H                    -5.77416  -0.08156  -0.05726 
 H                    -4.97495   2.20948  -0.17537 
 H                    -2.83542   3.78226   0.27475 
 H                    -0.81472   4.79824   1.39041 
 H                     1.55477   4.78401   1.93262 
 H                     3.08194   3.03525   1.0378 
 H                     1.46726   2.57441  -1.01594 
 

 GradGradGradGradGradGradGradGradGradGradGradGradGradGradGradGradGradGrad
 Berny optimization.
 Initialization pass.
                           ----------------------------
                           !    Initial Parameters    !
                           ! (Angstroms and Degrees)  !
 --------------------------                            --------------------------
 ! Name  Definition              Value          Derivative Info.                !
 --------------------------------------------------------------------------------
 ! R1    R(1,2)                  1.4029         estimate D2E/DX2                !
 ! R2    R(1,5)                  1.4476         estimate D2E/DX2                !
 ! R3    R(1,15)                 1.4062         estimate D2E/DX2                !
 ! R4    R(2,3)                  1.4157         estimate D2E/DX2                !
 ! R5    R(2,18)                 1.3879         estimate D2E/DX2                !
 ! R6    R(3,4)                  1.3966         estimate D2E/DX2                !
 ! R7    R(3,7)                  1.3854         estimate D2E/DX2                !
 ! R8    R(4,6)                  1.4418         estimate D2E/DX2                !
 ! R9    R(4,10)                 1.4274         estimate D2E/DX2                !
 ! R10   R(5,6)                  1.3827         estimate D2E/DX2                !
 ! R11   R(5,38)                 1.0848         estimate D2E/DX2                !
 ! R12   R(6,39)                 1.086          estimate D2E/DX2                !
 ! R13   R(7,8)                  1.3923         estimate D2E/DX2                !
 ! R14   R(7,11)                 1.5098         estimate D2E/DX2                !
 ! R15   R(8,9)                  1.4435         estimate D2E/DX2                !
 ! R16   R(8,14)                 1.4275         estimate D2E/DX2                !
 ! R17   R(9,10)                 1.3888         estimate D2E/DX2                !
 ! R18   R(9,41)                 1.0856         estimate D2E/DX2                !
 ! R19   R(10,40)                1.0858         estimate D2E/DX2                !
 ! R20   R(11,12)                1.4802         estimate D2E/DX2                !
 ! R21   R(11,18)                1.5287         estimate D2E/DX2                !
 ! R22   R(11,33)                1.1072         estimate D2E/DX2                !
 ! R23   R(12,13)                1.4274         estimate D2E/DX2                !
 ! R24   R(12,20)                1.4693         estimate D2E/DX2                !
 ! R25   R(13,14)                1.4152         estimate D2E/DX2                !
 ! R26   R(13,19)                1.4448         estimate D2E/DX2                !
 ! R27   R(14,42)                1.0843         estimate D2E/DX2                !
 ! R28   R(15,16)                1.4121         estimate D2E/DX2                !
 ! R29   R(15,37)                1.0858         estimate D2E/DX2                !
 ! R30   R(16,17)                1.4487         estimate D2E/DX2                !
 ! R31   R(16,23)                1.4353         estimate D2E/DX2                !
 ! R32   R(17,18)                1.3835         estimate D2E/DX2                !
 ! R33   R(17,26)                1.4517         estimate D2E/DX2                !
 ! R34   R(19,22)                1.3918         estimate D2E/DX2                !
 ! R35   R(19,43)                1.0848         estimate D2E/DX2                !
 ! R36   R(20,21)                1.4847         estimate D2E/DX2                !
 ! R37   R(20,27)                1.5432         estimate D2E/DX2                !
 ! R38   R(20,46)                1.1295         estimate D2E/DX2                !
 ! R39   R(21,22)                1.3808         estimate D2E/DX2                !
 ! R40   R(21,45)                1.0793         estimate D2E/DX2                !
 ! R41   R(22,44)                1.0851         estimate D2E/DX2                !
 ! R42   R(23,24)                1.3559         estimate D2E/DX2                !
 ! R43   R(23,36)                1.085          estimate D2E/DX2                !
 ! R44   R(24,25)                1.4405         estimate D2E/DX2                !
 ! R45   R(24,35)                1.0848         estimate D2E/DX2                !
 ! R46   R(25,26)                1.4301         estimate D2E/DX2                !
 ! R47   R(25,29)                1.4065         estimate D2E/DX2                !
 ! R48   R(26,27)                1.4345         estimate D2E/DX2                !
 ! R49   R(27,28)                1.3975         estimate D2E/DX2                !
 ! R50   R(28,30)                1.3975         estimate D2E/DX2                !
 ! R51   R(28,32)                1.0846         estimate D2E/DX2                !
 ! R52   R(29,30)                1.3783         estimate D2E/DX2                !
 ! R53   R(29,34)                1.0847         estimate D2E/DX2                !
 ! R54   R(30,31)                1.0837         estimate D2E/DX2                !
 ! A1    A(2,1,5)              114.748          estimate D2E/DX2                !
 ! A2    A(2,1,15)             114.2231         estimate D2E/DX2                !
 ! A3    A(5,1,15)             130.9665         estimate D2E/DX2                !
 ! A4    A(1,2,3)              122.9314         estimate D2E/DX2                !
 ! A5    A(1,2,18)             125.696          estimate D2E/DX2                !
 ! A6    A(3,2,18)             110.7079         estimate D2E/DX2                !
 ! A7    A(2,3,4)              122.0506         estimate D2E/DX2                !
 ! A8    A(2,3,7)              109.4016         estimate D2E/DX2                !
 ! A9    A(4,3,7)              126.0178         estimate D2E/DX2                !
 ! A10   A(3,4,6)              114.8273         estimate D2E/DX2                !
 ! A11   A(3,4,10)             113.5854         estimate D2E/DX2                !
 ! A12   A(6,4,10)             130.8854         estimate D2E/DX2                !
 ! A13   A(1,5,6)              121.7313         estimate D2E/DX2                !
 ! A14   A(1,5,38)             119.1478         estimate D2E/DX2                !
 ! A15   A(6,5,38)             119.0374         estimate D2E/DX2                !
 ! A16   A(4,6,5)              122.7529         estimate D2E/DX2                !
 ! A17   A(4,6,39)             118.8743         estimate D2E/DX2                !
 ! A18   A(5,6,39)             118.3237         estimate D2E/DX2                !
 ! A19   A(3,7,8)              119.024          estimate D2E/DX2                !
 ! A20   A(3,7,11)             109.0081         estimate D2E/DX2                !
 ! A21   A(8,7,11)             125.3013         estimate D2E/DX2                !
 ! A22   A(7,8,9)              114.4798         estimate D2E/DX2                !
 ! A23   A(7,8,14)             117.5317         estimate D2E/DX2                !
 ! A24   A(9,8,14)             126.4768         estimate D2E/DX2                !
 ! A25   A(8,9,10)             122.8337         estimate D2E/DX2                !
 ! A26   A(8,9,41)             118.4027         estimate D2E/DX2                !
 ! A27   A(10,9,41)            118.4754         estimate D2E/DX2                !
 ! A28   A(4,10,9)             120.7131         estimate D2E/DX2                !
 ! A29   A(4,10,40)            120.2236         estimate D2E/DX2                !
 ! A30   A(9,10,40)            118.773          estimate D2E/DX2                !
 ! A31   A(7,11,12)            112.3198         estimate D2E/DX2                !
 ! A32   A(7,11,18)            102.3175         estimate D2E/DX2                !
 ! A33   A(7,11,33)            116.4092         estimate D2E/DX2                !
 ! A34   A(12,11,18)           118.6914         estimate D2E/DX2                !
 ! A35   A(12,11,33)           103.6392         estimate D2E/DX2                !
 ! A36   A(18,11,33)           103.7863         estimate D2E/DX2                !
 ! A37   A(11,12,13)           120.5832         estimate D2E/DX2                !
 ! A38   A(11,12,20)           116.2975         estimate D2E/DX2                !
 ! A39   A(13,12,20)           122.2212         estimate D2E/DX2                !
 ! A40   A(12,13,14)           121.7038         estimate D2E/DX2                !
 ! A41   A(12,13,19)           114.2225         estimate D2E/DX2                !
 ! A42   A(14,13,19)           123.9471         estimate D2E/DX2                !
 ! A43   A(8,14,13)            120.3355         estimate D2E/DX2                !
 ! A44   A(8,14,42)            119.7686         estimate D2E/DX2                !
 ! A45   A(13,14,42)           118.1933         estimate D2E/DX2                !
 ! A46   A(1,15,16)            121.3502         estimate D2E/DX2                !
 ! A47   A(1,15,37)            120.5896         estimate D2E/DX2                !
 ! A48   A(16,15,37)           118.0562         estimate D2E/DX2                !
 ! A49   A(15,16,17)           122.068          estimate D2E/DX2                !
 ! A50   A(15,16,23)           120.4848         estimate D2E/DX2                !
 ! A51   A(17,16,23)           117.3929         estimate D2E/DX2                !
 ! A52   A(16,17,18)           115.5917         estimate D2E/DX2                !
 ! A53   A(16,17,26)           121.988          estimate D2E/DX2                !
 ! A54   A(18,17,26)           122.1397         estimate D2E/DX2                !
 ! A55   A(2,18,11)            107.5416         estimate D2E/DX2                !
 ! A56   A(2,18,17)            120.585          estimate D2E/DX2                !
 ! A57   A(11,18,17)           131.716          estimate D2E/DX2                !
 ! A58   A(13,19,22)           123.5724         estimate D2E/DX2                !
 ! A59   A(13,19,43)           117.6348         estimate D2E/DX2                !
 ! A60   A(22,19,43)           118.7279         estimate D2E/DX2                !
 ! A61   A(12,20,21)           116.3089         estimate D2E/DX2                !
 ! A62   A(12,20,27)           123.4838         estimate D2E/DX2                !
 ! A63   A(12,20,46)            89.9402         estimate D2E/DX2                !
 ! A64   A(21,20,27)           115.3109         estimate D2E/DX2                !
 ! A65   A(21,20,46)            98.6798         estimate D2E/DX2                !
 ! A66   A(27,20,46)           103.5935         estimate D2E/DX2                !
 ! A67   A(20,21,22)           117.8857         estimate D2E/DX2                !
 ! A68   A(20,21,45)           119.1877         estimate D2E/DX2                !
 ! A69   A(22,21,45)           122.4934         estimate D2E/DX2                !
 ! A70   A(19,22,21)           122.4939         estimate D2E/DX2                !
 ! A71   A(19,22,44)           118.4887         estimate D2E/DX2                !
 ! A72   A(21,22,44)           119.0172         estimate D2E/DX2                !
 ! A73   A(16,23,24)           120.9438         estimate D2E/DX2                !
 ! A74   A(16,23,36)           118.6385         estimate D2E/DX2                !
 ! A75   A(24,23,36)           120.3159         estimate D2E/DX2                !
 ! A76   A(23,24,25)           122.2913         estimate D2E/DX2                !
 ! A77   A(23,24,35)           120.2129         estimate D2E/DX2                !
 ! A78   A(25,24,35)           117.494          estimate D2E/DX2                !
 ! A79   A(24,25,26)           119.7581         estimate D2E/DX2                !
 ! A80   A(24,25,29)           119.6055         estimate D2E/DX2                !
 ! A81   A(26,25,29)           120.6329         estimate D2E/DX2                !
 ! A82   A(17,26,25)           116.4423         estimate D2E/DX2                !
 ! A83   A(17,26,27)           125.1521         estimate D2E/DX2                !
 ! A84   A(25,26,27)           118.227          estimate D2E/DX2                !
 ! A85   A(20,27,26)           129.6745         estimate D2E/DX2                !
 ! A86   A(20,27,28)           111.8685         estimate D2E/DX2                !
 ! A87   A(26,27,28)           117.7495         estimate D2E/DX2                !
 ! A88   A(27,28,30)           122.9824         estimate D2E/DX2                !
 ! A89   A(27,28,32)           118.8249         estimate D2E/DX2                !
 ! A90   A(30,28,32)           118.1306         estimate D2E/DX2                !
 ! A91   A(25,29,30)           120.2848         estimate D2E/DX2                !
 ! A92   A(25,29,34)           118.9723         estimate D2E/DX2                !
 ! A93   A(30,29,34)           120.7236         estimate D2E/DX2                !
 ! A94   A(28,30,29)           119.1897         estimate D2E/DX2                !
 ! A95   A(28,30,31)           119.8917         estimate D2E/DX2                !
 ! A96   A(29,30,31)           120.8698         estimate D2E/DX2                !
 ! D1    D(5,1,2,3)              0.3702         estimate D2E/DX2                !
 ! D2    D(5,1,2,18)           170.1443         estimate D2E/DX2                !
 ! D3    D(15,1,2,3)          -177.0775         estimate D2E/DX2                !
 ! D4    D(15,1,2,18)           -7.3033         estimate D2E/DX2                !
 ! D5    D(2,1,5,6)             -5.3879         estimate D2E/DX2                !
 ! D6    D(2,1,5,38)           177.9675         estimate D2E/DX2                !
 ! D7    D(15,1,5,6)           171.5291         estimate D2E/DX2                !
 ! D8    D(15,1,5,38)           -5.1156         estimate D2E/DX2                !
 ! D9    D(2,1,15,16)            1.9323         estimate D2E/DX2                !
 ! D10   D(2,1,15,37)         -177.3289         estimate D2E/DX2                !
 ! D11   D(5,1,15,16)         -174.9975         estimate D2E/DX2                !
 ! D12   D(5,1,15,37)            5.7413         estimate D2E/DX2                !
 ! D13   D(1,2,3,4)              8.3767         estimate D2E/DX2                !
 ! D14   D(1,2,3,7)            171.3281         estimate D2E/DX2                !
 ! D15   D(18,2,3,4)          -162.7568         estimate D2E/DX2                !
 ! D16   D(18,2,3,7)             0.1946         estimate D2E/DX2                !
 ! D17   D(1,2,18,11)         -177.3254         estimate D2E/DX2                !
 ! D18   D(1,2,18,17)            6.7233         estimate D2E/DX2                !
 ! D19   D(3,2,18,11)           -6.4913         estimate D2E/DX2                !
 ! D20   D(3,2,18,17)          177.5574         estimate D2E/DX2                !
 ! D21   D(2,3,4,6)            -11.2212         estimate D2E/DX2                !
 ! D22   D(2,3,4,10)           160.2432         estimate D2E/DX2                !
 ! D23   D(7,3,4,6)           -171.229          estimate D2E/DX2                !
 ! D24   D(7,3,4,10)             0.2354         estimate D2E/DX2                !
 ! D25   D(2,3,7,8)           -146.5676         estimate D2E/DX2                !
 ! D26   D(2,3,7,11)             6.3215         estimate D2E/DX2                !
 ! D27   D(4,3,7,8)             15.5402         estimate D2E/DX2                !
 ! D28   D(4,3,7,11)           168.4293         estimate D2E/DX2                !
 ! D29   D(3,4,6,5)              6.1943         estimate D2E/DX2                !
 ! D30   D(3,4,6,39)          -176.3979         estimate D2E/DX2                !
 ! D31   D(10,4,6,5)          -163.4404         estimate D2E/DX2                !
 ! D32   D(10,4,6,39)           13.9673         estimate D2E/DX2                !
 ! D33   D(3,4,10,9)            -8.8727         estimate D2E/DX2                !
 ! D34   D(3,4,10,40)          177.3909         estimate D2E/DX2                !
 ! D35   D(6,4,10,9)           160.8637         estimate D2E/DX2                !
 ! D36   D(6,4,10,40)          -12.8728         estimate D2E/DX2                !
 ! D37   D(1,5,6,4)              2.1038         estimate D2E/DX2                !
 ! D38   D(1,5,6,39)          -175.3175         estimate D2E/DX2                !
 ! D39   D(38,5,6,4)           178.7521         estimate D2E/DX2                !
 ! D40   D(38,5,6,39)            1.3307         estimate D2E/DX2                !
 ! D41   D(3,7,8,9)            -20.9061         estimate D2E/DX2                !
 ! D42   D(3,7,8,14)           145.9926         estimate D2E/DX2                !
 ! D43   D(11,7,8,9)          -169.0397         estimate D2E/DX2                !
 ! D44   D(11,7,8,14)           -2.1409         estimate D2E/DX2                !
 ! D45   D(3,7,11,12)         -138.0084         estimate D2E/DX2                !
 ! D46   D(3,7,11,18)           -9.6306         estimate D2E/DX2                !
 ! D47   D(3,7,11,33)          102.751          estimate D2E/DX2                !
 ! D48   D(8,7,11,12)           12.765          estimate D2E/DX2                !
 ! D49   D(8,7,11,18)          141.1428         estimate D2E/DX2                !
 ! D50   D(8,7,11,33)         -106.4756         estimate D2E/DX2                !
 ! D51   D(7,8,9,10)            12.9258         estimate D2E/DX2                !
 ! D52   D(7,8,9,41)          -173.3405         estimate D2E/DX2                !
 ! D53   D(14,8,9,10)         -152.5982         estimate D2E/DX2                !
 ! D54   D(14,8,9,41)           21.1354         estimate D2E/DX2                !
 ! D55   D(7,8,14,13)          -11.0988         estimate D2E/DX2                !
 ! D56   D(7,8,14,42)         -175.9666         estimate D2E/DX2                !
 ! D57   D(9,8,14,13)          154.0353         estimate D2E/DX2                !
 ! D58   D(9,8,14,42)          -10.8324         estimate D2E/DX2                !
 ! D59   D(8,9,10,4)             2.2745         estimate D2E/DX2                !
 ! D60   D(8,9,10,40)          176.1004         estimate D2E/DX2                !
 ! D61   D(41,9,10,4)         -171.4548         estimate D2E/DX2                !
 ! D62   D(41,9,10,40)           2.3711         estimate D2E/DX2                !
 ! D63   D(7,11,12,13)         -10.8526         estimate D2E/DX2                !
 ! D64   D(7,11,12,20)         179.7572         estimate D2E/DX2                !
 ! D65   D(18,11,12,13)       -130.0331         estimate D2E/DX2                !
 ! D66   D(18,11,12,20)         60.5766         estimate D2E/DX2                !
 ! D67   D(33,11,12,13)        115.6151         estimate D2E/DX2                !
 ! D68   D(33,11,12,20)        -53.7751         estimate D2E/DX2                !
 ! D69   D(7,11,18,2)            9.6083         estimate D2E/DX2                !
 ! D70   D(7,11,18,17)        -175.0623         estimate D2E/DX2                !
 ! D71   D(12,11,18,2)         133.8466         estimate D2E/DX2                !
 ! D72   D(12,11,18,17)        -50.824          estimate D2E/DX2                !
 ! D73   D(33,11,18,2)        -111.8811         estimate D2E/DX2                !
 ! D74   D(33,11,18,17)         63.4483         estimate D2E/DX2                !
 ! D75   D(11,12,13,14)         -0.8818         estimate D2E/DX2                !
 ! D76   D(11,12,13,19)        175.1804         estimate D2E/DX2                !
 ! D77   D(20,12,13,14)        167.867          estimate D2E/DX2                !
 ! D78   D(20,12,13,19)        -16.0708         estimate D2E/DX2                !
 ! D79   D(11,12,20,21)       -168.1693         estimate D2E/DX2                !
 ! D80   D(11,12,20,27)        -14.1575         estimate D2E/DX2                !
 ! D81   D(11,12,20,46)         92.1689         estimate D2E/DX2                !
 ! D82   D(13,12,20,21)         22.6295         estimate D2E/DX2                !
 ! D83   D(13,12,20,27)        176.6413         estimate D2E/DX2                !
 ! D84   D(13,12,20,46)        -77.0324         estimate D2E/DX2                !
 ! D85   D(12,13,14,8)          12.8256         estimate D2E/DX2                !
 ! D86   D(12,13,14,42)        177.9274         estimate D2E/DX2                !
 ! D87   D(19,13,14,8)        -162.8447         estimate D2E/DX2                !
 ! D88   D(19,13,14,42)          2.257          estimate D2E/DX2                !
 ! D89   D(12,13,19,22)          2.926          estimate D2E/DX2                !
 ! D90   D(12,13,19,43)       -174.1025         estimate D2E/DX2                !
 ! D91   D(14,13,19,22)        178.8873         estimate D2E/DX2                !
 ! D92   D(14,13,19,43)          1.8588         estimate D2E/DX2                !
 ! D93   D(1,15,16,17)           3.7893         estimate D2E/DX2                !
 ! D94   D(1,15,16,23)        -173.4591         estimate D2E/DX2                !
 ! D95   D(37,15,16,17)       -176.9313         estimate D2E/DX2                !
 ! D96   D(37,15,16,23)          5.8202         estimate D2E/DX2                !
 ! D97   D(15,16,17,18)         -4.5399         estimate D2E/DX2                !
 ! D98   D(15,16,17,26)       -178.5762         estimate D2E/DX2                !
 ! D99   D(23,16,17,18)        172.7895         estimate D2E/DX2                !
 ! D100  D(23,16,17,26)         -1.2467         estimate D2E/DX2                !
 ! D101  D(15,16,23,24)        171.436          estimate D2E/DX2                !
 ! D102  D(15,16,23,36)         -4.9083         estimate D2E/DX2                !
 ! D103  D(17,16,23,24)         -5.938          estimate D2E/DX2                !
 ! D104  D(17,16,23,36)        177.7177         estimate D2E/DX2                !
 ! D105  D(16,17,18,2)          -0.4248         estimate D2E/DX2                !
 ! D106  D(16,17,18,11)       -175.2504         estimate D2E/DX2                !
 ! D107  D(26,17,18,2)         173.6015         estimate D2E/DX2                !
 ! D108  D(26,17,18,11)         -1.2241         estimate D2E/DX2                !
 ! D109  D(16,17,26,25)          9.9921         estimate D2E/DX2                !
 ! D110  D(16,17,26,27)       -174.9705         estimate D2E/DX2                !
 ! D111  D(18,17,26,25)       -163.6543         estimate D2E/DX2                !
 ! D112  D(18,17,26,27)         11.3832         estimate D2E/DX2                !
 ! D113  D(13,19,22,21)          3.1474         estimate D2E/DX2                !
 ! D114  D(13,19,22,44)       -176.676          estimate D2E/DX2                !
 ! D115  D(43,19,22,21)       -179.8546         estimate D2E/DX2                !
 ! D116  D(43,19,22,44)          0.3219         estimate D2E/DX2                !
 ! D117  D(12,20,21,22)        -15.5337         estimate D2E/DX2                !
 ! D118  D(12,20,21,45)        171.8289         estimate D2E/DX2                !
 ! D119  D(27,20,21,22)       -171.6879         estimate D2E/DX2                !
 ! D120  D(27,20,21,45)         15.6747         estimate D2E/DX2                !
 ! D121  D(46,20,21,22)         78.7273         estimate D2E/DX2                !
 ! D122  D(46,20,21,45)        -93.91           estimate D2E/DX2                !
 ! D123  D(12,20,27,26)        -36.8841         estimate D2E/DX2                !
 ! D124  D(12,20,27,28)        153.1349         estimate D2E/DX2                !
 ! D125  D(21,20,27,26)        117.3617         estimate D2E/DX2                !
 ! D126  D(21,20,27,28)        -52.6193         estimate D2E/DX2                !
 ! D127  D(46,20,27,26)       -136.0133         estimate D2E/DX2                !
 ! D128  D(46,20,27,28)         54.0057         estimate D2E/DX2                !
 ! D129  D(20,21,22,19)          3.5427         estimate D2E/DX2                !
 ! D130  D(20,21,22,44)       -176.6347         estimate D2E/DX2                !
 ! D131  D(45,21,22,19)        175.9204         estimate D2E/DX2                !
 ! D132  D(45,21,22,44)         -4.257          estimate D2E/DX2                !
 ! D133  D(16,23,24,25)          3.984          estimate D2E/DX2                !
 ! D134  D(16,23,24,35)       -175.5222         estimate D2E/DX2                !
 ! D135  D(36,23,24,25)       -179.7328         estimate D2E/DX2                !
 ! D136  D(36,23,24,35)          0.761          estimate D2E/DX2                !
 ! D137  D(23,24,25,26)          5.4095         estimate D2E/DX2                !
 ! D138  D(23,24,25,29)       -173.9142         estimate D2E/DX2                !
 ! D139  D(35,24,25,26)       -175.0714         estimate D2E/DX2                !
 ! D140  D(35,24,25,29)          5.6048         estimate D2E/DX2                !
 ! D141  D(24,25,26,17)        -11.9375         estimate D2E/DX2                !
 ! D142  D(24,25,26,27)        172.6669         estimate D2E/DX2                !
 ! D143  D(29,25,26,17)        167.3792         estimate D2E/DX2                !
 ! D144  D(29,25,26,27)         -8.0164         estimate D2E/DX2                !
 ! D145  D(24,25,29,30)        178.9726         estimate D2E/DX2                !
 ! D146  D(24,25,29,34)          0.5616         estimate D2E/DX2                !
 ! D147  D(26,25,29,30)         -0.3452         estimate D2E/DX2                !
 ! D148  D(26,25,29,34)       -178.7561         estimate D2E/DX2                !
 ! D149  D(17,26,27,20)         26.3908         estimate D2E/DX2                !
 ! D150  D(17,26,27,28)       -164.1209         estimate D2E/DX2                !
 ! D151  D(25,26,27,20)       -158.6525         estimate D2E/DX2                !
 ! D152  D(25,26,27,28)         10.8358         estimate D2E/DX2                !
 ! D153  D(20,27,28,30)        165.4501         estimate D2E/DX2                !
 ! D154  D(20,27,28,32)        -11.6283         estimate D2E/DX2                !
 ! D155  D(26,27,28,30)         -5.8473         estimate D2E/DX2                !
 ! D156  D(26,27,28,32)        177.0743         estimate D2E/DX2                !
 ! D157  D(27,28,30,29)         -2.5303         estimate D2E/DX2                !
 ! D158  D(27,28,30,31)        179.9888         estimate D2E/DX2                !
 ! D159  D(32,28,30,29)        174.5673         estimate D2E/DX2                !
 ! D160  D(32,28,30,31)         -2.9137         estimate D2E/DX2                !
 ! D161  D(25,29,30,28)          5.6689         estimate D2E/DX2                !
 ! D162  D(25,29,30,31)       -176.8755         estimate D2E/DX2                !
 ! D163  D(34,29,30,28)       -175.9483         estimate D2E/DX2                !
 ! D164  D(34,29,30,31)          1.5073         estimate D2E/DX2                !
 --------------------------------------------------------------------------------
 Trust Radius=3.00D-01 FncErr=1.00D-07 GrdErr=1.00D-06 EigMax=2.50D+02 EigMin=1.00D-04
 Number of steps in this run=    276 maximum allowed number of steps=    276.
 GradGradGradGradGradGradGradGradGradGradGradGradGradGradGradGradGradGrad

                          Input orientation:                          
 ---------------------------------------------------------------------
 Center     Atomic      Atomic             Coordinates (Angstroms)
 Number     Number       Type             X           Y           Z
 ---------------------------------------------------------------------
      1          6           0       -1.512460   -2.745453    0.272236
      2          6           0       -1.378967   -1.438601   -0.220035
      3          6           0       -2.488381   -0.623295   -0.549709
      4          6           0       -3.799405   -0.998386   -0.248072
      5          6           0       -2.878452   -3.204188    0.410998
      6          6           0       -3.953947   -2.365478    0.183250
      7          6           0       -2.050373    0.663394   -0.817880
      8          6           0       -2.868589    1.739025   -0.483156
      9          6           0       -4.263869    1.403461   -0.327536
     10          6           0       -4.717947    0.094104   -0.237606
     11          6           0       -0.540679    0.680351   -0.811125
     12          6           0        0.005060    1.871392   -0.122140
     13          6           0       -0.849450    2.955767    0.240485
     14          6           0       -2.232938    2.944072   -0.057117
     15          6           0       -0.293825   -3.365772    0.600074
     16          6           0        0.935740   -2.683367    0.471885
     17          6           0        1.005315   -1.291527    0.076191
     18          6           0       -0.201434   -0.705191   -0.261450
     19          6           0       -0.196690    3.995890    1.001782
     20          6           0        1.469448    1.973239   -0.059656
     21          6           0        2.018828    3.006975    0.853607
     22          6           0        1.160760    3.988242    1.308993
     23          6           0        2.176872   -3.374486    0.676740
     24          6           0        3.361381   -2.780113    0.390257
     25          6           0        3.448998   -1.411132   -0.049500
     26          6           0        2.271619   -0.600069   -0.084449
     27          6           0        2.418788    0.797507   -0.372533
     28          6           0        3.663643    1.240514   -0.827455
     29          6           0        4.690883   -0.889449   -0.454191
     30          6           0        4.786885    0.412055   -0.897489
     31          1           0        5.728614    0.808376   -1.258794
     32          1           0        3.780832    2.284746   -1.096281
     33          1           0       -0.043974    0.700586   -1.800476
     34          1           0        5.562756   -1.534425   -0.436073
     35          1           0        4.287736   -3.337379    0.480589
     36          1           0        2.148475   -4.406681    1.009768
     37          1           0       -0.273457   -4.393549    0.949658
     38          1           0       -3.063574   -4.216425    0.754236
     39          1           0       -4.953015   -2.744220    0.377946
     40          1           0       -5.774155   -0.081561   -0.057261
     41          1           0       -4.974950    2.209483   -0.175367
     42          1           0       -2.835419    3.782264    0.274752
     43          1           0       -0.814720    4.798239    1.390414
     44          1           0        1.554772    4.784007    1.932623
     45          1           0        3.081935    3.035254    1.037801
     46          1           0        1.467258    2.574405   -1.015938
 ---------------------------------------------------------------------
                    Distance matrix (angstroms):
                    1          2          3          4          5
     1  C    0.000000
     2  C    1.402859   0.000000
     3  C    2.476201   1.415701   0.000000
     4  C    2.924565   2.460304   1.396589   0.000000
     5  C    1.447628   2.400824   2.781389   2.479534   0.000000
     6  C    2.472480   2.766272   2.391718   1.441826   1.382748
     7  C    3.619108   2.286173   1.385401   2.478973   4.141744
     8  C    4.745550   3.519306   2.393646   2.900880   5.023441
     9  C    5.014326   4.051115   2.703601   2.447634   4.867776
    10  C    4.312560   3.674001   2.362845   1.427362   3.831861
    11  C    3.722118   2.354161   2.358257   3.708704   4.695573
    12  C    4.875824   3.589034   3.552960   4.767121   5.861774
    13  C    5.739730   4.450049   4.014995   4.957444   6.487755
    14  C    5.744411   4.468068   3.610264   4.246558   6.199752
    15  C    1.406181   2.358834   3.695843   4.314274   2.596566
    16  C    2.457112   2.717731   4.124579   5.077312   3.850068
    17  C    2.914022   2.407111   3.611675   4.824563   4.342121
    18  C    2.483199   1.387872   2.306497   3.609922   3.723385
    19  C    6.907184   5.694235   5.384779   6.283668   7.705971
    20  C    5.591778   4.447453   4.758839   6.052014   6.777278
    21  C    6.774837   5.697444   5.955089   7.149017   7.921982
    22  C    7.318717   6.183750   6.167437   7.203759   8.297751
    23  C    3.764369   4.146788   5.553181   6.497462   5.065167
    24  C    4.875393   4.964173   6.305166   7.406677   6.254261
    25  C    5.147814   4.831054   6.010272   7.262860   6.592703
    26  C    4.364533   3.748106   4.782740   6.086276   5.792248
    27  C    5.331323   4.409805   5.111788   6.473534   6.684926
    28  C    6.624900   5.742346   6.434153   7.813158   8.005507
    29  C    6.515667   6.099137   7.184831   8.493488   7.962500
    30  C    7.142819   6.473145   7.356793   8.725564   8.575940
    31  H    8.210171   7.526329   8.370872   9.750338   9.642119
    32  H    7.429312   6.422978   6.932422   8.304120   8.760499
    33  H    4.281095   2.975924   3.048312   4.404512   5.307744
    34  H    7.212972   6.945745   8.103325   9.379378   8.646365
    35  H    5.834043   6.017288   7.371806   8.450070   7.167763
    36  H    4.087307   4.771243   6.184368   6.969642   5.203317
    37  H    2.170311   3.364826   4.622640   5.039246   2.913886
    38  H    2.191355   3.391668   3.865450   3.449905   1.084761
    39  H    3.442179   3.851758   3.381314   2.184182   2.125200
    40  H    5.036560   4.602796   3.366347   2.185547   4.284292
    41  H    6.061401   5.122656   3.787847   3.417253   5.834977
    42  H    6.660429   5.442747   4.495456   4.904817   6.987913
    43  H    7.657967   6.466073   5.996520   6.722637   8.322084
    44  H    8.298046   7.208440   7.193606   8.176718   9.261753
    45  H    7.423687   6.441830   6.850809   8.079391   8.651574
    46  H    6.232094   4.983841   5.107811   6.410319   7.369768
                    6          7          8          9         10
     6  C    0.000000
     7  C    3.714824   0.000000
     8  C    4.297563   1.392300   0.000000
     9  C    3.816000   2.384890   1.443477   0.000000
    10  C    2.609667   2.788684   2.487204   1.388773   0.000000
    11  C    4.681480   1.509804   2.578278   3.823466   4.257015
    12  C    5.806726   2.483570   2.899261   4.299407   5.047661
    13  C    6.160911   2.795948   2.465976   3.793489   4.835593
    14  C    5.586678   2.411137   1.427480   2.563453   3.785520
    15  C    3.817175   4.618467   5.819085   6.274336   5.678495
    16  C    4.908503   4.667031   5.911224   6.661619   6.338919
    17  C    5.075344   3.736082   4.950176   5.932138   5.896963
    18  C    4.127428   2.366689   3.624508   4.577571   4.586756
    19  C    7.433302   4.225262   3.799674   5.002971   6.099326
    20  C    6.949581   3.831415   4.364948   5.767784   6.468900
    21  C    8.061431   4.984440   5.223167   6.590799   7.420222
    22  C    8.233911   5.088180   4.950397   6.227834   7.219105
    23  C    6.232862   6.033901   7.276677   8.082109   7.772109
    24  C    7.329993   6.527206   7.745837   8.727082   8.598307
    25  C    7.467834   5.927660   7.072726   8.215081   8.306630
    26  C    6.476573   4.562223   5.661454   6.840017   7.025622
    27  C    7.136184   4.493297   5.371690   6.710224   7.172584
    28  C    8.488367   5.743095   6.560268   7.944930   8.480167
    29  C    8.793070   6.927346   8.003457   9.244515   9.462577
    30  C    9.234979   6.842339   7.780669   9.122712   9.533015
    31  H   10.291007   7.792821   8.682144  10.053412  10.520630
    32  H    9.115294   6.058815   6.699891   8.129259   8.818474
    33  H    5.350122   2.234394   3.285139   4.524500   4.965522
    34  H    9.572975   7.933216   9.044627  10.256974  10.410780
    35  H    8.304116   7.606828   8.826759   9.811146   9.664016
    36  H    6.487619   6.832004   8.072760   8.755815   8.304261
    37  H    4.271588   5.643961   6.811470   7.152618   6.426672
    38  H    2.131852   5.225970   6.085766   5.847569   4.722432
    39  H    1.086043   4.633267   5.018547   4.263319   2.913802
    40  H    2.930406   3.872990   3.455175   2.135252   1.085798
    41  H    4.701204   3.369921   2.180097   1.085570   2.131843
    42  H    6.249337   3.396688   2.179530   2.839353   4.172403
    43  H    7.913964   4.847715   4.133695   5.135416   6.325703
    44  H    9.193554   6.127135   5.888466   7.098802   8.127244
    45  H    8.910769   5.950618   6.277122   7.647727   8.432982
    46  H    7.431686   4.008107   4.447616   5.889892   6.709281
                   11         12         13         14         15
    11  C    0.000000
    12  C    1.480240   0.000000
    13  C    2.525617   1.427429   0.000000
    14  C    2.925184   2.482641   1.415183   0.000000
    15  C    4.292264   5.295169   6.356090   6.633716   0.000000
    16  C    3.891083   4.686668   5.919483   6.479848   1.412069
    17  C    2.658144   3.323237   4.637527   5.333325   2.502940
    18  C    1.528711   2.588596   3.751597   4.181612   2.798116
    19  C    3.794438   2.411928   1.444827   2.524657   7.373254
    20  C    2.505369   1.469255   2.536283   3.827556   5.661220
    21  C    3.838696   2.509361   2.933523   4.348665   6.784139
    22  C    4.281581   2.804432   2.499732   3.804436   7.529934
    23  C    5.102992   5.733604   7.030010   7.740100   2.471902
    24  C    5.352028   5.758814   7.117152   8.016411   3.707769
    25  C    4.568577   4.758251   6.134375   7.159068   4.272153
    26  C    3.174359   3.353629   4.742428   5.731729   3.833952
    27  C    2.994083   2.653678   3.964247   5.132814   5.063312
    28  C    4.241506   3.778982   4.944755   6.185887   6.238370
    29  C    5.473656   5.448802   6.779642   7.924194   5.664889
    30  C    5.335014   5.059316   6.287585   7.509677   6.506019
    31  H    6.286560   5.931362   7.080258   8.330158   7.559674
    32  H    4.618534   3.921258   4.865873   6.138404   7.169993
    33  H    1.107222   2.046950   3.146451   3.586655   4.728671
    34  H    6.503677   6.525805   7.857222   8.998521   6.223100
    35  H    6.412821   6.770221   8.127239   9.070002   4.583207
    36  H    6.035321   6.729758   7.986551   8.623723   2.686293
    37  H    5.377381   6.362060   7.405885   7.661191   1.085794
    38  H    5.726584   6.873577   7.523737   7.254031   2.901532
    39  H    5.710542   6.792383   7.024813   6.320187   4.705711
    40  H    5.342106   6.100620   5.793680   4.657754   6.422784
    41  H    4.733412   4.991757   4.213030   2.841168   7.321046
    42  H    4.008344   3.446342   2.151359   1.084291   7.593415
    43  H    4.677486   3.395039   2.172152   2.746748   8.218701
    44  H    5.362747   3.886770   3.462091   4.657378   8.462381
    45  H    4.699726   3.488151   4.012209   5.427249   7.249862
    46  H    2.767887   1.852330   2.662925   3.840240   6.403016
                   16         17         18         19         20
    16  C    0.000000
    17  C    1.448666   0.000000
    18  C    2.396690   1.383486   0.000000
    19  C    6.795268   5.500756   4.867848   0.000000
    20  C    4.717135   3.300390   3.163314   2.827328   0.000000
    21  C    5.805065   4.484273   4.466888   2.430726   1.484748
    22  C    6.727685   5.424014   5.133242   1.391800   2.455346
    23  C    1.435277   2.464127   3.696170   7.749961   5.444345
    24  C    2.428942   2.804563   4.174167   7.677763   5.135775
    25  C    2.864767   2.449835   3.724101   6.605462   3.920802
    26  C    2.536575   1.451704   2.481607   5.328723   2.695553
    27  C    3.876720   2.561898   3.022582   4.354207   1.543206
    28  C    4.952432   3.780809   4.364052   5.083343   2.437395
    29  C    4.263433   3.745181   4.899578   7.062207   4.327619
    30  C    5.127196   4.260342   5.151321   6.425506   3.760937
    31  H    6.177310   5.338664   6.200891   7.097864   4.575514
    32  H    5.935978   4.676314   5.049268   4.811503   2.552278
    33  H    4.192207   2.931109   2.090360   4.328395   2.634492
    34  H    4.853219   4.592568   5.826149   8.113139   5.403755
    35  H    3.415214   3.888873   5.256585   8.611536   6.036330
    36  H    2.174823   3.447110   4.564986   8.723707   6.504470
    37  H    2.148289   3.467094   3.882777   8.389952   6.677756
    38  H    4.292377   5.056741   4.642438   8.701863   7.715092
    39  H    5.889819   6.140283   5.209989   8.272900   7.980849
    40  H    7.216099   6.887891   5.611223   6.989656   7.529409
    41  H    7.700336   6.934257   5.593674   5.235332   6.449765
    42  H    7.487649   6.366633   5.230931   2.745378   4.681483
    43  H    7.738361   6.490374   5.778626   1.084786   3.911617
    44  H    7.634044   6.376547   6.166807   2.134294   3.446284
    45  H    6.134251   4.894699   5.143879   3.416651   2.220901
    46  H    5.490018   4.043707   3.756266   2.976665   1.129549
                   21         22         23         24         25
    21  C    0.000000
    22  C    1.380776   0.000000
    23  C    6.385868   7.459356   0.000000
    24  C    5.958819   7.176172   1.355881   0.000000
    25  C    4.730820   6.019533   2.449589   1.440546   0.000000
    26  C    3.735588   4.922224   2.878502   2.483046   1.430128
    27  C    2.558346   3.819811   4.308715   3.777525   2.458408
    28  C    2.941389   4.287055   5.076546   4.211844   2.771735
    29  C    4.902278   6.273951   3.711424   2.460748   1.406487
    30  C    4.178766   5.550357   4.860891   3.725626   2.415168
    31  H    4.801936   6.129467   5.818720   4.604391   3.403712
    32  H    2.725497   3.943605   6.143549   5.295142   3.855565
    33  H    4.076609   4.682826   5.260700   5.339571   4.441410
    34  H    5.903136   7.274797   4.011033   2.660942   2.152351
    35  H    6.748179   8.008056   2.120283   1.084822   2.166773
    36  H    7.416434   8.458123   1.084961   2.121476   3.433180
    37  H    7.748003   8.511200   2.667787   4.015987   4.873377
    38  H    8.832791   9.244962   5.308215   6.593597   7.136474
    39  H    9.050364   9.141725   7.163924   8.314483   8.517843
    40  H    8.432041   8.156163   8.637184   9.536271   9.318496
    41  H    7.113910   6.558525   9.113471   9.731928   9.169929
    42  H    4.949733   4.132981   8.746641   9.026542   8.159068
    43  H    3.394964   2.136644   8.732261   8.710428   7.668698
    44  H    2.130133   1.085081   8.277998   7.928344   6.774707
    45  H    1.079316   2.161630   6.483384   5.857977   4.592092
    46  H    1.996633   2.738281   6.225594   5.851149   4.554756
                   26         27         28         29         30
    26  C    0.000000
    27  C    1.434528   0.000000
    28  C    2.424363   1.397452   0.000000
    29  C    2.464404   2.831061   2.394011   0.000000
    30  C    2.830546   2.456020   1.397470   1.378275   0.000000
    31  H    3.913262   3.426445   2.153347   2.146365   1.083727
    32  H    3.409353   2.142628   1.084629   3.363924   2.135095
    33  H    3.162028   2.848440   3.871010   5.172965   4.922990
    34  H    3.439221   3.914905   3.385276   1.084659   2.145615
    35  H    3.446282   4.617149   4.801830   2.651170   4.025730
    36  H    3.962672   5.391419   6.128779   4.580168   5.815415
    37  H    4.683725   5.995284   7.099405   6.236520   7.218923
    38  H    6.499670   7.514347   8.805418   8.524123   9.261789
    39  H    7.550267   8.212827   9.569634   9.855831  10.317677
    40  H    8.062510   8.245997   9.561020  10.503678  10.605904
    41  H    7.772684   7.529934   8.717190  10.154282   9.952167
    42  H    6.739118   6.077371   7.064925   8.888278   8.416173
    43  H    6.390809   5.437776   6.134500   8.127978   7.473359
    44  H    5.794025   4.685344   4.962027   6.907979   6.129441
    45  H    3.889940   2.726961   2.653047   4.496448   3.678774
    46  H    3.404696   2.115832   2.576606   4.765040   3.963548
                   31         32         33         34         35
    31  H    0.000000
    32  H    2.449476   0.000000
    33  H    5.798949   4.199356   0.000000
    34  H    2.488593   4.265817   6.188077   0.000000
    35  H    4.721109   5.861037   6.346033   2.390939   0.000000
    36  H    6.720163   7.202446   6.228040   4.690163   2.449464
    37  H    8.243915   8.076060   5.793627   6.645015   4.705316
    38  H   10.324896   9.619539   6.310431   9.111725   7.408736
    39  H   11.375283  10.185476   6.380509  10.616387   9.260338
    40  H   11.599542   9.898320   6.040325  11.435902  10.589206
    41  H   10.849110   8.804400   5.406688  11.186066  10.816437
    42  H    9.194478   6.920771   4.647093   9.965029  10.073283
    43  H    8.108793   5.798310   5.250389   9.171199   9.646301
    44  H    6.588759   4.513968   5.759023   7.848391   8.691053
    45  H    4.151896   2.367705   4.824707   5.404511   6.509600
    46  H    4.619198   2.333020   2.531900   5.830251   6.718920
                   36         37         38         39         40
    36  H    0.000000
    37  H    2.422713   0.000000
    38  H    5.221776   2.802555   0.000000
    39  H    7.320802   4.994537   2.424659   0.000000
    40  H    9.089185   7.061502   5.010277   2.820182   0.000000
    41  H    9.793945   8.183505   6.768295   4.984557   2.429313
    42  H    9.614482   8.594362   8.016295   6.862205   4.865752
    43  H    9.677601   9.218254   9.312692   8.662521   7.106631
    44  H    9.255965   9.409366  10.184571  10.071867   9.019233
    45  H    7.500302   8.151904   9.509708   9.919584   9.452197
    46  H    7.300897   7.446210   8.353282   8.452845   7.772469
                   41         42         43         44         45
    41  H    0.000000
    42  H    2.693295   0.000000
    43  H    5.144010   2.521930   0.000000
    44  H    7.328647   4.798521   2.430779   0.000000
    45  H    8.189449   6.012932   4.291430   2.488186   0.000000
    46  H    6.507056   4.651648   3.992918   3.685649   2.652811
                   46
    46  H    0.000000
 Stoichiometry    C30H16
 Framework group  C1[X(C30H16)]
 Deg. of freedom   132
 Full point group                 C1      NOp   1
 Largest Abelian subgroup         C1      NOp   1
 Largest concise Abelian subgroup C1      NOp   1
                         Standard orientation:                         
 ---------------------------------------------------------------------
 Center     Atomic      Atomic             Coordinates (Angstroms)
 Number     Number       Type             X           Y           Z
 ---------------------------------------------------------------------
      1          6           0       -1.512460   -2.745453    0.272236
      2          6           0       -1.378967   -1.438601   -0.220035
      3          6           0       -2.488381   -0.623295   -0.549709
      4          6           0       -3.799405   -0.998386   -0.248072
      5          6           0       -2.878452   -3.204188    0.410998
      6          6           0       -3.953947   -2.365478    0.183250
      7          6           0       -2.050373    0.663394   -0.817880
      8          6           0       -2.868589    1.739025   -0.483156
      9          6           0       -4.263869    1.403460   -0.327536
     10          6           0       -4.717947    0.094103   -0.237606
     11          6           0       -0.540679    0.680351   -0.811125
     12          6           0        0.005060    1.871392   -0.122140
     13          6           0       -0.849450    2.955767    0.240485
     14          6           0       -2.232938    2.944072   -0.057117
     15          6           0       -0.293825   -3.365772    0.600074
     16          6           0        0.935740   -2.683367    0.471885
     17          6           0        1.005315   -1.291527    0.076191
     18          6           0       -0.201434   -0.705191   -0.261450
     19          6           0       -0.196690    3.995890    1.001782
     20          6           0        1.469448    1.973239   -0.059656
     21          6           0        2.018828    3.006975    0.853607
     22          6           0        1.160760    3.988242    1.308993
     23          6           0        2.176872   -3.374486    0.676740
     24          6           0        3.361381   -2.780113    0.390257
     25          6           0        3.448998   -1.411132   -0.049500
     26          6           0        2.271619   -0.600069   -0.084449
     27          6           0        2.418788    0.797507   -0.372533
     28          6           0        3.663643    1.240514   -0.827455
     29          6           0        4.690883   -0.889449   -0.454191
     30          6           0        4.786885    0.412055   -0.897489
     31          1           0        5.728614    0.808377   -1.258794
     32          1           0        3.780832    2.284746   -1.096281
     33          1           0       -0.043974    0.700586   -1.800476
     34          1           0        5.562756   -1.534424   -0.436073
     35          1           0        4.287736   -3.337379    0.480589
     36          1           0        2.148475   -4.406681    1.009768
     37          1           0       -0.273457   -4.393549    0.949658
     38          1           0       -3.063574   -4.216425    0.754236
     39          1           0       -4.953015   -2.744221    0.377946
     40          1           0       -5.774155   -0.081562   -0.057261
     41          1           0       -4.974950    2.209482   -0.175367
     42          1           0       -2.835419    3.782264    0.274752
     43          1           0       -0.814721    4.798239    1.390414
     44          1           0        1.554771    4.784007    1.932623
     45          1           0        3.081935    3.035254    1.037801
     46          1           0        1.467258    2.574405   -1.015938
 ---------------------------------------------------------------------
 Rotational constants (GHZ):           0.2505618           0.1732189           0.1079119
 Standard basis: 6-311+G(d,p) (5D, 7F)
 There are   786 symmetry adapted cartesian basis functions of A   symmetry.
 There are   756 symmetry adapted basis functions of A   symmetry.
   756 basis functions,  1208 primitive gaussians,   786 cartesian basis functions
    98 alpha electrons       98 beta electrons
       nuclear repulsion energy      2645.0655718332 Hartrees.
 NAtoms=   46 NActive=   46 NUniq=   46 SFac= 1.00D+00 NAtFMM=   60 NAOKFM=F Big=F
 Integral buffers will be    131072 words long.
 Raffenetti 2 integral format.
 Two-electron integral symmetry is turned on.
 One-electron integrals computed using PRISM.
 NBasis=   756 RedAO= T EigKep=  1.16D-06  NBF=   756
 NBsUse=   737 1.00D-06 EigRej=  9.96D-07 NBFU=   737
 ExpMin= 4.38D-02 ExpMax= 4.56D+03 ExpMxC= 6.82D+02 IAcc=2 IRadAn=         4 AccDes= 0.00D+00
 Harris functional with IExCor=  402 and IRadAn=       4 diagonalized for initial guess.
 HarFok:  IExCor=  402 AccDes= 0.00D+00 IRadAn=         4 IDoV= 1 UseB2=F ITyADJ=14
 ICtDFT=  3500011 ScaDFX=  1.000000  1.000000  1.000000  1.000000
 FoFCou: FMM=F IPFlag=           0 FMFlag=      100000 FMFlg1=           0
         NFxFlg=           0 DoJE=T BraDBF=F KetDBF=T FulRan=T
         wScrn=  0.000000 ICntrl=       500 IOpCl=  0 I1Cent=   200000004 NGrid=           0
         NMat0=    1 NMatS0=      1 NMatT0=    0 NMatD0=    1 NMtDS0=    0 NMtDT0=    0
 Petite list used in FoFCou.
 Requested convergence on RMS density matrix=1.00D-08 within 128 cycles.
 Requested convergence on MAX density matrix=1.00D-06.
 Requested convergence on             energy=1.00D-06.
 No special actions if energy rises.
 Restarting incremental Fock formation.
 SCF Done:  E(RB3LYP) =  -1152.99923132     A.U. after   21 cycles
            NFock= 21  Conv=0.87D-08     -V/T= 2.0045

 **********************************************************************

            Population analysis using the SCF Density.

 **********************************************************************

 Orbital symmetries:
       Occupied  (A) (A) (A) (A) (A) (A) (A) (A) (A) (A) (A) (A)
                 (A) (A) (A) (A) (A) (A) (A) (A) (A) (A) (A) (A)
                 (A) (A) (A) (A) (A) (A) (A) (A) (A) (A) (A) (A)
                 (A) (A) (A) (A) (A) (A) (A) (A) (A) (A) (A) (A)
                 (A) (A) (A) (A) (A) (A) (A) (A) (A) (A) (A) (A)
                 (A) (A) (A) (A) (A) (A) (A) (A) (A) (A) (A) (A)
                 (A) (A) (A) (A) (A) (A) (A) (A) (A) (A) (A) (A)
                 (A) (A) (A) (A) (A) (A) (A) (A) (A) (A) (A) (A)
                 (A) (A)
       Virtual   (A) (A) (A) (A) (A) (A) (A) (A) (A) (A) (A) (A)
                 (A) (A) (A) (A) (A) (A) (A) (A) (A) (A) (A) (A)
                 (A) (A) (A) (A) (A) (A) (A) (A) (A) (A) (A) (A)
                 (A) (A) (A) (A) (A) (A) (A) (A) (A) (A) (A) (A)
                 (A) (A) (A) (A) (A) (A) (A) (A) (A) (A) (A) (A)
                 (A) (A) (A) (A) (A) (A) (A) (A) (A) (A) (A) (A)
                 (A) (A) (A) (A) (A) (A) (A) (A) (A) (A) (A) (A)
                 (A) (A) (A) (A) (A) (A) (A) (A) (A) (A) (A) (A)
                 (A) (A) (A) (A) (A) (A) (A) (A) (A) (A) (A) (A)
                 (A) (A) (A) (A) (A) (A) (A) (A) (A) (A) (A) (A)
                 (A) (A) (A) (A) (A) (A) (A) (A) (A) (A) (A) (A)
                 (A) (A) (A) (A) (A) (A) (A) (A) (A) (A) (A) (A)
                 (A) (A) (A) (A) (A) (A) (A) (A) (A) (A) (A) (A)
                 (A) (A) (A) (A) (A) (A) (A) (A) (A) (A) (A) (A)
                 (A) (A) (A) (A) (A) (A) (A) (A) (A) (A) (A) (A)
                 (A) (A) (A) (A) (A) (A) (A) (A) (A) (A) (A) (A)
                 (A) (A) (A) (A) (A) (A) (A) (A) (A) (A) (A) (A)
                 (A) (A) (A) (A) (A) (A) (A) (A) (A) (A) (A) (A)
                 (A) (A) (A) (A) (A) (A) (A) (A) (A) (A) (A) (A)
                 (A) (A) (A) (A) (A) (A) (A) (A) (A) (A) (A) (A)
                 (A) (A) (A) (A) (A) (A) (A) (A) (A) (A) (A) (A)
                 (A) (A) (A) (A) (A) (A) (A) (A) (A) (A) (A) (A)
                 (A) (A) (A) (A) (A) (A) (A) (A) (A) (A) (A) (A)
                 (A) (A) (A) (A) (A) (A) (A) (A) (A) (A) (A) (A)
                 (A) (A) (A) (A) (A) (A) (A) (A) (A) (A) (A) (A)
                 (A) (A) (A) (A) (A) (A) (A) (A) (A) (A) (A) (A)
                 (A) (A) (A) (A) (A) (A) (A) (A) (A) (A) (A) (A)
                 (A) (A) (A) (A) (A) (A) (A) (A) (A) (A) (A) (A)
                 (A) (A) (A) (A) (A) (A) (A) (A) (A) (A) (A) (A)
                 (A) (A) (A) (A) (A) (A) (A) (A) (A) (A) (A) (A)
                 (A) (A) (A) (A) (A) (A) (A) (A) (A) (A) (A) (A)
                 (A) (A) (A) (A) (A) (A) (A) (A) (A) (A) (A) (A)
                 (A) (A) (A) (A) (A) (A) (A) (A) (A) (A) (A) (A)
                 (A) (A) (A) (A) (A) (A) (A) (A) (A) (A) (A) (A)
                 (A) (A) (A) (A) (A) (A) (A) (A) (A) (A) (A) (A)
                 (A) (A) (A) (A) (A) (A) (A) (A) (A) (A) (A) (A)
                 (A) (A) (A) (A) (A) (A) (A) (A) (A) (A) (A) (A)
                 (A) (A) (A) (A) (A) (A) (A) (A) (A) (A) (A) (A)
                 (A) (A) (A) (A) (A) (A) (A) (A) (A) (A) (A) (A)
                 (A) (A) (A) (A) (A) (A) (A) (A) (A) (A) (A) (A)
                 (A) (A) (A) (A) (A) (A) (A) (A) (A) (A) (A) (A)
                 (A) (A) (A) (A) (A) (A) (A) (A) (A) (A) (A) (A)
                 (A) (A) (A) (A) (A) (A) (A) (A) (A) (A) (A) (A)
                 (A) (A) (A) (A) (A) (A) (A) (A) (A) (A) (A) (A)
                 (A) (A) (A) (A) (A) (A) (A) (A) (A) (A) (A) (A)
                 (A) (A) (A) (A) (A) (A) (A) (A) (A) (A) (A) (A)
                 (A) (A) (A) (A) (A) (A) (A) (A) (A) (A) (A) (A)
                 (A) (A) (A) (A) (A) (A) (A) (A) (A) (A) (A) (A)
                 (A) (A) (A) (A) (A) (A) (A) (A) (A) (A) (A) (A)
                 (A) (A) (A) (A) (A) (A) (A) (A) (A) (A) (A) (A)
                 (A) (A) (A) (A) (A) (A) (A) (A) (A) (A) (A) (A)
                 (A) (A) (A) (A) (A) (A) (A) (A) (A) (A) (A) (A)
                 (A) (A) (A) (A) (A) (A) (A) (A) (A) (A) (A) (A)
                 (A) (A) (A)
 The electronic state is 1-A.
 Alpha  occ. eigenvalues --  -10.25158 -10.23684 -10.21601 -10.21095 -10.20902
 Alpha  occ. eigenvalues --  -10.20540 -10.19911 -10.19596 -10.19562 -10.19521
 Alpha  occ. eigenvalues --  -10.19372 -10.19306 -10.19214 -10.19004 -10.18957
 Alpha  occ. eigenvalues --  -10.18879 -10.18720 -10.18493 -10.18341 -10.18330
 Alpha  occ. eigenvalues --  -10.18253 -10.18079 -10.17630 -10.17429 -10.17422
 Alpha  occ. eigenvalues --  -10.17242 -10.17158 -10.16705 -10.16538 -10.15406
 Alpha  occ. eigenvalues --   -0.92513  -0.89674  -0.89065  -0.85486  -0.84044
 Alpha  occ. eigenvalues --   -0.83358  -0.80778  -0.79532  -0.79163  -0.77828
 Alpha  occ. eigenvalues --   -0.75449  -0.74897  -0.72926  -0.71376  -0.71089
 Alpha  occ. eigenvalues --   -0.67066  -0.65900  -0.64116  -0.63495  -0.62374
 Alpha  occ. eigenvalues --   -0.60586  -0.60108  -0.58595  -0.57022  -0.56290
 Alpha  occ. eigenvalues --   -0.53133  -0.52226  -0.51720  -0.51538  -0.50461
 Alpha  occ. eigenvalues --   -0.49966  -0.48589  -0.47829  -0.47055  -0.46023
 Alpha  occ. eigenvalues --   -0.45495  -0.44897  -0.44435  -0.44244  -0.43249
 Alpha  occ. eigenvalues --   -0.42462  -0.42325  -0.41520  -0.41354  -0.40533
 Alpha  occ. eigenvalues --   -0.40113  -0.39467  -0.39243  -0.38976  -0.38630
 Alpha  occ. eigenvalues --   -0.36952  -0.36438  -0.36022  -0.35611  -0.34686
 Alpha  occ. eigenvalues --   -0.34280  -0.33567  -0.32889  -0.32084  -0.30996
 Alpha  occ. eigenvalues --   -0.30068  -0.28575  -0.28171  -0.25549  -0.24983
 Alpha  occ. eigenvalues --   -0.21903  -0.20825  -0.15318
 Alpha virt. eigenvalues --   -0.12033  -0.06639  -0.06062  -0.03688  -0.02862
 Alpha virt. eigenvalues --   -0.01017  -0.00584   0.00259   0.00476   0.00917
 Alpha virt. eigenvalues --    0.01071   0.01625   0.01939   0.02076   0.02593
 Alpha virt. eigenvalues --    0.03033   0.03252   0.03823   0.04367   0.04648
 Alpha virt. eigenvalues --    0.04756   0.04943   0.05407   0.05726   0.06008
 Alpha virt. eigenvalues --    0.06352   0.06654   0.07012   0.07308   0.07558
 Alpha virt. eigenvalues --    0.08301   0.08665   0.08978   0.09065   0.09571
 Alpha virt. eigenvalues --    0.09663   0.09921   0.10293   0.10443   0.10636
 Alpha virt. eigenvalues --    0.11107   0.11788   0.12305   0.12381   0.12716
 Alpha virt. eigenvalues --    0.13083   0.13392   0.13983   0.13998   0.14347
 Alpha virt. eigenvalues --    0.14618   0.14711   0.14863   0.15059   0.15400
 Alpha virt. eigenvalues --    0.15578   0.15951   0.16178   0.16596   0.16797
 Alpha virt. eigenvalues --    0.17065   0.17297   0.17450   0.17536   0.17773
 Alpha virt. eigenvalues --    0.18065   0.18152   0.18349   0.18525   0.18790
 Alpha virt. eigenvalues --    0.18986   0.19148   0.19449   0.19647   0.19760
 Alpha virt. eigenvalues --    0.20012   0.20288   0.20468   0.20890   0.21020
 Alpha virt. eigenvalues --    0.21156   0.21527   0.21777   0.21899   0.21963
 Alpha virt. eigenvalues --    0.22153   0.22364   0.22757   0.23085   0.23333
 Alpha virt. eigenvalues --    0.23662   0.23801   0.23946   0.24213   0.24326
 Alpha virt. eigenvalues --    0.24637   0.24748   0.25140   0.25508   0.25687
 Alpha virt. eigenvalues --    0.25836   0.25871   0.26156   0.26532   0.26591
 Alpha virt. eigenvalues --    0.26626   0.26914   0.27216   0.27497   0.27672
 Alpha virt. eigenvalues --    0.28024   0.28150   0.28414   0.28725   0.28802
 Alpha virt. eigenvalues --    0.29151   0.29394   0.29555   0.30009   0.30253
 Alpha virt. eigenvalues --    0.30563   0.30748   0.31096   0.31552   0.31695
 Alpha virt. eigenvalues --    0.31927   0.32306   0.32373   0.32626   0.32973
 Alpha virt. eigenvalues --    0.33255   0.33621   0.33952   0.34548   0.34822
 Alpha virt. eigenvalues --    0.34981   0.35223   0.35527   0.36149   0.36551
 Alpha virt. eigenvalues --    0.36910   0.37098   0.37518   0.37820   0.38457
 Alpha virt. eigenvalues --    0.38474   0.38607   0.39410   0.39937   0.40746
 Alpha virt. eigenvalues --    0.41191   0.41754   0.42264   0.43592   0.43925
 Alpha virt. eigenvalues --    0.44254   0.45164   0.45754   0.47046   0.47871
 Alpha virt. eigenvalues --    0.48198   0.49218   0.49433   0.50175   0.50945
 Alpha virt. eigenvalues --    0.51487   0.51926   0.51951   0.52689   0.52820
 Alpha virt. eigenvalues --    0.53670   0.54227   0.54678   0.54743   0.55091
 Alpha virt. eigenvalues --    0.55739   0.55952   0.56247   0.56493   0.57042
 Alpha virt. eigenvalues --    0.57716   0.58171   0.58312   0.58475   0.59014
 Alpha virt. eigenvalues --    0.59208   0.60012   0.60277   0.60456   0.60789
 Alpha virt. eigenvalues --    0.60865   0.61033   0.61539   0.62255   0.62392
 Alpha virt. eigenvalues --    0.63045   0.63338   0.63832   0.64027   0.64774
 Alpha virt. eigenvalues --    0.66073   0.66395   0.66701   0.67204   0.67678
 Alpha virt. eigenvalues --    0.67873   0.68039   0.68321   0.69118   0.69467
 Alpha virt. eigenvalues --    0.69602   0.69875   0.70043   0.70534   0.71186
 Alpha virt. eigenvalues --    0.71575   0.71700   0.72083   0.72356   0.72725
 Alpha virt. eigenvalues --    0.72831   0.73141   0.73564   0.73728   0.74002
 Alpha virt. eigenvalues --    0.74383   0.74618   0.74769   0.75152   0.75501
 Alpha virt. eigenvalues --    0.75812   0.76068   0.76501   0.76561   0.77524
 Alpha virt. eigenvalues --    0.77629   0.77960   0.79104   0.79338   0.79683
 Alpha virt. eigenvalues --    0.81016   0.81444   0.82653   0.83448   0.84469
 Alpha virt. eigenvalues --    0.84789   0.84966   0.85343   0.85487   0.86080
 Alpha virt. eigenvalues --    0.86975   0.87653   0.88265   0.88569   0.88746
 Alpha virt. eigenvalues --    0.89318   0.89887   0.90763   0.91184   0.91396
 Alpha virt. eigenvalues --    0.91414   0.91646   0.92029   0.92343   0.92803
 Alpha virt. eigenvalues --    0.93437   0.94144   0.94430   0.94800   0.95196
 Alpha virt. eigenvalues --    0.95498   0.95683   0.96315   0.96669   0.97396
 Alpha virt. eigenvalues --    0.97824   0.98445   0.99122   0.99373   1.00357
 Alpha virt. eigenvalues --    1.00781   1.01683   1.01840   1.02976   1.03299
 Alpha virt. eigenvalues --    1.04345   1.05192   1.05517   1.06075   1.06560
 Alpha virt. eigenvalues --    1.07164   1.07820   1.08609   1.09217   1.10002
 Alpha virt. eigenvalues --    1.10068   1.10594   1.11571   1.12340   1.13672
 Alpha virt. eigenvalues --    1.13916   1.14351   1.15523   1.15743   1.17643
 Alpha virt. eigenvalues --    1.18131   1.19399   1.20223   1.20421   1.21226
 Alpha virt. eigenvalues --    1.23263   1.24065   1.25921   1.27466   1.28360
 Alpha virt. eigenvalues --    1.28618   1.30286   1.31646   1.32744   1.34806
 Alpha virt. eigenvalues --    1.35817   1.36848   1.37777   1.39100   1.39249
 Alpha virt. eigenvalues --    1.40836   1.41454   1.43000   1.44205   1.44654
 Alpha virt. eigenvalues --    1.45316   1.45994   1.46860   1.47470   1.48127
 Alpha virt. eigenvalues --    1.48882   1.49541   1.49781   1.50343   1.50977
 Alpha virt. eigenvalues --    1.51505   1.52209   1.52503   1.53033   1.53365
 Alpha virt. eigenvalues --    1.53819   1.54093   1.54690   1.55078   1.56671
 Alpha virt. eigenvalues --    1.57029   1.57453   1.58038   1.59370   1.59766
 Alpha virt. eigenvalues --    1.60346   1.61519   1.61720   1.62230   1.62933
 Alpha virt. eigenvalues --    1.63220   1.65318   1.65518   1.66116   1.66676
 Alpha virt. eigenvalues --    1.68099   1.68387   1.69649   1.69957   1.70621
 Alpha virt. eigenvalues --    1.71407   1.72213   1.72491   1.73377   1.74060
 Alpha virt. eigenvalues --    1.75179   1.75317   1.75609   1.76148   1.76677
 Alpha virt. eigenvalues --    1.77162   1.77916   1.78863   1.79779   1.80757
 Alpha virt. eigenvalues --    1.81167   1.81920   1.82672   1.83847   1.83897
 Alpha virt. eigenvalues --    1.85206   1.85702   1.86040   1.86764   1.87183
 Alpha virt. eigenvalues --    1.87512   1.87937   1.88895   1.89661   1.89772
 Alpha virt. eigenvalues --    1.90241   1.90928   1.91235   1.92297   1.92788
 Alpha virt. eigenvalues --    1.93476   1.93706   1.94218   1.94838   1.95837
 Alpha virt. eigenvalues --    1.96116   1.96923   1.97665   1.98300   1.99113
 Alpha virt. eigenvalues --    1.99821   2.00356   2.00779   2.03216   2.03583
 Alpha virt. eigenvalues --    2.04776   2.05276   2.05434   2.06177   2.07040
 Alpha virt. eigenvalues --    2.07391   2.07924   2.09233   2.09406   2.11657
 Alpha virt. eigenvalues --    2.11853   2.12169   2.12927   2.14290   2.14784
 Alpha virt. eigenvalues --    2.15489   2.16840   2.17926   2.18186   2.19026
 Alpha virt. eigenvalues --    2.19445   2.20337   2.20867   2.21651   2.22440
 Alpha virt. eigenvalues --    2.22998   2.24007   2.25503   2.27212   2.28896
 Alpha virt. eigenvalues --    2.29651   2.30570   2.31305   2.32695   2.33689
 Alpha virt. eigenvalues --    2.35216   2.35900   2.36591   2.37259   2.39803
 Alpha virt. eigenvalues --    2.40805   2.41934   2.42699   2.44776   2.44910
 Alpha virt. eigenvalues --    2.45466   2.47573   2.48751   2.49184   2.50855
 Alpha virt. eigenvalues --    2.51802   2.54122   2.55559   2.56033   2.56831
 Alpha virt. eigenvalues --    2.57735   2.59163   2.59333   2.60483   2.63536
 Alpha virt. eigenvalues --    2.65244   2.65799   2.66345   2.67208   2.68359
 Alpha virt. eigenvalues --    2.69332   2.69973   2.71189   2.71534   2.72030
 Alpha virt. eigenvalues --    2.72543   2.72984   2.73730   2.74043   2.74340
 Alpha virt. eigenvalues --    2.74927   2.75048   2.75622   2.76267   2.76889
 Alpha virt. eigenvalues --    2.76974   2.77158   2.77702   2.78006   2.78655
 Alpha virt. eigenvalues --    2.79183   2.79843   2.80247   2.81127   2.82012
 Alpha virt. eigenvalues --    2.82749   2.83752   2.84520   2.84899   2.85920
 Alpha virt. eigenvalues --    2.86109   2.87038   2.87379   2.88200   2.88993
 Alpha virt. eigenvalues --    2.89431   2.90187   2.92113   2.92807   2.94287
 Alpha virt. eigenvalues --    2.95142   2.95832   2.96721   2.98840   2.99397
 Alpha virt. eigenvalues --    3.00614   3.01517   3.04733   3.06675   3.07326
 Alpha virt. eigenvalues --    3.08216   3.09288   3.11148   3.12837   3.13317
 Alpha virt. eigenvalues --    3.14664   3.16279   3.17786   3.19681   3.19985
 Alpha virt. eigenvalues --    3.21735   3.22698   3.23470   3.24383   3.26798
 Alpha virt. eigenvalues --    3.27921   3.29700   3.30212   3.32481   3.33633
 Alpha virt. eigenvalues --    3.34372   3.36583   3.37427   3.38563   3.38742
 Alpha virt. eigenvalues --    3.41373   3.41472   3.42393   3.45085   3.47546
 Alpha virt. eigenvalues --    3.48236   3.48790   3.50722   3.52682   3.53959
 Alpha virt. eigenvalues --    3.54107   3.57145   3.58763   3.60131   3.62160
 Alpha virt. eigenvalues --    3.63859   3.66497   3.67168   3.69809   3.71337
 Alpha virt. eigenvalues --    3.78610   3.82345   3.83479   3.90359   3.94005
 Alpha virt. eigenvalues --    4.00578   4.02699   4.05505   4.06636   4.08540
 Alpha virt. eigenvalues --    4.08877   4.09637   4.10463   4.13198   4.21451
 Alpha virt. eigenvalues --    4.24456   4.28085   4.32317   4.38182   4.47062
 Alpha virt. eigenvalues --    4.57401   4.65547   4.68791   4.72830   4.73834
 Alpha virt. eigenvalues --    4.78487   4.81259   4.82564   4.88628  23.44445
 Alpha virt. eigenvalues --   23.61803  23.64556  23.77413  23.82494  23.84771
 Alpha virt. eigenvalues --   23.86046  23.88137  23.90781  23.91675  23.93465
 Alpha virt. eigenvalues --   23.94460  23.95480  23.97254  23.99752  24.00526
 Alpha virt. eigenvalues --   24.01706  24.02526  24.04725  24.05495  24.07388
 Alpha virt. eigenvalues --   24.08710  24.09321  24.11862  24.13624  24.14948
 Alpha virt. eigenvalues --   24.17379  24.17810  24.18726  24.21119
          Condensed to atoms (all electrons):
               1          2          3          4          5          6
     1  C   10.952339   1.629909  -0.202122   0.138519  -2.237164  -0.778524
     2  C    1.629909   9.020424  -1.082938  -0.911096  -1.309281   2.239883
     3  C   -0.202122  -1.082938  10.466676   1.611840   2.440418  -2.869176
     4  C    0.138519  -0.911096   1.611840  12.886510   0.359668  -3.292734
     5  C   -2.237164  -1.309281   2.440418   0.359668  12.328913  -0.447903
     6  C   -0.778524   2.239883  -2.869176  -3.292734  -0.447903  13.333415
     7  C   -0.746017  -0.577655   3.063233  -1.829251   0.796744  -1.936374
     8  C   -0.520983  -0.713377  -0.605187   0.592228   0.338613   0.378673
     9  C    0.145698  -0.250503   0.860100   0.338022  -0.152456  -0.354661
    10  C   -0.670976  -1.148392   0.211698  -2.988654   0.457359  -1.255160
    11  C   -1.314447   1.034011  -3.112796  -0.674844  -0.844700   1.289659
    12  C    0.054416   0.270960   0.971567  -0.579331  -0.197360   0.229345
    13  C   -0.261503  -0.588117  -0.607361   0.187437   0.106865  -0.092962
    14  C   -0.182018   0.215485  -2.176442   1.386353  -0.182006   0.560484
    15  C    1.590892   0.116600  -0.488788  -0.170243  -1.100558  -0.214294
    16  C   -0.064690  -0.693184  -0.771302  -0.065489  -0.720191  -0.442197
    17  C   -0.430426   0.367241  -0.770858  -0.672401  -1.493015   0.400444
    18  C    0.722664   0.132861  -0.292861  -0.329545  -0.853642  -0.851084
    19  C    0.020358  -0.086824  -0.221439   0.017278   0.005041  -0.015549
    20  C    0.365599   0.376518   0.572842  -0.009750   0.038978   0.003400
    21  C    0.136880  -0.009096   0.049335   0.057883  -0.024423   0.033774
    22  C   -0.035198  -0.044793  -0.107461  -0.014900   0.008220  -0.001337
    23  C   -1.117234  -1.041985  -0.179801  -0.129771  -0.443639  -0.224245
    24  C   -0.213743  -0.380045  -0.107228  -0.048549  -0.337948  -0.009409
    25  C    0.114258  -0.529895  -0.030559  -0.098296  -0.142224   0.095727
    26  C   -0.913901   0.145318  -0.378287   0.064648  -0.081843  -0.149771
    27  C   -0.288398  -0.088650  -0.183536  -0.061513  -0.167776   0.060111
    28  C   -0.020048   0.004850   0.010845   0.009821  -0.015183  -0.000835
    29  C    0.018566  -0.237266  -0.003283  -0.010174  -0.017311   0.010078
    30  C   -0.045885  -0.020302  -0.007623   0.000251  -0.010974  -0.000797
    31  H    0.000028   0.000094  -0.000003   0.000001   0.000001  -0.000000
    32  H   -0.000040   0.000223  -0.000057   0.000017  -0.000020   0.000005
    33  H    0.008349  -0.016691   0.063118  -0.029623   0.004086  -0.015312
    34  H    0.000385  -0.000165   0.000006  -0.000003   0.000018   0.000003
    35  H    0.002538   0.000187   0.000216  -0.000011   0.000214   0.000012
    36  H    0.034224   0.008946   0.000473   0.000077   0.002656   0.000672
    37  H   -0.023188   0.018852   0.003725   0.004629   0.035992   0.006453
    38  H   -0.046419   0.043809  -0.032114  -0.049569   0.322012   0.025395
    39  H   -0.001067  -0.000739   0.020960  -0.099920  -0.039019   0.395315
    40  H    0.009750  -0.002386   0.019700  -0.035206   0.009613   0.036653
    41  H   -0.000028  -0.001032  -0.033671  -0.019155  -0.001075   0.009712
    42  H   -0.000064  -0.000198  -0.004123   0.006353   0.000020  -0.000299
    43  H   -0.000174  -0.000505   0.001048  -0.000202  -0.000004   0.000042
    44  H   -0.000034   0.000018  -0.000022   0.000045  -0.000010   0.000005
    45  H   -0.000252  -0.000351  -0.000206  -0.000070  -0.000010  -0.000010
    46  H   -0.000425  -0.000380  -0.004689   0.002674  -0.000133   0.000503
               7          8          9         10         11         12
     1  C   -0.746017  -0.520983   0.145698  -0.670976  -1.314447   0.054416
     2  C   -0.577655  -0.713377  -0.250503  -1.148392   1.034011   0.270960
     3  C    3.063233  -0.605187   0.860100   0.211698  -3.112796   0.971567
     4  C   -1.829251   0.592228   0.338022  -2.988654  -0.674844  -0.579331
     5  C    0.796744   0.338613  -0.152456   0.457359  -0.844700  -0.197360
     6  C   -1.936374   0.378673  -0.354661  -1.255160   1.289659   0.229345
     7  C   16.205577   1.224797  -1.590801   2.902728   0.296017   0.298299
     8  C    1.224797  13.500312  -1.569268  -1.173988   0.023739  -0.874309
     9  C   -1.590801  -1.569268   9.931799   0.137687  -1.221188  -0.586920
    10  C    2.902728  -1.173988   0.137687  10.954822  -0.091068   0.076139
    11  C    0.296017   0.023739  -1.221188  -0.091068  16.889461  -1.217074
    12  C    0.298299  -0.874309  -0.586920   0.076139  -1.217074  19.390486
    13  C   -0.500956   0.017459  -0.592511   0.182344   0.598105  -0.544142
    14  C   -4.973187  -0.673923   0.654977  -1.279240   2.461085  -4.965855
    15  C   -0.401636  -0.233883  -0.015862  -0.055181  -0.315311   0.201643
    16  C   -0.784095  -0.153193  -0.019558  -0.195962  -1.314684  -0.553648
    17  C   -1.224870  -0.561690  -0.236304  -0.063546   0.327756   0.312873
    18  C   -1.028439  -0.733413  -0.123200   0.357410  -1.428327   0.212475
    19  C   -0.622578  -0.076192   0.207808   0.041625  -0.835086   0.108523
    20  C   -0.535707  -1.394017   0.076730  -0.175184  -3.457805   4.771948
    21  C   -0.899012   0.036072   0.101402  -0.068970  -2.175525  -1.753829
    22  C    0.102936  -0.328247  -0.052995   0.020576   0.809724  -0.156398
    23  C    0.008213   0.010370  -0.013860  -0.019515   0.397786  -0.297217
    24  C   -0.201045   0.006352  -0.000842  -0.000982   0.098893  -0.209199
    25  C   -0.558089  -0.167314  -0.009675  -0.032025  -1.037790  -1.171477
    26  C    0.238284  -0.107159   0.069350  -0.036010   1.165780  -1.396938
    27  C   -0.493022  -0.739534   0.012319  -0.079436   0.192801  -3.742261
    28  C   -0.046191   0.053109   0.047012  -0.006953  -0.227131  -0.977678
[...]
 .00000335,-0.00000079,0.00000313,0.00000251,0.00000012,0.00000052,0.00
 000060,-0.00000451,-0.00000225,0.00000065,-0.00000614,0.00000254,-0.00
 000102,-0.00000220,0.00000329,0.00000527,-0.00000109,-0.00001022,-0.00
 000998,-0.00000317,-0.00007716,0.00029687,0.00016208,0.15289645,0.0001
 6515,0.00008270,-0.00002087,0.00007170,-0.00024840,0.00005901,-0.00012
 498,-0.00007019,-0.00008827,0.00006729,0.00022341,-0.00000873,-0.00021
 540,0.00003675,0.00000952,0.00006596,-0.00024520,0.00008070,0.00024928
 ,0.00021062,-0.00036601,-0.00067528,-0.00027467,0.00054173,0.00010266,
 0.00003734,-0.00004877,-0.00002494,-0.00012387,-0.00001824,0.00034194,
 -0.00130410,0.00192240,-0.00289200,-0.00108335,-0.00489858,0.01603821,
 -0.01350006,-0.00787143,0.00131823,-0.00004529,0.00084239,-0.00014440,
 -0.00002768,0.00000734,0.00008554,0.00008753,0.00000876,-0.00013321,-0
 .00010138,0.00001783,-0.00026610,-0.00023147,-0.00035641,0.12206523,-0
 .21758703,-0.06947136,-0.00048673,0.00003560,-0.00024160,0.00014000,0.
 00332379,-0.00141484,-0.00214149,0.00338125,-0.00168902,-0.00003250,-0
 .00002557,0.00000781,0.00002000,0.00002372,-0.00000836,-0.00021044,-0.
 00001802,0.00000161,0.00029377,-0.00004349,-0.00003284,-0.00016033,-0.
 00004858,0.00017989,-0.00012543,0.00008150,0.00002575,0.00012605,0.000
 14342,-0.00004180,0.00006811,-0.00019370,0.00001484,0.00000608,-0.0000
 0645,-0.00000239,-0.00002629,-0.00002600,0.00002046,0.00004907,0.00042
 927,0.00024306,0.00000555,-0.00000157,0.00000438,0.00000069,-0.0000073
 1,0.00000256,0.00000103,-0.00000253,0.00000555,-0.00000127,-0.00000498
 ,-0.00000245,-0.00001332,-0.00000063,0.00000472,0.00000005,-0.00000578
 ,-0.00001137,-0.00000222,-0.00000234,0.00000023,-0.00002369,0.00000196
 ,0.00000730,-0.00095615,0.00053468,-0.00017612,-0.13204731,0.22700456,
 -0.00018472,-0.00007555,-0.00001923,-0.00008870,0.00025128,0.00004187,
 0.00002568,0.00019015,0.00014274,-0.00020509,-0.00027695,0.00001347,0.
 00021386,-0.00004480,-0.00002879,-0.00007192,0.00028935,-0.00010911,0.
 00007787,0.00003492,0.00031717,0.00007694,0.00055767,-0.00048883,-0.00
 005939,-0.00003636,0.00000724,0.00007678,0.00002375,0.00006712,0.00121
 641,0.00110350,-0.00297128,-0.00164285,-0.00510853,0.00308503,0.007536
 08,-0.01188825,0.00353248,0.00101740,0.00083726,-0.00081310,0.00020328
 ,0.00000980,-0.00000788,-0.00013247,-0.00010572,0.00001608,0.00019349,
 0.00008626,0.00000477,0.00025473,0.00032273,0.00018014,0.04215194,-0.0
 7140806,-0.06717558,-0.00055894,-0.00018989,0.00032084,-0.00341438,-0.
 00228855,0.00439039,-0.00445476,0.00500371,0.00739414,0.00005416,0.000
 03885,-0.00001037,-0.00003461,-0.00003669,0.00001390,0.00031108,0.0000
 3410,0.00000753,-0.00039043,0.00007680,0.00000645,0.00030346,0.0001789
 0,-0.00035310,0.00019993,-0.00020102,-0.00001723,-0.00018710,-0.000204
 40,0.00006909,-0.00009345,0.00029518,-0.00007294,0.00000029,0.00000600
 ,0.00000137,0.00003439,0.00006563,0.00001563,-0.00016494,-0.00082766,-
 0.00043988,-0.00000313,0.00000052,0.00000162,0.00000392,0.00000676,-0.
 00000377,-0.00000228,-0.00000069,-0.00000509,0.00000158,0.00000245,-0.
 00000049,0.00001579,0.00000352,0.00001660,-0.00000732,-0.00000029,0.00
 001705,-0.00000771,0.00000282,-0.00000320,-0.00002037,-0.00000302,-0.0
 0000970,-0.00054366,0.00000296,0.00034467,-0.04199285,0.08078467,0.055
 29832,-0.00003359,-0.00001308,0.00000900,0.00004078,-0.00003571,0.0000
 0173,0.00005119,0.00005958,-0.00004289,-0.00004815,-0.00004476,0.00001
 981,0.00005926,-0.00001819,0.00000111,-0.00002501,0.00007198,-0.000016
 18,0.00008268,0.00000718,0.00003465,-0.00051586,0.00016378,0.00007880,
 0.00001593,-0.00014422,-0.00002524,-0.00007190,0.00002013,0.00001113,0
 .00024145,-0.00012125,-0.00000095,-0.00066404,0.00051171,0.00017565,-0
 .00407859,0.00225098,-0.00172270,0.00012954,-0.00139076,-0.00036676,0.
 00001868,-0.00000995,0.00000299,0.00000676,-0.00000338,0.00001052,0.00
 000279,-0.00004569,0.00001528,-0.00009539,0.00004033,-0.00006707,-0.00
 856217,-0.02513189,-0.01708125,-0.00160121,0.00412923,-0.00022825,0.01
 087667,0.01535390,0.01093364,-0.09400804,-0.07459178,-0.05607415,-0.00
 000114,0.00000223,0.00000024,-0.00002833,-0.00000612,0.00000058,0.0000
 5755,0.00004971,-0.00006912,-0.00031200,0.00004063,0.00006566,0.000751
 44,0.00058248,0.00054109,-0.00002173,-0.00001519,-0.00001946,-0.000036
 99,0.00001187,0.00000742,-0.00001395,-0.00000048,-0.00005124,-0.000011
 83,0.00000732,0.00000726,-0.00000064,-0.00000394,0.00006414,-0.0000592
 5,-0.00008097,-0.00001634,-0.00000023,0.00000101,0.00000940,0.00000093
 ,0.00000985,-0.00000342,0.00000229,-0.00000147,-0.00000149,0.00000194,
 -0.00000201,-0.00000045,-0.00000060,-0.00000296,0.00000148,-0.00000281
 ,0.00000089,0.00000318,-0.00000664,-0.00001697,0.00000562,-0.00000809,
 0.00000799,-0.00000174,-0.00005674,0.00007241,-0.00003190,0.00072347,-
 0.00022064,0.00094612,0.09700892,-0.00005462,-0.00003497,0.00000820,0.
 00002924,0.00000774,0.00002271,0.00003588,0.00007983,-0.00003731,-0.00
 004667,-0.00012132,0.00003034,0.00008009,-0.00003110,0.00000029,-0.000
 03311,0.00011054,-0.00002172,0.00002845,-0.00013927,-0.00005321,0.0000
 4518,0.00027646,0.00032993,-0.00006879,-0.00008047,-0.00002143,-0.0000
 1681,0.00006882,-0.00001975,-0.00013753,-0.00013977,0.00036432,0.00065
 170,0.00027111,0.00042275,0.00194121,0.00292522,-0.00229119,-0.0003793
 0,-0.00025790,-0.00013058,0.00001920,0.00000246,0.00000202,-0.00003256
 ,-0.00000119,-0.00000265,0.00005465,0.00002640,-0.00002084,-0.00003691
 ,-0.00003608,-0.00000746,0.00112532,0.00326001,-0.00002512,0.00352079,
 -0.00045930,-0.00252957,-0.01032690,-0.01387065,-0.01301113,-0.0750300
 7,-0.21596870,-0.11945799,0.00001139,-0.00000335,0.00000152,0.00002287
 ,0.00000471,0.00002104,0.00003699,-0.00002415,0.00005086,0.00021234,0.
 00000263,-0.00011492,-0.00060913,-0.00021351,-0.00052363,0.00008769,-0
 .00014422,0.00009146,0.00000731,-0.00009281,-0.00000147,-0.00001856,0.
 00006977,0.00002060,0.00002208,-0.00000705,-0.00000982,-0.00002842,0.0
 0004641,-0.00001046,0.00004176,0.00008370,0.00007048,0.00000456,-0.000
 00650,-0.00000506,0.00000459,-0.00001332,0.00000004,-0.00000306,-0.000
 00778,-0.00000153,-0.00000081,-0.00000705,-0.00000066,0.00000079,-0.00
 000553,0.00000123,-0.00000639,-0.00000041,0.00000213,-0.00000628,-0.00
 000383,0.00000417,-0.00000724,0.00000432,-0.00000296,-0.00000331,0.000
 00958,-0.00005810,-0.00065588,-0.00030974,0.00220233,0.07971791,0.2249
 7822,0.00005902,0.00003945,-0.00000553,-0.00005851,-0.00003593,-0.0000
 2384,-0.00005155,-0.00003614,0.00009351,0.00001818,0.00005856,-0.00003
 300,-0.00008915,0.00000509,0.00001239,0.00003838,-0.00007942,0.0000115
 5,-0.00000859,0.00004315,0.00006015,-0.00007519,-0.00004265,-0.0004205
 9,0.00005684,0.00002714,-0.00002872,0.00002520,-0.00004870,0.00004202,
 -0.00001354,0.00023220,-0.00054573,0.00001165,0.00014963,-0.00014002,-
 0.00286134,-0.00151660,0.00565676,0.00034255,-0.00004007,0.00001402,-0
 .00003124,0.00000838,-0.00000244,0.00001444,0.00001264,-0.00000963,-0.
 00009910,-0.00001867,0.00002961,0.00011009,0.00005824,-0.00002008,-0.0
 0134264,-0.00642933,-0.00028140,0.00094833,-0.00310285,0.00547702,-0.0
 0391189,-0.00683509,-0.00163901,-0.05733715,-0.11933124,-0.12078313,-0
 .00000600,0.00000280,-0.00000020,0.00002204,0.00000262,-0.00001389,-0.
 00006886,-0.00004957,0.00003571,0.00029357,0.00006454,-0.00009391,-0.0
 0046682,-0.00062537,-0.00021999,-0.00004871,0.00002554,-0.00009606,0.0
 0005363,0.00005726,-0.00000917,0.00004266,-0.00008433,0.00006279,0.000
 01882,-0.00000764,-0.00000130,-0.00000282,-0.00007398,-0.00006217,0.00
 002704,-0.00008075,-0.00010952,0.00000244,-0.00000889,-0.00001206,0.00
 000428,-0.00000813,0.00000640,-0.00000147,-0.00000390,0.00000167,-0.00
 000028,-0.00000331,0.00000445,-0.00000104,-0.00000557,-0.00000554,-0.0
 0000443,-0.00000546,0.00000005,-0.00000571,-0.00000330,0.00000123,-0.0
 0000145,0.00000487,0.00000590,-0.00001835,-0.00002093,0.00011747,0.000
 80521,0.00216592,-0.00282905,0.06242067,0.13291434,0.11772892,0.000116
 17,-0.00000461,-0.00002974,0.00002070,0.00000550,0.00003745,0.00001496
 ,0.00008322,-0.00017421,-0.00007869,0.00008604,0.00004439,-0.00009058,
 0.00001372,-0.00001044,0.00001115,-0.00006340,0.00003900,0.00001489,-0
 .00026234,-0.00024810,-0.00015893,-0.00006353,0.00001719,0.00005156,0.
 00008041,-0.00000742,0.00000330,-0.00011302,0.00000429,-0.00045160,0.0
 0050595,0.00015261,0.00090190,-0.00053499,-0.00116645,0.00087939,-0.00
 008962,0.00047728,-0.00012456,-0.00048093,-0.00007361,-0.00009236,-0.0
 0002281,0.00000541,0.00007146,-0.00001145,-0.00000310,0.00010294,0.000
 05524,-0.00001722,-0.00000057,0.00006359,0.00004785,0.00047586,0.00354
 139,0.00075081,-0.00615565,0.00152151,0.00071455,-0.33572174,-0.003338
 25,-0.07072017,-0.01184616,-0.00359818,-0.00442253,-0.00010497,0.00004
 134,-0.00000254,0.00010398,0.00004630,-0.00004562,-0.00041306,-0.00004
 555,0.00010515,0.00032826,-0.00063237,0.00004575,-0.00041495,0.0011673
 8,0.00093510,-0.00063905,0.00123638,0.00188594,0.00015074,0.00031233,-
 0.00024809,0.00036370,-0.00019585,0.00017316,-0.00001257,0.00001857,0.
 00011331,-0.00019553,0.00147529,0.00101365,-0.00004971,0.00006236,0.00
 008540,-0.00000122,0.00001523,-0.00003801,-0.00000069,-0.00000963,-0.0
 0000370,-0.00000021,0.00000071,0.00000664,-0.00000189,-0.00000057,-0.0
 0000338,-0.00000075,0.00000625,0.00001125,0.00000274,-0.00000017,-0.00
 000710,0.00000398,-0.00000115,0.00000142,0.00000146,-0.00000070,-0.000
 00306,0.00002078,0.00003628,-0.00007667,-0.00063475,-0.00010686,-0.000
 41512,0.00047998,-0.00017215,0.00081181,0.35353514,0.00004911,0.000000
 59,-0.00000480,0.00013694,-0.00000300,-0.00000082,0.00000160,0.0003124
 0,-0.00036828,-0.00018433,0.00004554,0.00010677,-0.00002767,-0.0000528
 2,0.00000532,0.00000035,0.00002952,0.00004460,-0.00024020,-0.00039545,
 -0.00019441,-0.00017738,-0.00022140,0.00023132,0.00014089,0.00012621,-
 0.00004496,-0.00000196,-0.00021576,0.00000031,-0.00091525,0.00096625,-
 0.00046094,-0.00059269,-0.00319054,-0.00363672,0.00052858,-0.00010868,
 0.00045511,-0.00014061,0.00001591,0.00007553,-0.00004218,-0.00006284,0
 .00001732,0.00010631,0.00002028,-0.00002546,0.00017326,-0.00003174,0.0
 0003501,-0.00001108,0.00033539,0.00006453,0.00163030,-0.00220574,-0.00
 411365,-0.01984827,-0.00106046,-0.00227854,-0.00268812,-0.04426598,-0.
 01535290,0.02441743,0.00382901,0.00549549,-0.00014586,0.00005032,-0.00
 002441,0.00014450,0.00000659,0.00002438,-0.00048758,-0.00005950,0.0000
 0449,0.00006426,-0.00060986,0.00001083,-0.00234823,0.00127209,0.000910
 55,0.00053349,0.00029046,-0.00049750,0.00031146,0.00041711,-0.00012297
 ,0.00058099,-0.00062038,0.00026126,-0.00001245,-0.00001396,-0.00003621
 ,0.00003906,-0.00035027,-0.00096720,-0.00010031,-0.00007786,-0.0000132
 2,-0.00000109,0.00000033,-0.00005361,-0.00000430,-0.00000087,-0.000002
 19,0.00001028,0.00000226,0.00001056,-0.00000060,-0.00000220,-0.0000042
 4,-0.00000077,0.00000384,0.00000148,0.00000216,-0.00000377,-0.00000961
 ,0.00000324,-0.00000310,0.00000225,-0.00000561,-0.00000102,-0.00000021
 ,-0.00005111,0.00007844,-0.00013799,0.00107372,-0.00001585,0.00022934,
 -0.00091581,-0.00022605,0.00208912,-0.00016153,0.04599466,-0.00004754,
 -0.00000055,-0.00005688,-0.00014301,-0.00005378,0.00007699,-0.00043694
 ,-0.00037208,0.00040829,0.00025814,0.00001150,-0.00002703,0.00003570,0
 .00010256,-0.00002482,-0.00006527,-0.00007989,-0.00005331,0.00073203,-
 0.00050129,-0.00041558,-0.00010104,-0.00005772,-0.00066698,-0.00011168
 ,-0.00001417,0.00014170,-0.00006711,0.00017826,0.00002567,-0.00242519,
 -0.00107530,0.00199055,0.00453484,-0.00247319,-0.00214277,0.00012146,0
 .00015282,-0.00057566,0.00042581,-0.00039857,0.00012570,0.00007880,0.0
 0001500,-0.00000150,-0.00011002,0.00003095,0.00005471,-0.00018752,0.00
 009752,-0.00012063,-0.00015452,0.00001349,-0.00013647,0.00125482,-0.00
 290887,0.00377918,-0.01908242,-0.00092712,-0.00459588,-0.06618007,-0.0
 1368546,-0.04547254,0.00741956,0.00058636,0.00637930,0.00011700,0.0000
 3219,-0.00001331,-0.00003877,-0.00006642,0.00003036,0.00032044,0.00006
 635,0.00000986,0.00017247,0.00035092,0.00004527,0.00002211,0.00012822,
 -0.00048293,0.00010456,-0.00182165,-0.00033709,-0.00021520,-0.00016513
 ,-0.00000113,0.00014531,0.00042707,-0.00015107,0.00001569,-0.00003501,
 0.00000010,0.00077664,-0.00076450,-0.00160654,0.00020954,0.00052587,0.
 00053551,-0.00000444,0.00006145,0.00000876,-0.00000537,0.00000494,0.00
 000107,0.00000195,0.00000112,-0.00001404,0.00000231,0.00000581,0.00000
 231,-0.00000319,0.00000575,0.00001741,0.00000589,-0.00000299,0.0000151
 3,0.00000421,0.00001002,-0.00001792,-0.00001242,-0.00000744,0.00000314
 ,-0.00006976,-0.00010135,0.00019732,0.00051654,0.00006242,-0.00001427,
 0.00072387,0.00203310,-0.00263699,0.07099029,0.01908659,0.04434002,-0.
 00034272,-0.00014598,-0.00006630,0.00036184,0.00023537,0.00002115,0.00
 048247,-0.00002343,-0.00017755,-0.00017558,0.00023478,0.00001037,0.000
 41099,0.00027342,-0.00010014,-0.00018333,0.00006132,-0.00000793,-0.001
 04475,0.00143599,0.00023783,-0.00117673,-0.00190262,-0.00077423,0.0004
 9158,0.00042926,0.00002938,-0.00003991,-0.00033034,-0.00004521,0.00147
 316,-0.00324367,-0.00516847,-0.00320419,-0.00757849,0.00759881,-0.0042
 5729,0.01205865,0.00446438,0.00327328,-0.00049590,0.00071378,0.0002589
 7,0.00002372,0.00002335,-0.00026426,0.00000639,-0.00010710,0.00099090,
 -0.00009560,-0.00030584,-0.00044770,0.00044015,0.00071271,-0.00090101,
 0.00011691,-0.00073984,-0.00222228,-0.00374902,0.03764586,-0.00148360,
 -0.01298343,-0.01812821,-0.00613954,0.00106015,-0.00020163,0.00042166,
 -0.00017241,0.00005339,-0.00041193,-0.00023509,0.00002934,0.00009098,0
 .00056285,0.00048565,-0.00178125,-0.00072452,0.00007336,-0.00460593,0.
 01476919,-0.01100203,0.00071878,0.00187071,-0.00001336,-0.00052461,-0.
 00040384,0.00007685,-0.00025885,0.00041909,-0.00028848,0.00001385,0.00
 000479,0.00005046,-0.00097541,-0.00033334,0.00008414,-0.00156228,-0.00
 101958,0.00103090,0.00000902,-0.00007266,0.00006926,-0.00001201,-0.000
 00371,-0.00001571,-0.00000533,0.00001401,0.00000022,-0.00001032,0.0000
 2192,0.00000826,-0.00000696,0.00001547,0.00000313,0.00002389,0.0000458
 3,-0.00001138,0.00003965,0.00001042,0.00000583,0.00002741,-0.00001304,
 0.00000682,0.00031472,-0.00006671,0.00014716,-0.00008372,-0.00025059,-
 0.00023897,-0.00028734,-0.00002750,0.00037899,-0.00046481,-0.00084294,
 0.00047150,0.02347048,0.00027733,0.00013108,-0.00009222,0.00008175,-0.
 00000172,0.00011248,0.00017744,-0.00003885,-0.00014172,0.00016377,0.00
 024256,-0.00001149,-0.00029557,0.00008378,-0.00003964,0.00005959,-0.00
 032545,0.00010866,-0.00028371,0.00003196,-0.00062774,0.00007207,0.0007
 2141,0.00008356,-0.00016007,-0.00002614,0.00008693,-0.00002404,0.00010
 186,-0.00001730,-0.00000754,0.00004587,0.00024736,-0.01237424,-0.00647
 948,0.01365437,0.00505756,-0.00165778,-0.00280632,-0.00238791,-0.00174
 439,-0.00150507,-0.00016974,0.00003199,0.00001064,0.00011062,-0.000062
 26,0.00002528,0.00019968,0.00035813,-0.00002444,0.00003612,-0.00024430
 ,0.00036969,-0.00264931,0.00031612,-0.00154637,0.00244953,-0.05892443,
 0.08633337,-0.00233466,0.00345337,-0.00987050,0.00799062,-0.00510587,-
 0.00164876,-0.00012377,-0.00004290,-0.00000058,0.00010313,0.00015451,0
 .00003533,-0.00058121,-0.00046677,-0.00058330,0.00203289,-0.00084566,-
 0.00034713,0.00570229,-0.01829944,0.01414558,-0.00227626,0.00113319,-0
 .00093117,0.00047995,0.00031850,-0.00006820,0.00002625,-0.00081356,0.0
 0013230,-0.00006910,0.00006900,0.00006765,-0.00034992,0.00055836,0.000
 29987,-0.00059036,0.00011212,-0.00067108,0.00000401,0.00002271,-0.0000
 1372,0.00000159,-0.00002184,0.00005555,-0.00001282,0.00000306,-0.00000
 723,-0.00000568,0.00000853,-0.00000475,-0.00000613,0.00002115,0.000014
 01,0.00001758,0.00001506,-0.00002156,0.00002343,0.00001290,0.00000074,
 0.00001224,-0.00001156,-0.00003352,-0.00005210,-0.00011610,0.00015625,
 -0.00016809,-0.00008288,0.00005522,-0.00029586,-0.00002187,0.00053634,
 -0.00046534,0.00000190,0.00152217,0.00060401,0.08738415,0.00011513,-0.
 00004900,-0.00021254,0.00007272,-0.00004674,0.00030249,0.00007784,0.00
 040319,-0.00017721,-0.00012266,-0.00018072,0.00019335,0.00002703,0.000
 00881,-0.00006913,-0.00016869,0.00009685,-0.00006422,0.00063525,-0.001
 52444,-0.00116614,-0.00006174,0.00123423,-0.00001091,-0.00040365,-0.00
 007922,0.00002739,-0.00008528,0.00020698,0.00003039,-0.00307575,-0.003
 44464,0.00022907,0.00778895,0.01483835,-0.02423055,0.00529577,-0.00025
 372,0.00513098,-0.00278389,-0.00381346,-0.00037088,-0.00006739,-0.0000
 3808,0.00002019,0.00003177,0.00016611,-0.00007836,0.00030088,-0.000188
 31,-0.00012779,-0.00072052,-0.00025029,0.00067964,-0.00108761,0.002626
 59,-0.00071370,0.01452826,0.09753430,-0.17578170,-0.00005376,-0.003192
 48,-0.02131825,-0.00134213,-0.00293747,-0.00005283,-0.00004344,-0.0000
 2946,-0.00000540,0.00003421,0.00005724,-0.00006363,0.00010637,-0.00006
 256,-0.00002127,-0.00012180,-0.00054525,-0.00019271,-0.00040869,-0.001
 33478,0.00354074,0.00200896,0.00014714,0.00004624,0.00013050,-0.000389
 88,0.00017915,-0.00067285,0.00016123,0.00030712,-0.00006492,0.00003602
 ,-0.00006695,-0.00039006,-0.00040724,0.00009716,-0.00136862,-0.0005407
 1,0.00262841,-0.00003053,-0.00003957,-0.00002480,-0.00001319,0.0000144
 7,0.00000991,-0.00000084,0.00002223,0.00003584,0.00000028,0.00000914,-
 0.00001444,0.00000381,0.00003834,0.00006988,0.00001903,0.00001704,0.00
 000644,0.00002539,0.00001152,-0.00000154,0.00000450,-0.00001669,-0.000
 00917,0.00006327,0.00007245,-0.00031717,-0.00011761,-0.00025139,0.0000
 6716,-0.00027040,-0.00023530,0.00066136,-0.00075342,-0.00081130,0.0013
 7698,-0.01704049,-0.09703952,0.20945140\\0.00000475,-0.00001396,0.0000
 0304,0.00000789,0.00001912,0.00001626,0.00000817,-0.00000621,0.0000108
 9,-0.00001470,0.00000901,0.00000645,0.00000140,0.00000249,-0.00000170,
 0.00000683,-0.00000717,-0.00000072,0.00000255,-0.00001321,-0.00000521,
 -0.00002463,-0.00000284,0.00000470,0.00001360,0.00000551,-0.00000520,0
 .00000385,-0.00001766,-0.00000917,0.00000356,0.00002847,-0.00002082,0.
 00003888,-0.00001084,-0.00000907,-0.00002518,0.00001642,0.00000677,0.0
 0001312,0.00000479,-0.00000096,-0.00001158,-0.00000277,0.00000133,0.00
 001250,0.00000696,0.00000045,0.00000751,-0.00000340,-0.00000311,-0.000
 00854,-0.00001438,0.00000863,-0.00000770,-0.00000605,-0.00000711,-0.00
 003626,-0.00005749,-0.00001365,-0.00000152,0.00002776,0.00001148,0.000
 00063,0.00000330,-0.00000427,-0.00000413,0.00000261,0.00000316,0.00000
 890,0.00000471,-0.00000024,0.00000108,-0.00000166,0.00000462,-0.000010
 87,-0.00001002,-0.00000303,0.00001031,0.00002562,0.00000253,-0.0000065
 9,-0.00000304,0.00000159,0.00000118,0.00000698,-0.00000064,0.00000108,
 -0.00000225,0.00000106,-0.00000040,0.00000251,-0.00000032,0.00000074,-
 0.00000116,-0.00000385,-0.00000271,-0.00000880,0.00000488,0.00000130,0
 .00000238,0.00000172,0.00000072,0.00000282,0.00000357,0.00000207,0.000
 00155,0.00000227,0.00000540,0.00000110,0.00000297,0.00000112,-0.000001
 58,0.00000361,0.00000182,-0.00000414,0.00000250,-0.00000003,-0.0000001
 1,0.00000129,-0.00000225,-0.00000394,0.00000074,-0.00000278,-0.0000009
 8,-0.00000304,-0.00000290,0.00000055,-0.00000596,-0.00000170,-0.000000
 01,-0.00000235,-0.00000182,0.00000178,-0.00000829,0.00000533,0.0000172
 6,0.00000220\\\@


 IF YOU BELIEVE CERTAIN WORDS, YOU BELIEVE THEIR HIDDEN ARGUMENTS.
 WHEN YOU BELIEVE SOMETHING IS RIGHT OR WRONG, TRUE OR FALSE, 
 YOU BELIEVE THE ASSUMPTIONS IN THE WORDS WHICH EXPRESS THE ARGUMENTS.
 SUCH ASSUMPTIONS ARE OFTEN FULL OF HOLES, BUT REMAIN MOST PRECIOUS 
 TO THE CONVINCED.

                 -- THE OPEN-ENDED PROOF FROM THE PANOPLIA PROPHETICA
                    CHILDREN OF DUNE BY FRANK HERBERT
 Job cpu time:       1 days  1 hours 42 minutes 49.0 seconds.
 Elapsed time:       0 days  1 hours 17 minutes 21.5 seconds.
 File lengths (MBytes):  RWF=   2289 Int=      0 D2E=      0 Chk=     53 Scr=      1
 Normal termination of Gaussian 16 at Tue Aug 27 16:30:32 2019.
