 Entering Gaussian System, Link 0=/share/apps/gaussian16/g16/g16
 Initial command:
 /share/apps/gaussian16/g16/l1.exe "/home/amen01//scratch/983/Gau-26347.inp" -scrdir="/home/amen01//scratch/983/"
 Entering Link 1 = /share/apps/gaussian16/g16/l1.exe PID=     26348.
  
 Copyright (c) 1988-2017, Gaussian, Inc.  All Rights Reserved.
  
 This is part of the Gaussian(R) 16 program.  It is based on
 the Gaussian(R) 09 system (copyright 2009, Gaussian, Inc.),
 the Gaussian(R) 03 system (copyright 2003, Gaussian, Inc.),
 the Gaussian(R) 98 system (copyright 1998, Gaussian, Inc.),
 the Gaussian(R) 94 system (copyright 1995, Gaussian, Inc.),
 the Gaussian 92(TM) system (copyright 1992, Gaussian, Inc.),
 the Gaussian 90(TM) system (copyright 1990, Gaussian, Inc.),
 the Gaussian 88(TM) system (copyright 1988, Gaussian, Inc.),
 the Gaussian 86(TM) system (copyright 1986, Carnegie Mellon
 University), and the Gaussian 82(TM) system (copyright 1983,
 Carnegie Mellon University). Gaussian is a federally registered
 trademark of Gaussian, Inc.
  
 This software contains proprietary and confidential information,
 including trade secrets, belonging to Gaussian, Inc.
  
 This software is provided under written license and may be
 used, copied, transmitted, or stored only in accord with that
 written license.
  
 The following legend is applicable only to US Government
 contracts under FAR:
  
                    RESTRICTED RIGHTS LEGEND
  
 Use, reproduction and disclosure by the US Government is
 subject to restrictions as set forth in subparagraphs (a)
 and (c) of the Commercial Computer Software - Restricted
 Rights clause in FAR 52.227-19.
  
 Gaussian, Inc.
 340 Quinnipiac St., Bldg. 40, Wallingford CT 06492
  
  
 ---------------------------------------------------------------
 Warning -- This program may not be used in any manner that
 competes with the business of Gaussian, Inc. or will provide
 assistance to any competitor of Gaussian, Inc.  The licensee
 of this program is prohibited from giving any competitor of
 Gaussian, Inc. access to this program.  By using this program,
 the user acknowledges that Gaussian, Inc. is engaged in the
 business of creating and licensing software in the field of
 computational chemistry and represents and warrants to the
 licensee that it is not a competitor of Gaussian, Inc. and that
 it will not use this program in any manner prohibited above.
 ---------------------------------------------------------------
  

 Cite this work as:
 Gaussian 16, Revision B.01,
 M. J. Frisch, G. W. Trucks, H. B. Schlegel, G. E. Scuseria, 
 M. A. Robb, J. R. Cheeseman, G. Scalmani, V. Barone, 
 G. A. Petersson, H. Nakatsuji, X. Li, M. Caricato, A. V. Marenich, 
 J. Bloino, B. G. Janesko, R. Gomperts, B. Mennucci, H. P. Hratchian, 
 J. V. Ortiz, A. F. Izmaylov, J. L. Sonnenberg, D. Williams-Young, 
 F. Ding, F. Lipparini, F. Egidi, J. Goings, B. Peng, A. Petrone, 
 T. Henderson, D. Ranasinghe, V. G. Zakrzewski, J. Gao, N. Rega, 
 G. Zheng, W. Liang, M. Hada, M. Ehara, K. Toyota, R. Fukuda, 
 J. Hasegawa, M. Ishida, T. Nakajima, Y. Honda, O. Kitao, H. Nakai, 
 T. Vreven, K. Throssell, J. A. Montgomery, Jr., J. E. Peralta, 
 F. Ogliaro, M. J. Bearpark, J. J. Heyd, E. N. Brothers, K. N. Kudin, 
 V. N. Staroverov, T. A. Keith, R. Kobayashi, J. Normand, 
 K. Raghavachari, A. P. Rendell, J. C. Burant, S. S. Iyengar, 
 J. Tomasi, M. Cossi, J. M. Millam, M. Klene, C. Adamo, R. Cammi, 
 J. W. Ochterski, R. L. Martin, K. Morokuma, O. Farkas, 
 J. B. Foresman, and D. J. Fox, Gaussian, Inc., Wallingford CT, 2016.
 
 ******************************************
 Gaussian 16:  ES64L-G16RevB.01 20-Dec-2017
                30-Aug-2019 
 ******************************************
 %nprocshared=20
 Will use up to   20 processors via shared memory.
 %mem=180GB
 %chk=7-memb-dir-2bcis.chk
 -------------------------------------------
 # opt freq b3lyp/6-311+g(d,p) int=grid=fine
 -------------------------------------------
 1/18=20,19=15,26=3,38=1/1,3;
 2/9=110,12=2,17=6,18=5,40=1/2;
 3/5=4,6=6,7=111,11=2,25=1,30=1,71=1,74=-5,75=-4/1,2,3;
 4//1;
 5/5=2,38=5/2;
 6/7=2,8=2,9=2,10=2,28=1/1;
 7//1,2,3,16;
 1/18=20,19=15,26=3/3(2);
 2/9=110/2;
 99//99;
 2/9=110/2;
 3/5=4,6=6,7=111,11=2,25=1,30=1,71=1,74=-5,75=-4/1,2,3;
 4/5=5,16=3,69=1/1;
 5/5=2,38=5/2;
 7//1,2,3,16;
 1/18=20,19=15,26=3/3(-5);
 2/9=110/2;
 6/7=2,8=2,9=2,10=2,19=2,28=1/1;
 99/9=1/99;
 ----------------
 7-memb-dir-2bcis
 ----------------
 Symbolic Z-matrix:
 Charge =  0 Multiplicity = 1
 C                    -1.62551  -2.71351   0.02762 
 C                    -1.47516  -1.42346  -0.44323 
 C                    -2.56467  -0.55541  -0.56245 
 C                    -3.86127  -0.87671  -0.17922 
 C                    -2.98588  -3.13536   0.2541 
 C                    -4.05695  -2.25896   0.16276 
 C                    -2.04937   0.74929  -0.64212 
 C                    -2.8206    1.83083  -0.24146 
 C                    -4.2097    1.54938   0.00368 
 C                    -4.71871   0.2561    0.02079 
 C                    -0.61394   0.67964  -0.62821 
 C                     0.12174   1.97451  -0.53996 
 C                    -0.71783   3.0422    0.19132 
 C                    -2.08968   3.00976   0.18002 
 C                    -0.4042   -3.38571   0.37443 
 C                     0.82358  -2.74155   0.30539 
 C                     0.97157  -1.34281  -0.13987 
 C                    -0.24983  -0.65803  -0.47218 
 C                     0.02031   4.05844   0.89251 
 C                     1.55459   1.82295  -0.09504 
 C                     2.10628   2.76813   0.68951 
 C                     1.34504   3.91278   1.15379 
 C                     2.02573  -3.4232    0.71496 
 C                     3.23548  -2.81952   0.66986 
 C                     3.39341  -1.47125   0.1759 
 C                     2.21319  -0.7353   -0.19896 
 C                     2.35721   0.69036  -0.76245 
 C                     3.78594   1.11223  -0.97126 
 C                     4.65071  -0.92239   0.01844 
 C                     4.83803   0.36076  -0.58564 
 H                     5.84867   0.71771  -0.75392 
 H                     3.94013   2.07192  -1.45149 
 H                     1.90232   0.62423  -1.76822 
 H                     5.51956  -1.50007   0.31451 
 H                     4.1282   -3.35391   0.97747 
 H                     1.93844  -4.44619   1.06609 
 H                    -0.43321  -4.40533   0.74608 
 H                    -3.17355  -4.15562   0.57357 
 H                    -5.04907  -2.61626   0.41988 
 H                    -5.76271   0.10805   0.27801 
 H                    -4.87051   2.3698    0.26551 
 H                    -2.63227   3.82731   0.6461 
 H                    -0.52551   4.90566   1.29583 
 H                     1.85639   4.65606   1.75572 
 H                     3.15102   2.69541   0.97361 
 H                     0.16502   2.37619  -1.57701 
 

 GradGradGradGradGradGradGradGradGradGradGradGradGradGradGradGradGradGrad
 Berny optimization.
 Initialization pass.
                           ----------------------------
                           !    Initial Parameters    !
                           ! (Angstroms and Degrees)  !
 --------------------------                            --------------------------
 ! Name  Definition              Value          Derivative Info.                !
 --------------------------------------------------------------------------------
 ! R1    R(1,2)                  1.3815         estimate D2E/DX2                !
 ! R2    R(1,5)                  1.4422         estimate D2E/DX2                !
 ! R3    R(1,15)                 1.4366         estimate D2E/DX2                !
 ! R4    R(2,3)                  1.3981         estimate D2E/DX2                !
 ! R5    R(2,18)                 1.445          estimate D2E/DX2                !
 ! R6    R(3,4)                  1.3897         estimate D2E/DX2                !
 ! R7    R(3,7)                  1.405          estimate D2E/DX2                !
 ! R8    R(4,6)                  1.4373         estimate D2E/DX2                !
 ! R9    R(4,10)                 1.4347         estimate D2E/DX2                !
 ! R10   R(5,6)                  1.3869         estimate D2E/DX2                !
 ! R11   R(5,38)                 1.0855         estimate D2E/DX2                !
 ! R12   R(6,39)                 1.0854         estimate D2E/DX2                !
 ! R13   R(7,8)                  1.3875         estimate D2E/DX2                !
 ! R14   R(7,11)                 1.4372         estimate D2E/DX2                !
 ! R15   R(8,9)                  1.4384         estimate D2E/DX2                !
 ! R16   R(8,14)                 1.4497         estimate D2E/DX2                !
 ! R17   R(9,10)                 1.3899         estimate D2E/DX2                !
 ! R18   R(9,41)                 1.0855         estimate D2E/DX2                !
 ! R19   R(10,40)                1.0854         estimate D2E/DX2                !
 ! R20   R(11,12)                1.4919         estimate D2E/DX2                !
 ! R21   R(11,18)                1.3951         estimate D2E/DX2                !
 ! R22   R(12,13)                1.5426         estimate D2E/DX2                !
 ! R23   R(12,20)                1.508          estimate D2E/DX2                !
 ! R24   R(12,46)                1.113          estimate D2E/DX2                !
 ! R25   R(13,14)                1.3723         estimate D2E/DX2                !
 ! R26   R(13,19)                1.4385         estimate D2E/DX2                !
 ! R27   R(14,42)                1.0863         estimate D2E/DX2                !
 ! R28   R(15,16)                1.3882         estimate D2E/DX2                !
 ! R29   R(15,37)                1.0856         estimate D2E/DX2                !
 ! R30   R(16,17)                1.4753         estimate D2E/DX2                !
 ! R31   R(16,23)                1.4414         estimate D2E/DX2                !
 ! R32   R(17,18)                1.4392         estimate D2E/DX2                !
 ! R33   R(17,26)                1.3835         estimate D2E/DX2                !
 ! R34   R(19,22)                1.3581         estimate D2E/DX2                !
 ! R35   R(19,43)                1.0855         estimate D2E/DX2                !
 ! R36   R(20,21)                1.3466         estimate D2E/DX2                !
 ! R37   R(20,27)                1.5403         estimate D2E/DX2                !
 ! R38   R(21,22)                1.451          estimate D2E/DX2                !
 ! R39   R(21,45)                1.0851         estimate D2E/DX2                !
 ! R40   R(22,44)                1.0846         estimate D2E/DX2                !
 ! R41   R(23,24)                1.3528         estimate D2E/DX2                !
 ! R42   R(23,36)                1.0851         estimate D2E/DX2                !
 ! R43   R(24,25)                1.4446         estimate D2E/DX2                !
 ! R44   R(24,35)                1.085          estimate D2E/DX2                !
 ! R45   R(25,26)                1.4405         estimate D2E/DX2                !
 ! R46   R(25,29)                1.3809         estimate D2E/DX2                !
 ! R47   R(26,27)                1.5397         estimate D2E/DX2                !
 ! R48   R(27,28)                1.5043         estimate D2E/DX2                !
 ! R49   R(27,33)                1.1058         estimate D2E/DX2                !
 ! R50   R(28,30)                1.3492         estimate D2E/DX2                !
 ! R51   R(28,32)                1.0842         estimate D2E/DX2                !
 ! R52   R(29,30)                1.4306         estimate D2E/DX2                !
 ! R53   R(29,34)                1.0846         estimate D2E/DX2                !
 ! R54   R(30,31)                1.0849         estimate D2E/DX2                !
 ! A1    A(2,1,5)              115.4247         estimate D2E/DX2                !
 ! A2    A(2,1,15)             115.2585         estimate D2E/DX2                !
 ! A3    A(5,1,15)             128.8408         estimate D2E/DX2                !
 ! A4    A(1,2,3)              121.6027         estimate D2E/DX2                !
 ! A5    A(1,2,18)             126.4231         estimate D2E/DX2                !
 ! A6    A(3,2,18)             109.2808         estimate D2E/DX2                !
 ! A7    A(2,3,4)              124.0555         estimate D2E/DX2                !
 ! A8    A(2,3,7)              107.1917         estimate D2E/DX2                !
 ! A9    A(4,3,7)              124.9257         estimate D2E/DX2                !
 ! A10   A(3,4,6)              114.5181         estimate D2E/DX2                !
 ! A11   A(3,4,10)             114.424          estimate D2E/DX2                !
 ! A12   A(6,4,10)             130.1494         estimate D2E/DX2                !
 ! A13   A(1,5,6)              122.2271         estimate D2E/DX2                !
 ! A14   A(1,5,38)             118.9629         estimate D2E/DX2                !
 ! A15   A(6,5,38)             118.6729         estimate D2E/DX2                !
 ! A16   A(4,6,5)              121.2129         estimate D2E/DX2                !
 ! A17   A(4,6,39)             119.8271         estimate D2E/DX2                !
 ! A18   A(5,6,39)             118.8343         estimate D2E/DX2                !
 ! A19   A(3,7,8)              120.2389         estimate D2E/DX2                !
 ! A20   A(3,7,11)             108.7089         estimate D2E/DX2                !
 ! A21   A(8,7,11)             126.1682         estimate D2E/DX2                !
 ! A22   A(7,8,9)              115.6898         estimate D2E/DX2                !
 ! A23   A(7,8,14)             115.951          estimate D2E/DX2                !
 ! A24   A(9,8,14)             126.6181         estimate D2E/DX2                !
 ! A25   A(8,9,10)             122.536          estimate D2E/DX2                !
 ! A26   A(8,9,41)             118.7587         estimate D2E/DX2                !
 ! A27   A(10,9,41)            118.5114         estimate D2E/DX2                !
 ! A28   A(4,10,9)             120.9357         estimate D2E/DX2                !
 ! A29   A(4,10,40)            120.0124         estimate D2E/DX2                !
 ! A30   A(9,10,40)            118.8219         estimate D2E/DX2                !
 ! A31   A(7,11,12)            116.8103         estimate D2E/DX2                !
 ! A32   A(7,11,18)            107.9522         estimate D2E/DX2                !
 ! A33   A(12,11,18)           134.1787         estimate D2E/DX2                !
 ! A34   A(11,12,13)           111.124          estimate D2E/DX2                !
 ! A35   A(11,12,20)           113.5018         estimate D2E/DX2                !
 ! A36   A(11,12,46)           106.0992         estimate D2E/DX2                !
 ! A37   A(13,12,20)           116.5413         estimate D2E/DX2                !
 ! A38   A(13,12,46)           102.3034         estimate D2E/DX2                !
 ! A39   A(20,12,46)           105.9174         estimate D2E/DX2                !
 ! A40   A(12,13,14)           121.5895         estimate D2E/DX2                !
 ! A41   A(12,13,19)           116.1529         estimate D2E/DX2                !
 ! A42   A(14,13,19)           122.2545         estimate D2E/DX2                !
 ! A43   A(8,14,13)            121.7103         estimate D2E/DX2                !
 ! A44   A(8,14,42)            119.0077         estimate D2E/DX2                !
 ! A45   A(13,14,42)           118.556          estimate D2E/DX2                !
 ! A46   A(1,15,16)            121.5184         estimate D2E/DX2                !
 ! A47   A(1,15,37)            119.9597         estimate D2E/DX2                !
 ! A48   A(16,15,37)           118.4551         estimate D2E/DX2                !
 ! A49   A(15,16,17)           122.933          estimate D2E/DX2                !
 ! A50   A(15,16,23)           120.2695         estimate D2E/DX2                !
 ! A51   A(17,16,23)           116.7727         estimate D2E/DX2                !
 ! A52   A(16,17,18)           115.8278         estimate D2E/DX2                !
 ! A53   A(16,17,26)           121.2794         estimate D2E/DX2                !
 ! A54   A(18,17,26)           122.8774         estimate D2E/DX2                !
 ! A55   A(2,18,11)            106.7873         estimate D2E/DX2                !
 ! A56   A(2,18,17)            117.5799         estimate D2E/DX2                !
 ! A57   A(11,18,17)           134.7137         estimate D2E/DX2                !
 ! A58   A(13,19,22)           121.2341         estimate D2E/DX2                !
 ! A59   A(13,19,43)           118.325          estimate D2E/DX2                !
 ! A60   A(22,19,43)           120.1783         estimate D2E/DX2                !
 ! A61   A(12,20,21)           119.3827         estimate D2E/DX2                !
 ! A62   A(12,20,27)           116.1799         estimate D2E/DX2                !
 ! A63   A(21,20,27)           123.7182         estimate D2E/DX2                !
 ! A64   A(20,21,22)           121.6835         estimate D2E/DX2                !
 ! A65   A(20,21,45)           119.9972         estimate D2E/DX2                !
 ! A66   A(22,21,45)           118.308          estimate D2E/DX2                !
 ! A67   A(19,22,21)           122.3314         estimate D2E/DX2                !
 ! A68   A(19,22,44)           119.5493         estimate D2E/DX2                !
 ! A69   A(21,22,44)           118.0916         estimate D2E/DX2                !
 ! A70   A(16,23,24)           121.6916         estimate D2E/DX2                !
 ! A71   A(16,23,36)           118.08           estimate D2E/DX2                !
 ! A72   A(24,23,36)           120.2284         estimate D2E/DX2                !
 ! A73   A(23,24,25)           121.7141         estimate D2E/DX2                !
 ! A74   A(23,24,35)           120.4363         estimate D2E/DX2                !
 ! A75   A(25,24,35)           117.8198         estimate D2E/DX2                !
 ! A76   A(24,25,26)           118.4405         estimate D2E/DX2                !
 ! A77   A(24,25,29)           120.6313         estimate D2E/DX2                !
 ! A78   A(26,25,29)           120.8801         estimate D2E/DX2                !
 ! A79   A(17,26,25)           119.9881         estimate D2E/DX2                !
 ! A80   A(17,26,27)           120.4071         estimate D2E/DX2                !
 ! A81   A(25,26,27)           119.4487         estimate D2E/DX2                !
 ! A82   A(20,27,26)           118.2636         estimate D2E/DX2                !
 ! A83   A(20,27,28)           110.4174         estimate D2E/DX2                !
 ! A84   A(20,27,33)           102.9278         estimate D2E/DX2                !
 ! A85   A(26,27,28)           113.535          estimate D2E/DX2                !
 ! A86   A(26,27,33)           103.8279         estimate D2E/DX2                !
 ! A87   A(28,27,33)           106.3324         estimate D2E/DX2                !
 ! A88   A(27,28,30)           123.0081         estimate D2E/DX2                !
 ! A89   A(27,28,32)           116.4117         estimate D2E/DX2                !
 ! A90   A(30,28,32)           120.5793         estimate D2E/DX2                !
 ! A91   A(25,29,30)           121.5936         estimate D2E/DX2                !
 ! A92   A(25,29,34)           119.1154         estimate D2E/DX2                !
 ! A93   A(30,29,34)           119.2182         estimate D2E/DX2                !
 ! A94   A(28,30,29)           121.2098         estimate D2E/DX2                !
 ! A95   A(28,30,31)           119.9215         estimate D2E/DX2                !
 ! A96   A(29,30,31)           118.853          estimate D2E/DX2                !
 ! D1    D(5,1,2,3)              5.9709         estimate D2E/DX2                !
 ! D2    D(5,1,2,18)           165.3299         estimate D2E/DX2                !
 ! D3    D(15,1,2,3)          -166.8245         estimate D2E/DX2                !
 ! D4    D(15,1,2,18)           -7.4655         estimate D2E/DX2                !
 ! D5    D(2,1,5,6)             -7.5344         estimate D2E/DX2                !
 ! D6    D(2,1,5,38)           176.7815         estimate D2E/DX2                !
 ! D7    D(15,1,5,6)           164.0924         estimate D2E/DX2                !
 ! D8    D(15,1,5,38)          -11.5917         estimate D2E/DX2                !
 ! D9    D(2,1,15,16)            3.4434         estimate D2E/DX2                !
 ! D10   D(2,1,15,37)         -179.5727         estimate D2E/DX2                !
 ! D11   D(5,1,15,16)         -168.1949         estimate D2E/DX2                !
 ! D12   D(5,1,15,37)            8.7889         estimate D2E/DX2                !
 ! D13   D(1,2,3,4)              2.6482         estimate D2E/DX2                !
 ! D14   D(1,2,3,7)            161.4715         estimate D2E/DX2                !
 ! D15   D(18,2,3,4)          -159.8639         estimate D2E/DX2                !
 ! D16   D(18,2,3,7)            -1.0406         estimate D2E/DX2                !
 ! D17   D(1,2,18,11)         -162.2275         estimate D2E/DX2                !
 ! D18   D(1,2,18,17)            8.4082         estimate D2E/DX2                !
 ! D19   D(3,2,18,11)           -0.774          estimate D2E/DX2                !
 ! D20   D(3,2,18,17)          169.8617         estimate D2E/DX2                !
 ! D21   D(2,3,4,6)             -9.3988         estimate D2E/DX2                !
 ! D22   D(2,3,4,10)           160.8215         estimate D2E/DX2                !
 ! D23   D(7,3,4,6)           -164.5064         estimate D2E/DX2                !
 ! D24   D(7,3,4,10)             5.7139         estimate D2E/DX2                !
 ! D25   D(2,3,7,8)           -154.2951         estimate D2E/DX2                !
 ! D26   D(2,3,7,11)             2.4305         estimate D2E/DX2                !
 ! D27   D(4,3,7,8)              4.2952         estimate D2E/DX2                !
 ! D28   D(4,3,7,11)           161.0208         estimate D2E/DX2                !
 ! D29   D(3,4,6,5)              7.5907         estimate D2E/DX2                !
 ! D30   D(3,4,6,39)          -176.5323         estimate D2E/DX2                !
 ! D31   D(10,4,6,5)          -160.7356         estimate D2E/DX2                !
 ! D32   D(10,4,6,39)           15.1414         estimate D2E/DX2                !
 ! D33   D(3,4,10,9)            -8.3258         estimate D2E/DX2                !
 ! D34   D(3,4,10,40)          177.2486         estimate D2E/DX2                !
 ! D35   D(6,4,10,9)           160.0093         estimate D2E/DX2                !
 ! D36   D(6,4,10,40)          -14.4163         estimate D2E/DX2                !
 ! D37   D(1,5,6,4)              0.6576         estimate D2E/DX2                !
 ! D38   D(1,5,6,39)          -175.2595         estimate D2E/DX2                !
 ! D39   D(38,5,6,4)           176.3537         estimate D2E/DX2                !
 ! D40   D(38,5,6,39)            0.4366         estimate D2E/DX2                !
 ! D41   D(3,7,8,9)            -11.139          estimate D2E/DX2                !
 ! D42   D(3,7,8,14)           154.8485         estimate D2E/DX2                !
 ! D43   D(11,7,8,9)          -163.5195         estimate D2E/DX2                !
 ! D44   D(11,7,8,14)            2.4679         estimate D2E/DX2                !
 ! D45   D(3,7,11,12)         -172.8598         estimate D2E/DX2                !
 ! D46   D(3,7,11,18)           -2.9507         estimate D2E/DX2                !
 ! D47   D(8,7,11,12)          -17.8752         estimate D2E/DX2                !
 ! D48   D(8,7,11,18)          152.0339         estimate D2E/DX2                !
 ! D49   D(7,8,9,10)             8.5237         estimate D2E/DX2                !
 ! D50   D(7,8,9,41)          -176.6164         estimate D2E/DX2                !
 ! D51   D(14,8,9,10)         -155.7372         estimate D2E/DX2                !
 ! D52   D(14,8,9,41)           19.1227         estimate D2E/DX2                !
 ! D53   D(7,8,14,13)           -0.5916         estimate D2E/DX2                !
 ! D54   D(7,8,14,42)         -170.6859         estimate D2E/DX2                !
 ! D55   D(9,8,14,13)          163.6336         estimate D2E/DX2                !
 ! D56   D(9,8,14,42)           -6.4606         estimate D2E/DX2                !
 ! D57   D(8,9,10,4)             1.4216         estimate D2E/DX2                !
 ! D58   D(8,9,10,40)          175.9123         estimate D2E/DX2                !
 ! D59   D(41,9,10,4)         -173.4504         estimate D2E/DX2                !
 ! D60   D(41,9,10,40)           1.0404         estimate D2E/DX2                !
 ! D61   D(7,11,12,13)          27.9976         estimate D2E/DX2                !
 ! D62   D(7,11,12,20)         161.6568         estimate D2E/DX2                !
 ! D63   D(7,11,12,46)         -82.4452         estimate D2E/DX2                !
 ! D64   D(18,11,12,13)       -138.5632         estimate D2E/DX2                !
 ! D65   D(18,11,12,20)         -4.904          estimate D2E/DX2                !
 ! D66   D(18,11,12,46)        110.9941         estimate D2E/DX2                !
 ! D67   D(7,11,18,2)            2.242          estimate D2E/DX2                !
 ! D68   D(7,11,18,17)        -166.0486         estimate D2E/DX2                !
 ! D69   D(12,11,18,2)         169.6477         estimate D2E/DX2                !
 ! D70   D(12,11,18,17)          1.3571         estimate D2E/DX2                !
 ! D71   D(11,12,13,14)        -27.8183         estimate D2E/DX2                !
 ! D72   D(11,12,13,19)        151.5517         estimate D2E/DX2                !
 ! D73   D(20,12,13,14)       -159.9502         estimate D2E/DX2                !
 ! D74   D(20,12,13,19)         19.4198         estimate D2E/DX2                !
 ! D75   D(46,12,13,14)         85.0446         estimate D2E/DX2                !
 ! D76   D(46,12,13,19)        -95.5854         estimate D2E/DX2                !
 ! D77   D(11,12,20,21)       -144.4417         estimate D2E/DX2                !
 ! D78   D(11,12,20,27)         44.9116         estimate D2E/DX2                !
 ! D79   D(13,12,20,21)        -13.4097         estimate D2E/DX2                !
 ! D80   D(13,12,20,27)        175.9436         estimate D2E/DX2                !
 ! D81   D(46,12,20,21)         99.5531         estimate D2E/DX2                !
 ! D82   D(46,12,20,27)        -71.0936         estimate D2E/DX2                !
 ! D83   D(12,13,14,8)          14.4927         estimate D2E/DX2                !
 ! D84   D(12,13,14,42)       -175.3698         estimate D2E/DX2                !
 ! D85   D(19,13,14,8)        -164.8387         estimate D2E/DX2                !
 ! D86   D(19,13,14,42)          5.2988         estimate D2E/DX2                !
 ! D87   D(12,13,19,22)        -14.6745         estimate D2E/DX2                !
 ! D88   D(12,13,19,43)        171.2026         estimate D2E/DX2                !
 ! D89   D(14,13,19,22)        164.691          estimate D2E/DX2                !
 ! D90   D(14,13,19,43)         -9.4319         estimate D2E/DX2                !
 ! D91   D(1,15,16,17)          -0.829          estimate D2E/DX2                !
 ! D92   D(1,15,16,23)         177.2983         estimate D2E/DX2                !
 ! D93   D(37,15,16,17)       -177.8569         estimate D2E/DX2                !
 ! D94   D(37,15,16,23)          0.2705         estimate D2E/DX2                !
 ! D95   D(15,16,17,18)          1.5626         estimate D2E/DX2                !
 ! D96   D(15,16,17,26)       -179.8263         estimate D2E/DX2                !
 ! D97   D(23,16,17,18)       -176.6258         estimate D2E/DX2                !
 ! D98   D(23,16,17,26)          1.9853         estimate D2E/DX2                !
 ! D99   D(15,16,23,24)       -179.46           estimate D2E/DX2                !
 ! D100  D(15,16,23,36)          0.5065         estimate D2E/DX2                !
 ! D101  D(17,16,23,24)         -1.2204         estimate D2E/DX2                !
 ! D102  D(17,16,23,36)        178.7461         estimate D2E/DX2                !
 ! D103  D(16,17,18,2)          -4.8173         estimate D2E/DX2                !
 ! D104  D(16,17,18,11)        162.5201         estimate D2E/DX2                !
 ! D105  D(26,17,18,2)         176.5961         estimate D2E/DX2                !
 ! D106  D(26,17,18,11)        -16.0665         estimate D2E/DX2                !
 ! D107  D(16,17,26,25)          0.1269         estimate D2E/DX2                !
 ! D108  D(16,17,26,27)        175.5607         estimate D2E/DX2                !
 ! D109  D(18,17,26,25)        178.6383         estimate D2E/DX2                !
 ! D110  D(18,17,26,27)         -5.9279         estimate D2E/DX2                !
 ! D111  D(13,19,22,21)          3.1448         estimate D2E/DX2                !
 ! D112  D(13,19,22,44)       -174.9041         estimate D2E/DX2                !
 ! D113  D(43,19,22,21)        177.1599         estimate D2E/DX2                !
 ! D114  D(43,19,22,44)         -0.8891         estimate D2E/DX2                !
 ! D115  D(12,20,21,22)          1.9013         estimate D2E/DX2                !
 ! D116  D(12,20,21,45)       -176.8572         estimate D2E/DX2                !
 ! D117  D(27,20,21,22)        171.8025         estimate D2E/DX2                !
 ! D118  D(27,20,21,45)         -6.956          estimate D2E/DX2                !
 ! D119  D(12,20,27,26)        -82.9689         estimate D2E/DX2                !
 ! D120  D(12,20,27,28)        143.8837         estimate D2E/DX2                !
 ! D121  D(12,20,27,33)         30.7232         estimate D2E/DX2                !
 ! D122  D(21,20,27,26)        106.8337         estimate D2E/DX2                !
 ! D123  D(21,20,27,28)        -26.3136         estimate D2E/DX2                !
 ! D124  D(21,20,27,33)       -139.4741         estimate D2E/DX2                !
 ! D125  D(20,21,22,19)          3.9373         estimate D2E/DX2                !
 ! D126  D(20,21,22,44)       -177.9866         estimate D2E/DX2                !
 ! D127  D(45,21,22,19)       -177.2839         estimate D2E/DX2                !
 ! D128  D(45,21,22,44)          0.7922         estimate D2E/DX2                !
 ! D129  D(16,23,24,25)         -1.654          estimate D2E/DX2                !
 ! D130  D(16,23,24,35)       -179.6259         estimate D2E/DX2                !
 ! D131  D(36,23,24,25)        178.3803         estimate D2E/DX2                !
 ! D132  D(36,23,24,35)          0.4083         estimate D2E/DX2                !
 ! D133  D(23,24,25,26)          3.7853         estimate D2E/DX2                !
 ! D134  D(23,24,25,29)       -173.7158         estimate D2E/DX2                !
 ! D135  D(35,24,25,26)       -178.1917         estimate D2E/DX2                !
 ! D136  D(35,24,25,29)          4.3071         estimate D2E/DX2                !
 ! D137  D(24,25,26,17)         -2.956          estimate D2E/DX2                !
 ! D138  D(24,25,26,27)       -178.4337         estimate D2E/DX2                !
 ! D139  D(29,25,26,17)        174.5387         estimate D2E/DX2                !
 ! D140  D(29,25,26,27)         -0.939          estimate D2E/DX2                !
 ! D141  D(24,25,29,30)        174.0259         estimate D2E/DX2                !
 ! D142  D(24,25,29,34)         -2.8449         estimate D2E/DX2                !
 ! D143  D(26,25,29,30)         -3.4139         estimate D2E/DX2                !
 ! D144  D(26,25,29,34)        179.7153         estimate D2E/DX2                !
 ! D145  D(17,26,27,20)         57.9647         estimate D2E/DX2                !
 ! D146  D(17,26,27,28)       -170.2631         estimate D2E/DX2                !
 ! D147  D(17,26,27,33)        -55.2338         estimate D2E/DX2                !
 ! D148  D(25,26,27,20)       -126.5769         estimate D2E/DX2                !
 ! D149  D(25,26,27,28)          5.1952         estimate D2E/DX2                !
 ! D150  D(25,26,27,33)        120.2246         estimate D2E/DX2                !
 ! D151  D(20,27,28,30)        129.7            estimate D2E/DX2                !
 ! D152  D(20,27,28,32)        -49.9544         estimate D2E/DX2                !
 ! D153  D(26,27,28,30)         -5.7993         estimate D2E/DX2                !
 ! D154  D(26,27,28,32)        174.5463         estimate D2E/DX2                !
 ! D155  D(33,27,28,30)       -119.3325         estimate D2E/DX2                !
 ! D156  D(33,27,28,32)         61.0131         estimate D2E/DX2                !
 ! D157  D(27,28,30,29)          1.9567         estimate D2E/DX2                !
 ! D158  D(27,28,30,31)       -179.5029         estimate D2E/DX2                !
 ! D159  D(32,28,30,29)       -178.4029         estimate D2E/DX2                !
 ! D160  D(32,28,30,31)          0.1375         estimate D2E/DX2                !
 ! D161  D(25,29,30,28)          3.0216         estimate D2E/DX2                !
 ! D162  D(25,29,30,31)       -175.5341         estimate D2E/DX2                !
 ! D163  D(34,29,30,28)        179.8892         estimate D2E/DX2                !
 ! D164  D(34,29,30,31)          1.3335         estimate D2E/DX2                !
 --------------------------------------------------------------------------------
 Trust Radius=3.00D-01 FncErr=1.00D-07 GrdErr=1.00D-06 EigMax=2.50D+02 EigMin=1.00D-04
 Number of steps in this run=    276 maximum allowed number of steps=    276.
 GradGradGradGradGradGradGradGradGradGradGradGradGradGradGradGradGradGrad

                          Input orientation:                          
 ---------------------------------------------------------------------
 Center     Atomic      Atomic             Coordinates (Angstroms)
 Number     Number       Type             X           Y           Z
 ---------------------------------------------------------------------
      1          6           0       -1.625505   -2.713513    0.027623
      2          6           0       -1.475156   -1.423464   -0.443231
      3          6           0       -2.564667   -0.555407   -0.562447
      4          6           0       -3.861271   -0.876711   -0.179220
      5          6           0       -2.985884   -3.135358    0.254104
      6          6           0       -4.056951   -2.258961    0.162760
      7          6           0       -2.049367    0.749285   -0.642117
      8          6           0       -2.820602    1.830832   -0.241456
      9          6           0       -4.209698    1.549378    0.003677
     10          6           0       -4.718708    0.256097    0.020789
     11          6           0       -0.613944    0.679642   -0.628213
     12          6           0        0.121743    1.974512   -0.539962
     13          6           0       -0.717831    3.042196    0.191315
     14          6           0       -2.089683    3.009763    0.180020
     15          6           0       -0.404195   -3.385712    0.374426
     16          6           0        0.823576   -2.741551    0.305392
     17          6           0        0.971572   -1.342809   -0.139868
     18          6           0       -0.249828   -0.658032   -0.472182
     19          6           0        0.020308    4.058441    0.892507
     20          6           0        1.554593    1.822948   -0.095036
     21          6           0        2.106277    2.768131    0.689505
     22          6           0        1.345038    3.912777    1.153789
     23          6           0        2.025734   -3.423199    0.714964
     24          6           0        3.235478   -2.819524    0.669861
     25          6           0        3.393411   -1.471250    0.175904
     26          6           0        2.213187   -0.735301   -0.198955
     27          6           0        2.357209    0.690361   -0.762447
     28          6           0        3.785938    1.112227   -0.971263
     29          6           0        4.650711   -0.922387    0.018441
     30          6           0        4.838028    0.360764   -0.585638
     31          1           0        5.848666    0.717705   -0.753921
     32          1           0        3.940131    2.071919   -1.451485
     33          1           0        1.902322    0.624232   -1.768219
     34          1           0        5.519564   -1.500074    0.314509
     35          1           0        4.128204   -3.353907    0.977470
     36          1           0        1.938443   -4.446191    1.066094
     37          1           0       -0.433211   -4.405326    0.746077
     38          1           0       -3.173551   -4.155619    0.573571
     39          1           0       -5.049071   -2.616256    0.419883
     40          1           0       -5.762706    0.108046    0.278007
     41          1           0       -4.870506    2.369801    0.265514
     42          1           0       -2.632272    3.827305    0.646096
     43          1           0       -0.525507    4.905657    1.295831
     44          1           0        1.856387    4.656056    1.755718
     45          1           0        3.151016    2.695414    0.973612
     46          1           0        0.165019    2.376185   -1.577007
 ---------------------------------------------------------------------
                    Distance matrix (angstroms):
                    1          2          3          4          5
     1  C    0.000000
     2  C    1.381497   0.000000
     3  C    2.426444   1.398131   0.000000
     4  C    2.900909   2.462151   1.389705   0.000000
     5  C    1.442178   2.387291   2.738672   2.460804   0.000000
     6  C    2.477258   2.780458   2.378010   1.437309   1.386939
     7  C    3.552349   2.256128   1.405028   2.478131   4.095208
     8  C    4.706563   3.527234   2.421296   2.901319   4.993590
     9  C    4.985064   4.063894   2.730704   2.457796   4.848421
    10  C    4.287952   3.681965   2.374573   1.434732   3.815637
    11  C    3.600955   2.280123   2.309760   3.628906   4.578079
    12  C    5.035137   3.755753   3.690230   4.911620   6.033130
    13  C    5.829138   4.573654   4.113600   5.037494   6.581047
    14  C    5.744090   4.518804   3.672507   4.286287   6.210570
    15  C    1.436566   2.380323   3.681847   4.307318   2.596589
    16  C    2.464942   2.753536   4.124629   5.065597   3.830104
    17  C    2.941376   2.466782   3.647405   4.855427   4.362328
    18  C    2.523350   1.445044   2.318870   3.629899   3.761733
    19  C    7.022541   5.837113   5.485124   6.369535   7.822755
    20  C    5.541439   4.454190   4.779472   6.052010   6.732208
    21  C    6.664286   5.628430   5.867794   7.046360   7.808384
    22  C    7.348476   6.243351   6.180285   7.198733   8.321209
    23  C    3.782544   4.194829   5.561276   6.476187   5.040988
    24  C    4.904372   5.037661   6.347164   7.406707   6.243232
    25  C    5.172497   4.908009   6.073107   7.287661   6.593237
    26  C    4.324375   3.759935   4.795037   6.076136   5.744204
    27  C    5.298356   4.388300   5.081024   6.439360   6.649673
    28  C    6.702072   5.864099   6.578626   7.941222   8.087093
    29  C    6.526799   6.163641   7.248019   8.514399   7.954267
    30  C    7.183629   6.562015   7.459209   8.796268   8.610554
    31  H    8.261192   7.636721   8.511266   9.856740   9.690794
    32  H    7.487618   6.523773   7.071466   8.436525   8.831447
    33  H    5.177949   4.166054   4.774874   6.164151   6.489905
    34  H    7.253051   7.036060   8.186345   9.414479   8.661435
    35  H    5.866641   6.094477   7.416028   8.444296   7.154109
    36  H    4.096623   4.802874   6.169955   6.923054   5.160098
    37  H    2.190884   3.375145   4.590993   5.005886   2.893267
    38  H    2.184989   3.373885   3.823977   3.433787   1.085454
    39  H    3.447337   3.865306   3.374068   2.189934   2.133938
    40  H    5.014012   4.609641   3.372534   2.189579   4.269775
    41  H    6.035454   5.139998   3.815659   3.428729   5.818823
    42  H    6.646683   5.485994   4.546791   4.931465   6.982648
    43  H    7.801929   6.632039   6.118381   6.836584   8.473286
    44  H    8.331892   7.272903   7.216575   8.188230   9.295621
    45  H    7.277811   6.354059   6.752507   7.953695   8.495713
    46  H    5.629018   4.291032   4.132160   5.361544   6.607440
                    6          7          8          9         10
     6  C    0.000000
     7  C    3.705100   0.000000
     8  C    4.291661   1.387471   0.000000
     9  C    3.814720   2.392536   1.438365   0.000000
    10  C    2.604534   2.794291   2.480195   1.389950   0.000000
    11  C    4.595141   1.437179   2.518761   3.753022   4.177282
    12  C    5.989791   2.495062   2.960936   4.386076   5.166949
    13  C    6.265206   2.779395   2.465023   3.802216   4.878365
    14  C    5.624046   2.405680   1.449746   2.580365   3.810486
    15  C    3.828446   4.564882   5.781926   6.242950   5.657107
    16  C    4.906402   4.619254   5.872458   6.620948   6.307440
    17  C    5.120250   3.708798   4.945998   5.935563   5.912833
    18  C    4.178554   2.290799   3.585604   4.558472   4.587978
    19  C    7.554213   4.193941   3.784030   4.997836   6.138077
    20  C    6.943909   3.800076   4.377651   5.771623   6.467051
    21  C    7.970853   4.808153   5.100917   6.468946   7.303281
    22  C    8.261596   4.975434   4.861457   6.145202   7.171054
    23  C    6.217671   5.988133   7.211557   8.007063   7.714052
    24  C    7.331501   6.510551   7.689760   8.658045   8.552766
    25  C    7.491899   5.934961   7.049248   8.182978   8.295436
    26  C    6.462740   4.535389   5.650299   6.820137   7.005878
    27  C    7.120109   4.408612   5.327460   6.667018   7.132366
    28  C    8.611726   5.855839   6.685461   8.066710   8.605006
    29  C    8.810825   6.936993   7.966698   9.198733   9.443243
    30  C    9.302887   6.898576   7.806035   9.144476   9.576529
    31  H   10.383742   7.898887   8.755449  10.121083  10.605784
    32  H    9.236646   6.186964   6.872394   8.295195   8.968851
    33  H    6.895971   4.110911   5.108121   6.430575   6.868341
    34  H    9.607735   7.953833   8.997911  10.200702  10.391950
    35  H    8.298158   7.590891   8.755182   9.721681   9.602876
    36  H    6.445521   6.768573   7.984937   8.653047   8.217167
    37  H    4.251898   5.577549   6.750150   7.090241   6.373413
    38  H    2.132246   5.176849   6.051978   5.826266   4.707050
    39  H    1.085391   4.631731   5.017971   4.269693   2.918703
    40  H    2.919864   3.879008   3.448740   2.136476   1.085363
    41  H    4.700837   3.377675   2.179361   1.085504   2.133232
    42  H    6.269446   3.387252   2.192971   2.844280   4.183031
    43  H    8.067633   4.832517   4.133432   5.148547   6.389607
    44  H    9.237020   6.022241   5.817630   7.036937   8.099475
    45  H    8.783968   5.782904   6.155007   7.512275   8.294016
    46  H    6.506643   2.902469   3.315877   4.724439   5.558643
                   11         12         13         14         15
    11  C    0.000000
    12  C    1.491882   0.000000
    13  C    2.502814   1.542595   0.000000
    14  C    2.874110   2.545687   1.372282   0.000000
    15  C    4.192420   5.463032   6.438160   6.616703   0.000000
    16  C    3.826571   4.842359   5.986708   6.448287   1.388211
    17  C    2.615846   3.447739   4.710842   5.330900   2.516085
    18  C    1.395098   2.659501   3.788264   4.154895   2.860212
    19  C    3.759142   2.530813   1.438497   2.461590   7.474224
    20  C    2.508780   1.507975   2.594701   3.842517   5.584567
    21  C    3.673931   2.465724   2.880780   4.233679   6.653685
    22  C    4.179271   2.849932   2.437149   3.682522   7.545539
    23  C    5.060171   5.859634   7.042918   7.655444   2.453961
    24  C    5.361642   5.843098   7.086425   7.910618   3.695277
    25  C    4.618640   4.805159   6.105223   7.081230   4.257509
    26  C    3.190454   3.439987   4.797151   5.716976   3.768837
    27  C    2.974203   2.587634   3.987062   5.103207   5.052940
    28  C    4.434385   3.788916   5.035901   6.280845   6.292817
    29  C    5.540871   5.405126   6.676005   7.805179   5.634427
    30  C    5.461455   4.984939   6.217821   7.456313   6.514500
    31  H    6.463945   5.867111   7.029624   8.315237   7.563694
    32  H    4.832785   3.926888   5.033571   6.316646   7.210607
    33  H    2.763020   2.549967   4.068357   5.042073   5.098098
    34  H    6.577219   6.476059   7.717026   8.846319   6.216924
    35  H    6.429285   6.837132   8.063016   8.932768   4.572452
    36  H    5.971559   6.863326   7.993558   8.520691   2.662888
    37  H    5.270506   6.531784   7.473577   7.618915   1.085624
    38  H    5.601395   7.048221   7.614803   7.257572   2.881275
    39  H    5.624216   6.980958   7.129513   6.361415   4.708397
    40  H    5.259059   6.227320   5.836738   4.681951   6.397600
    41  H    4.666230   5.072238   4.207414   2.854792   7.285995
    42  H    3.950354   3.524794   2.118562   1.086280   7.554187
    43  H    4.644240   3.518619   2.174726   2.699277   8.343291
    44  H    5.253335   3.933169   3.417382   4.556816   8.466890
    45  H    4.561152   3.462239   3.962351   5.309758   7.069557
    46  H    2.094099   1.112958   2.085655   2.927840   6.109955
                   16         17         18         19         20
    16  C    0.000000
    17  C    1.475344   0.000000
    18  C    2.469386   1.439156   0.000000
    19  C    6.872397   5.580699   4.917364   0.000000
    20  C    4.639976   3.219307   3.090863   2.885602   0.000000
    21  C    5.670049   4.344565   4.317330   2.461174   1.346563
    22  C    6.728431   5.425330   5.106826   1.358085   2.443535
    23  C    1.441380   2.483952   3.772751   7.747786   5.329177
    24  C    2.440530   2.821634   4.257190   7.595610   4.996297
    25  C    2.869579   2.445713   3.788737   6.516811   3.782380
    26  C    2.492072   1.383534   2.479328   5.383305   2.643706
    27  C    3.907727   2.537986   2.949417   4.420853   1.540254
    28  C    5.025638   3.826104   4.435122   5.131645   2.500360
    29  C    4.247194   3.706465   4.932127   6.856622   4.139528
    30  C    5.151128   4.248571   5.190096   6.250452   3.627619
    31  H    6.191940   5.329993   6.258087   6.916719   4.482717
    32  H    5.997418   4.710950   5.095824   4.980520   2.755491
    33  H    4.097810   2.717917   2.820578   4.734473   2.087433
    34  H    4.857330   4.573338   5.883350   7.840471   5.189528
    35  H    3.427424   3.906057   5.341947   8.474959   5.879929
    36  H    2.174257   3.467011   4.637345   8.719985   6.387305
    37  H    2.131165   3.483866   3.944616   8.477174   6.591679
    38  H    4.248356   5.059935   4.677058   8.818914   7.651513
    39  H    5.875099   6.179250   5.259577   8.394853   7.973710
    40  H    7.176354   6.901456   5.616180   7.030397   7.524820
    41  H    7.651802   6.933807   5.573386   5.211975   6.458401
    42  H    7.430265   6.351024   5.200465   2.674009   4.700698
    43  H    7.828204   6.583753   5.844357   1.085523   3.970444
    44  H    7.608859   6.353151   6.135080   2.115056   3.397480
    45  H    5.951813   4.721976   4.990156   3.415517   2.109922
    46  H    5.492572   4.067777   3.255643   2.991559   2.105523
                   21         22         23         24         25
    21  C    0.000000
    22  C    1.450951   0.000000
    23  C    6.191906   7.380546   0.000000
    24  C    5.700646   7.009410   1.352752   0.000000
    25  C    4.460140   5.842931   2.443610   1.444569   0.000000
    26  C    3.615913   4.918153   2.845203   2.478690   1.440510
    27  C    2.547206   3.883351   4.383377   3.891292   2.574253
    28  C    2.884689   4.279827   5.148958   4.295924   2.853844
    29  C    4.532592   5.966180   3.691844   2.454865   1.380887
    30  C    3.857962   5.276683   4.890699   3.776066   2.454209
    31  H    4.504798   5.842132   5.824047   4.622542   3.418242
    32  H    2.903717   4.112264   6.209246   5.377998   3.937175
    33  H    3.267768   4.434323   4.750066   4.425042   3.223974
    34  H    5.478022   6.886945   4.008194   2.661630   2.130861
    35  H    6.453717   7.783431   2.119927   1.084965   2.174127
    36  H    7.226094   8.380463   1.085092   2.117864   3.429234
    37  H    7.609907   8.515823   2.648009   3.997481   4.855609
    38  H    8.707947   9.265706   5.252523   6.547524   7.105559
    39  H    8.958980   9.167962   7.126787   8.290812   8.523266
    40  H    8.316626   8.109439   8.562734   9.470561   9.291882
    41  H    7.000995   6.465508   9.017704   9.633253   9.113398
    42  H    4.855675   4.010493   8.618096   8.866306   8.037700
    43  H    3.444261   2.122481   8.730182   8.614828   7.568163
    44  H    2.182548   1.084555   8.147773   7.678885   6.511692
    45  H    1.085119   2.185405   6.226603   5.523942   4.249257
    46  H    3.009847   3.348254   6.507553   6.439839   5.319583
                   26         27         28         29         30
    26  C    0.000000
    27  C    1.539733   0.000000
    28  C    2.546245   1.504274   0.000000
    29  C    2.454340   2.910480   2.422189   0.000000
    30  C    2.870657   2.508856   1.349184   1.430551   0.000000
    31  H    3.954228   3.491574   2.111334   2.172911   1.084949
    32  H    3.525855   2.211135   1.084157   3.410495   2.117537
    33  H    2.099418   1.105836   2.102686   3.624614   3.175891
    34  H    3.432295   3.994788   3.388626   1.084566   2.176574
    35  H    3.450850   4.745507   4.884778   2.665528   4.092180
    36  H    3.930208   5.468372   6.201618   4.568497   5.851720
    37  H    4.622293   6.002342   7.154989   6.205367   7.230148
    38  H    6.427466   7.473806   8.864040   8.484164   9.269675
    39  H    7.527373   8.196621   9.689905   9.854751  10.374413
    40  H    8.034525   8.206988   9.682234  10.467494  10.638859
    41  H    7.748296   7.491134   8.834316  10.077357   9.950695
    42  H    6.708946   6.059648   7.154084   8.717532   8.327032
    43  H    6.446335   5.505931   6.174009   7.898801   7.277602
    44  H    5.745849   4.724269   4.870145   6.476527   5.729019
    45  H    3.744895   2.768441   2.586918   4.031119   3.275341
    46  H    3.971821   2.882917   3.882727   5.792017   5.184761
                   31         32         33         34         35
    31  H    0.000000
    32  H    2.441925   0.000000
    33  H    4.075680   2.519679   0.000000
    34  H    2.483625   4.286313   4.683468   0.000000
    35  H    4.747181   5.947670   5.321555   2.410829   0.000000
    36  H    6.728159   7.268474   5.808943   4.697756   2.448671
    37  H    8.243629   8.118504   6.088748   6.637942   4.686740
    38  H   10.339822   9.668896   7.354960   9.093365   7.356732
    39  H   11.456604  10.309547   7.975614  10.627935   9.223742
    40  H   11.673068  10.049527   7.950229  11.396359  10.502593
    41  H   10.893545   8.981322   7.283837  11.087465  10.688522
    42  H    9.140895   7.118828   6.054018   9.743888   9.868315
    43  H    7.897500   5.959844   5.797703   8.862238   9.485714
    44  H    6.143874   4.615832   5.354983   7.307112   8.362196
    45  H    3.764707   2.625365   3.656046   4.862772   6.127740
    46  H    5.977614   3.789433   2.474697   6.875636   7.420656
                   36         37         38         39         40
    36  H    0.000000
    37  H    2.393496   0.000000
    38  H    5.143879   2.757095   0.000000
    39  H    7.252007   4.961183   2.431221   0.000000
    40  H    8.981640   6.999510   4.996991   2.819792   0.000000
    41  H    9.667495   8.113130   6.749493   4.991641   2.431401
    42  H    9.461425   8.521859   8.001582   6.885606   4.875243
    43  H    9.673722   9.327655   9.467868   8.820946   7.175046
    44  H    9.128703   9.400547  10.214860  10.117130   8.995477
    45  H    7.244405   7.957321   9.332568   9.785800   9.307673
    46  H    7.528335   7.193295   7.644312   7.489911   6.612371
                   41         42         43         44         45
    41  H    0.000000
    42  H    2.697935   0.000000
    43  H    5.135283   2.454273   0.000000
    44  H    7.259391   4.697462   2.438691   0.000000
    45  H    8.059295   5.902107   4.301839   2.476262   0.000000
    46  H    5.362037   3.856523   3.889505   4.377853   3.940018
                   46
    46  H    0.000000
 Stoichiometry    C30H16
 Framework group  C1[X(C30H16)]
 Deg. of freedom   132
 Full point group                 C1      NOp   1
 Largest Abelian subgroup         C1      NOp   1
 Largest concise Abelian subgroup C1      NOp   1
                         Standard orientation:                         
 ---------------------------------------------------------------------
 Center     Atomic      Atomic             Coordinates (Angstroms)
 Number     Number       Type             X           Y           Z
 ---------------------------------------------------------------------
      1          6           0       -1.625505   -2.713513    0.027623
      2          6           0       -1.475156   -1.423464   -0.443231
      3          6           0       -2.564667   -0.555407   -0.562447
      4          6           0       -3.861271   -0.876711   -0.179220
      5          6           0       -2.985884   -3.135358    0.254104
      6          6           0       -4.056951   -2.258961    0.162760
      7          6           0       -2.049367    0.749285   -0.642117
      8          6           0       -2.820602    1.830832   -0.241456
      9          6           0       -4.209698    1.549378    0.003677
     10          6           0       -4.718708    0.256097    0.020789
     11          6           0       -0.613944    0.679642   -0.628213
     12          6           0        0.121743    1.974512   -0.539962
     13          6           0       -0.717831    3.042196    0.191315
     14          6           0       -2.089683    3.009763    0.180020
     15          6           0       -0.404195   -3.385712    0.374426
     16          6           0        0.823576   -2.741551    0.305392
     17          6           0        0.971572   -1.342809   -0.139868
     18          6           0       -0.249828   -0.658032   -0.472182
     19          6           0        0.020308    4.058441    0.892507
     20          6           0        1.554593    1.822948   -0.095036
     21          6           0        2.106277    2.768131    0.689505
     22          6           0        1.345038    3.912777    1.153789
     23          6           0        2.025734   -3.423199    0.714964
     24          6           0        3.235478   -2.819524    0.669861
     25          6           0        3.393411   -1.471250    0.175904
     26          6           0        2.213187   -0.735301   -0.198955
     27          6           0        2.357209    0.690361   -0.762447
     28          6           0        3.785938    1.112227   -0.971263
     29          6           0        4.650711   -0.922387    0.018441
     30          6           0        4.838028    0.360764   -0.585638
     31          1           0        5.848666    0.717705   -0.753921
     32          1           0        3.940131    2.071919   -1.451485
     33          1           0        1.902322    0.624232   -1.768219
     34          1           0        5.519564   -1.500074    0.314509
     35          1           0        4.128204   -3.353907    0.977470
     36          1           0        1.938443   -4.446191    1.066094
     37          1           0       -0.433211   -4.405326    0.746077
     38          1           0       -3.173551   -4.155619    0.573571
     39          1           0       -5.049071   -2.616256    0.419883
     40          1           0       -5.762706    0.108046    0.278007
     41          1           0       -4.870506    2.369801    0.265514
     42          1           0       -2.632272    3.827305    0.646096
     43          1           0       -0.525507    4.905657    1.295831
     44          1           0        1.856387    4.656056    1.755718
     45          1           0        3.151016    2.695414    0.973612
     46          1           0        0.165019    2.376185   -1.577007
 ---------------------------------------------------------------------
 Rotational constants (GHZ):           0.2531648           0.1732019           0.1077579
 Standard basis: 6-311+G(d,p) (5D, 7F)
 There are   786 symmetry adapted cartesian basis functions of A   symmetry.
 There are   756 symmetry adapted basis functions of A   symmetry.
   756 basis functions,  1208 primitive gaussians,   786 cartesian basis functions
    98 alpha electrons       98 beta electrons
       nuclear repulsion energy      2644.4906512249 Hartrees.
 NAtoms=   46 NActive=   46 NUniq=   46 SFac= 1.00D+00 NAtFMM=   60 NAOKFM=F Big=F
 Integral buffers will be    131072 words long.
 Raffenetti 2 integral format.
 Two-electron integral symmetry is turned on.
 One-electron integrals computed using PRISM.
 NBasis=   756 RedAO= T EigKep=  1.00D-06  NBF=   756
 NBsUse=   738 1.00D-06 EigRej=  9.77D-07 NBFU=   738
 ExpMin= 4.38D-02 ExpMax= 4.56D+03 ExpMxC= 6.82D+02 IAcc=2 IRadAn=         4 AccDes= 0.00D+00
 Harris functional with IExCor=  402 and IRadAn=       4 diagonalized for initial guess.
 HarFok:  IExCor=  402 AccDes= 0.00D+00 IRadAn=         4 IDoV= 1 UseB2=F ITyADJ=14
 ICtDFT=  3500011 ScaDFX=  1.000000  1.000000  1.000000  1.000000
 FoFCou: FMM=F IPFlag=           0 FMFlag=      100000 FMFlg1=           0
         NFxFlg=           0 DoJE=T BraDBF=F KetDBF=T FulRan=T
         wScrn=  0.000000 ICntrl=       500 IOpCl=  0 I1Cent=   200000004 NGrid=           0
         NMat0=    1 NMatS0=      1 NMatT0=    0 NMatD0=    1 NMtDS0=    0 NMtDT0=    0
 Petite list used in FoFCou.
 Requested convergence on RMS density matrix=1.00D-08 within 128 cycles.
 Requested convergence on MAX density matrix=1.00D-06.
 Requested convergence on             energy=1.00D-06.
 No special actions if energy rises.
 SCF Done:  E(RB3LYP) =  -1153.02784812     A.U. after   18 cycles
            NFock= 18  Conv=0.96D-08     -V/T= 2.0045

 **********************************************************************

            Population analysis using the SCF Density.

 **********************************************************************

 Orbital symmetries:
       Occupied  (A) (A) (A) (A) (A) (A) (A) (A) (A) (A) (A) (A)
                 (A) (A) (A) (A) (A) (A) (A) (A) (A) (A) (A) (A)
                 (A) (A) (A) (A) (A) (A) (A) (A) (A) (A) (A) (A)
                 (A) (A) (A) (A) (A) (A) (A) (A) (A) (A) (A) (A)
                 (A) (A) (A) (A) (A) (A) (A) (A) (A) (A) (A) (A)
                 (A) (A) (A) (A) (A) (A) (A) (A) (A) (A) (A) (A)
                 (A) (A) (A) (A) (A) (A) (A) (A) (A) (A) (A) (A)
                 (A) (A) (A) (A) (A) (A) (A) (A) (A) (A) (A) (A)
                 (A) (A)
       Virtual   (A) (A) (A) (A) (A) (A) (A) (A) (A) (A) (A) (A)
                 (A) (A) (A) (A) (A) (A) (A) (A) (A) (A) (A) (A)
                 (A) (A) (A) (A) (A) (A) (A) (A) (A) (A) (A) (A)
                 (A) (A) (A) (A) (A) (A) (A) (A) (A) (A) (A) (A)
                 (A) (A) (A) (A) (A) (A) (A) (A) (A) (A) (A) (A)
                 (A) (A) (A) (A) (A) (A) (A) (A) (A) (A) (A) (A)
                 (A) (A) (A) (A) (A) (A) (A) (A) (A) (A) (A) (A)
                 (A) (A) (A) (A) (A) (A) (A) (A) (A) (A) (A) (A)
                 (A) (A) (A) (A) (A) (A) (A) (A) (A) (A) (A) (A)
                 (A) (A) (A) (A) (A) (A) (A) (A) (A) (A) (A) (A)
                 (A) (A) (A) (A) (A) (A) (A) (A) (A) (A) (A) (A)
                 (A) (A) (A) (A) (A) (A) (A) (A) (A) (A) (A) (A)
                 (A) (A) (A) (A) (A) (A) (A) (A) (A) (A) (A) (A)
                 (A) (A) (A) (A) (A) (A) (A) (A) (A) (A) (A) (A)
                 (A) (A) (A) (A) (A) (A) (A) (A) (A) (A) (A) (A)
                 (A) (A) (A) (A) (A) (A) (A) (A) (A) (A) (A) (A)
                 (A) (A) (A) (A) (A) (A) (A) (A) (A) (A) (A) (A)
                 (A) (A) (A) (A) (A) (A) (A) (A) (A) (A) (A) (A)
                 (A) (A) (A) (A) (A) (A) (A) (A) (A) (A) (A) (A)
                 (A) (A) (A) (A) (A) (A) (A) (A) (A) (A) (A) (A)
                 (A) (A) (A) (A) (A) (A) (A) (A) (A) (A) (A) (A)
                 (A) (A) (A) (A) (A) (A) (A) (A) (A) (A) (A) (A)
                 (A) (A) (A) (A) (A) (A) (A) (A) (A) (A) (A) (A)
                 (A) (A) (A) (A) (A) (A) (A) (A) (A) (A) (A) (A)
                 (A) (A) (A) (A) (A) (A) (A) (A) (A) (A) (A) (A)
                 (A) (A) (A) (A) (A) (A) (A) (A) (A) (A) (A) (A)
                 (A) (A) (A) (A) (A) (A) (A) (A) (A) (A) (A) (A)
                 (A) (A) (A) (A) (A) (A) (A) (A) (A) (A) (A) (A)
                 (A) (A) (A) (A) (A) (A) (A) (A) (A) (A) (A) (A)
                 (A) (A) (A) (A) (A) (A) (A) (A) (A) (A) (A) (A)
                 (A) (A) (A) (A) (A) (A) (A) (A) (A) (A) (A) (A)
                 (A) (A) (A) (A) (A) (A) (A) (A) (A) (A) (A) (A)
                 (A) (A) (A) (A) (A) (A) (A) (A) (A) (A) (A) (A)
                 (A) (A) (A) (A) (A) (A) (A) (A) (A) (A) (A) (A)
                 (A) (A) (A) (A) (A) (A) (A) (A) (A) (A) (A) (A)
                 (A) (A) (A) (A) (A) (A) (A) (A) (A) (A) (A) (A)
                 (A) (A) (A) (A) (A) (A) (A) (A) (A) (A) (A) (A)
                 (A) (A) (A) (A) (A) (A) (A) (A) (A) (A) (A) (A)
                 (A) (A) (A) (A) (A) (A) (A) (A) (A) (A) (A) (A)
                 (A) (A) (A) (A) (A) (A) (A) (A) (A) (A) (A) (A)
                 (A) (A) (A) (A) (A) (A) (A) (A) (A) (A) (A) (A)
                 (A) (A) (A) (A) (A) (A) (A) (A) (A) (A) (A) (A)
                 (A) (A) (A) (A) (A) (A) (A) (A) (A) (A) (A) (A)
                 (A) (A) (A) (A) (A) (A) (A) (A) (A) (A) (A) (A)
                 (A) (A) (A) (A) (A) (A) (A) (A) (A) (A) (A) (A)
                 (A) (A) (A) (A) (A) (A) (A) (A) (A) (A) (A) (A)
                 (A) (A) (A) (A) (A) (A) (A) (A) (A) (A) (A) (A)
                 (A) (A) (A) (A) (A) (A) (A) (A) (A) (A) (A) (A)
                 (A) (A) (A) (A) (A) (A) (A) (A) (A) (A) (A) (A)
                 (A) (A) (A) (A) (A) (A) (A) (A) (A) (A) (A) (A)
                 (A) (A) (A) (A) (A) (A) (A) (A) (A) (A) (A) (A)
                 (A) (A) (A) (A) (A) (A) (A) (A) (A) (A) (A) (A)
                 (A) (A) (A) (A) (A) (A) (A) (A) (A) (A) (A) (A)
                 (A) (A) (A) (A)
 The electronic state is 1-A.
 Alpha  occ. eigenvalues --  -10.20914 -10.20626 -10.20272 -10.20084 -10.19788
 Alpha  occ. eigenvalues --  -10.19627 -10.19484 -10.19402 -10.19249 -10.19013
 Alpha  occ. eigenvalues --  -10.18822 -10.18803 -10.18788 -10.18736 -10.18717
 Alpha  occ. eigenvalues --  -10.18637 -10.18612 -10.18508 -10.18455 -10.18447
 Alpha  occ. eigenvalues --  -10.18443 -10.18388 -10.18199 -10.18164 -10.18155
 Alpha  occ. eigenvalues --  -10.18086 -10.17852 -10.16850 -10.16483 -10.15801
 Alpha  occ. eigenvalues --   -0.91638  -0.88571  -0.87733  -0.84807  -0.83813
 Alpha  occ. eigenvalues --   -0.83174  -0.80424  -0.79592  -0.78250  -0.77333
 Alpha  occ. eigenvalues --   -0.75238  -0.74573  -0.72409  -0.71242  -0.70474
 Alpha  occ. eigenvalues --   -0.67238  -0.65297  -0.64064  -0.62760  -0.62421
 Alpha  occ. eigenvalues --   -0.59879  -0.58873  -0.57819  -0.56610  -0.55800
 Alpha  occ. eigenvalues --   -0.52579  -0.51818  -0.51503  -0.51225  -0.49843
 Alpha  occ. eigenvalues --   -0.49385  -0.48140  -0.47169  -0.46619  -0.45808
 Alpha  occ. eigenvalues --   -0.45180  -0.44424  -0.43640  -0.43424  -0.42854
 Alpha  occ. eigenvalues --   -0.42751  -0.42299  -0.41701  -0.40840  -0.40194
 Alpha  occ. eigenvalues --   -0.39864  -0.39646  -0.39410  -0.38383  -0.37805
 Alpha  occ. eigenvalues --   -0.36091  -0.35837  -0.35173  -0.34608  -0.34262
 Alpha  occ. eigenvalues --   -0.33862  -0.33449  -0.33054  -0.32562  -0.31670
 Alpha  occ. eigenvalues --   -0.30600  -0.27956  -0.27418  -0.26054  -0.23475
 Alpha  occ. eigenvalues --   -0.21828  -0.20287  -0.17624
 Alpha virt. eigenvalues --   -0.11041  -0.08034  -0.04643  -0.02830  -0.01732
 Alpha virt. eigenvalues --   -0.00302   0.00385   0.00683   0.00799   0.01054
 Alpha virt. eigenvalues --    0.01377   0.01649   0.01843   0.02961   0.03075
 Alpha virt. eigenvalues --    0.03147   0.03501   0.03571   0.04064   0.04672
 Alpha virt. eigenvalues --    0.04839   0.05110   0.05506   0.05790   0.06271
 Alpha virt. eigenvalues --    0.06517   0.06759   0.07433   0.07585   0.07656
 Alpha virt. eigenvalues --    0.07956   0.08530   0.08960   0.08992   0.09563
 Alpha virt. eigenvalues --    0.09713   0.10162   0.10399   0.10694   0.11053
 Alpha virt. eigenvalues --    0.11168   0.11863   0.12033   0.12421   0.12912
 Alpha virt. eigenvalues --    0.13545   0.13795   0.14108   0.14409   0.14482
 Alpha virt. eigenvalues --    0.14645   0.14722   0.15089   0.15266   0.15538
 Alpha virt. eigenvalues --    0.15858   0.16388   0.16511   0.16627   0.16784
 Alpha virt. eigenvalues --    0.17000   0.17008   0.17603   0.17654   0.17912
 Alpha virt. eigenvalues --    0.17947   0.18181   0.18380   0.18672   0.18832
 Alpha virt. eigenvalues --    0.18955   0.19426   0.19460   0.19606   0.19966
 Alpha virt. eigenvalues --    0.20170   0.20281   0.20687   0.20814   0.20984
 Alpha virt. eigenvalues --    0.21244   0.21350   0.21381   0.21735   0.21978
 Alpha virt. eigenvalues --    0.22374   0.22573   0.22797   0.22945   0.23312
 Alpha virt. eigenvalues --    0.23585   0.23828   0.23855   0.24330   0.24435
 Alpha virt. eigenvalues --    0.24528   0.24998   0.25139   0.25250   0.25792
 Alpha virt. eigenvalues --    0.25920   0.26118   0.26197   0.26315   0.26469
 Alpha virt. eigenvalues --    0.26639   0.27029   0.27125   0.27447   0.27568
 Alpha virt. eigenvalues --    0.27688   0.27930   0.28398   0.28796   0.29044
 Alpha virt. eigenvalues --    0.29396   0.29546   0.29985   0.30051   0.30376
 Alpha virt. eigenvalues --    0.30882   0.31019   0.31187   0.31379   0.31725
 Alpha virt. eigenvalues --    0.32072   0.32356   0.32837   0.32988   0.33349
 Alpha virt. eigenvalues --    0.33619   0.33709   0.33963   0.34203   0.34478
 Alpha virt. eigenvalues --    0.34873   0.35230   0.35839   0.36335   0.36644
 Alpha virt. eigenvalues --    0.37257   0.37611   0.37879   0.38243   0.38364
 Alpha virt. eigenvalues --    0.38967   0.39455   0.39751   0.40378   0.40733
 Alpha virt. eigenvalues --    0.40920   0.41625   0.42658   0.42974   0.43926
 Alpha virt. eigenvalues --    0.44792   0.45368   0.45805   0.45875   0.47117
 Alpha virt. eigenvalues --    0.47599   0.48236   0.49119   0.49740   0.50633
 Alpha virt. eigenvalues --    0.51064   0.51794   0.52168   0.52743   0.53057
 Alpha virt. eigenvalues --    0.53329   0.53735   0.53996   0.54339   0.54937
 Alpha virt. eigenvalues --    0.55225   0.55979   0.56420   0.56792   0.57256
 Alpha virt. eigenvalues --    0.57564   0.57972   0.58194   0.58767   0.58890
 Alpha virt. eigenvalues --    0.59155   0.59779   0.59994   0.60229   0.60612
 Alpha virt. eigenvalues --    0.60797   0.61374   0.61655   0.62365   0.62505
 Alpha virt. eigenvalues --    0.62733   0.63484   0.63952   0.64210   0.64917
 Alpha virt. eigenvalues --    0.65262   0.65593   0.65928   0.66709   0.66848
 Alpha virt. eigenvalues --    0.67169   0.67956   0.68576   0.68889   0.69369
 Alpha virt. eigenvalues --    0.70010   0.70104   0.70454   0.70704   0.71114
 Alpha virt. eigenvalues --    0.71585   0.71928   0.72081   0.72606   0.72774
 Alpha virt. eigenvalues --    0.72961   0.73290   0.73604   0.73711   0.73809
 Alpha virt. eigenvalues --    0.74140   0.74678   0.74688   0.75035   0.75507
 Alpha virt. eigenvalues --    0.76158   0.76474   0.76756   0.77223   0.77566
 Alpha virt. eigenvalues --    0.77907   0.78582   0.78954   0.79674   0.80354
 Alpha virt. eigenvalues --    0.81213   0.81639   0.81832   0.81958   0.82988
 Alpha virt. eigenvalues --    0.83894   0.84252   0.84684   0.85350   0.85679
 Alpha virt. eigenvalues --    0.85778   0.86223   0.86686   0.87526   0.87760
 Alpha virt. eigenvalues --    0.88981   0.89177   0.89380   0.90085   0.91009
 Alpha virt. eigenvalues --    0.91321   0.91937   0.92205   0.92962   0.93164
 Alpha virt. eigenvalues --    0.93630   0.93959   0.94141   0.94573   0.95125
 Alpha virt. eigenvalues --    0.95738   0.95770   0.96127   0.97275   0.97589
 Alpha virt. eigenvalues --    0.98092   0.98608   0.98795   0.99890   1.00577
 Alpha virt. eigenvalues --    1.01273   1.01383   1.01835   1.02439   1.03017
 Alpha virt. eigenvalues --    1.03755   1.04439   1.04781   1.05769   1.06325
 Alpha virt. eigenvalues --    1.07081   1.07169   1.08073   1.08271   1.08865
 Alpha virt. eigenvalues --    1.09461   1.10874   1.11259   1.12076   1.12312
 Alpha virt. eigenvalues --    1.13020   1.13686   1.14160   1.15456   1.16469
 Alpha virt. eigenvalues --    1.18265   1.18657   1.19288   1.19971   1.20859
 Alpha virt. eigenvalues --    1.22298   1.24205   1.24972   1.25983   1.28013
 Alpha virt. eigenvalues --    1.28346   1.30380   1.31356   1.31681   1.33925
 Alpha virt. eigenvalues --    1.34972   1.35894   1.36503   1.37644   1.39468
 Alpha virt. eigenvalues --    1.40199   1.41179   1.42787   1.43751   1.44664
 Alpha virt. eigenvalues --    1.45286   1.45533   1.46038   1.46661   1.47790
 Alpha virt. eigenvalues --    1.47933   1.48514   1.49541   1.50535   1.51098
 Alpha virt. eigenvalues --    1.51434   1.51878   1.52256   1.52793   1.53714
 Alpha virt. eigenvalues --    1.53947   1.54611   1.55152   1.55597   1.56514
 Alpha virt. eigenvalues --    1.56945   1.57975   1.58350   1.58586   1.59225
 Alpha virt. eigenvalues --    1.59958   1.60430   1.61731   1.61818   1.62312
 Alpha virt. eigenvalues --    1.63306   1.64454   1.64963   1.65855   1.66400
 Alpha virt. eigenvalues --    1.67149   1.67625   1.67950   1.68767   1.70049
 Alpha virt. eigenvalues --    1.70685   1.71583   1.72298   1.72835   1.73194
 Alpha virt. eigenvalues --    1.73931   1.74554   1.75011   1.75722   1.75799
 Alpha virt. eigenvalues --    1.76661   1.77136   1.77842   1.77948   1.79601
 Alpha virt. eigenvalues --    1.80214   1.81087   1.81687   1.82973   1.83848
 Alpha virt. eigenvalues --    1.84155   1.85159   1.85627   1.85899   1.86311
 Alpha virt. eigenvalues --    1.87712   1.88205   1.88715   1.89180   1.89896
 Alpha virt. eigenvalues --    1.90517   1.90891   1.91356   1.92002   1.92902
 Alpha virt. eigenvalues --    1.93726   1.94194   1.94351   1.95106   1.95331
 Alpha virt. eigenvalues --    1.96325   1.97347   1.97574   1.97825   1.98066
 Alpha virt. eigenvalues --    1.99125   1.99785   2.00416   2.01036   2.02142
 Alpha virt. eigenvalues --    2.02895   2.04326   2.04879   2.05183   2.05919
 Alpha virt. eigenvalues --    2.06169   2.07050   2.08836   2.08977   2.09729
 Alpha virt. eigenvalues --    2.10459   2.10867   2.12272   2.12588   2.13047
 Alpha virt. eigenvalues --    2.14428   2.16664   2.16821   2.18500   2.19055
 Alpha virt. eigenvalues --    2.19970   2.20326   2.20456   2.20800   2.21788
 Alpha virt. eigenvalues --    2.23391   2.23669   2.24809   2.25314   2.26867
 Alpha virt. eigenvalues --    2.27717   2.27784   2.29137   2.32820   2.34057
 Alpha virt. eigenvalues --    2.34490   2.35164   2.37438   2.38572   2.39752
 Alpha virt. eigenvalues --    2.40627   2.41648   2.42697   2.43484   2.43763
 Alpha virt. eigenvalues --    2.45146   2.45888   2.47578   2.49022   2.49916
 Alpha virt. eigenvalues --    2.51328   2.52477   2.54176   2.54312   2.55922
 Alpha virt. eigenvalues --    2.56730   2.57655   2.58142   2.59397   2.60455
 Alpha virt. eigenvalues --    2.61694   2.63399   2.64727   2.65355   2.68174
 Alpha virt. eigenvalues --    2.69423   2.70586   2.70693   2.71222   2.71442
 Alpha virt. eigenvalues --    2.72189   2.72926   2.73162   2.73430   2.73738
 Alpha virt. eigenvalues --    2.74055   2.75061   2.75549   2.75736   2.76090
 Alpha virt. eigenvalues --    2.76564   2.76658   2.76803   2.77520   2.78002
 Alpha virt. eigenvalues --    2.78473   2.79035   2.79329   2.80674   2.81221
 Alpha virt. eigenvalues --    2.81764   2.81972   2.82866   2.83422   2.85702
 Alpha virt. eigenvalues --    2.85820   2.86460   2.86603   2.87941   2.88503
 Alpha virt. eigenvalues --    2.89463   2.90562   2.91424   2.92001   2.92559
 Alpha virt. eigenvalues --    2.93908   2.94531   2.95659   2.97850   2.98069
 Alpha virt. eigenvalues --    3.01164   3.03899   3.04711   3.05088   3.05616
 Alpha virt. eigenvalues --    3.06940   3.07418   3.09478   3.11857   3.12172
 Alpha virt. eigenvalues --    3.14028   3.16218   3.16396   3.18337   3.19732
 Alpha virt. eigenvalues --    3.20759   3.21174   3.21823   3.22622   3.24174
 Alpha virt. eigenvalues --    3.25274   3.26745   3.28343   3.30700   3.32114
 Alpha virt. eigenvalues --    3.33430   3.34122   3.35934   3.38147   3.38628
 Alpha virt. eigenvalues --    3.40093   3.40737   3.42015   3.43560   3.44698
 Alpha virt. eigenvalues --    3.46550   3.47627   3.48223   3.50215   3.50809
 Alpha virt. eigenvalues --    3.53756   3.54836   3.56299   3.57099   3.61214
 Alpha virt. eigenvalues --    3.61660   3.62634   3.67509   3.69543   3.72310
 Alpha virt. eigenvalues --    3.73546   3.79911   3.84440   3.85488   3.91713
 Alpha virt. eigenvalues --    3.93317   3.99042   4.02612   4.03952   4.06359
 Alpha virt. eigenvalues --    4.06762   4.08537   4.10024   4.11387   4.15682
 Alpha virt. eigenvalues --    4.20467   4.23963   4.26744   4.31898   4.34380
 Alpha virt. eigenvalues --    4.42512   4.59461   4.61711   4.70894   4.72474
 Alpha virt. eigenvalues --    4.73183   4.76720   4.78712   4.82144   4.89546
 Alpha virt. eigenvalues --   23.43637  23.63441  23.65818  23.77387  23.79240
 Alpha virt. eigenvalues --   23.81419  23.83707  23.84879  23.86404  23.88022
 Alpha virt. eigenvalues --   23.89835  23.91994  23.93530  23.94969  23.99138
 Alpha virt. eigenvalues --   24.01478  24.07373  24.08584  24.09689  24.09940
 Alpha virt. eigenvalues --   24.11222  24.11577  24.12469  24.12828  24.13759
 Alpha virt. eigenvalues --   24.18600  24.19025  24.21545  24.22636  24.23185
          Condensed to atoms (all electrons):
               1          2          3          4          5          6
     1  C   13.772821   0.482869  -1.815177   1.882083  -3.062042  -0.094380
     2  C    0.482869   9.701773   1.407042  -1.377205  -0.079420   0.606873
     3  C   -1.815177   1.407042  11.970354   0.334079   2.001663  -2.045070
     4  C    1.882083  -1.377205   0.334079  15.276503  -1.165708  -1.453796
     5  C   -3.062042  -0.079420   2.001663  -1.165708  11.168093   0.674798
     6  C   -0.094380   0.606873  -2.045070  -1.453796   0.674798   9.928846
     7  C   -1.605734  -0.583418   2.381561  -2.174285   0.424238  -1.365105
     8  C    0.165284  -2.352095  -1.987578   3.506468   0.520427   0.152974
     9  C   -0.007785   0.745073   2.098332  -1.311705  -0.176702  -0.351878
    10  C    0.327660  -1.919271  -2.355708  -2.432929  -0.547623  -0.200650
    11  C   -1.807978   0.789629  -0.329927  -1.951565   0.011506   0.069542
    12  C    0.498007  -0.922451  -0.774036  -0.493982  -0.277015   0.171488
    13  C   -0.013661  -0.204324  -0.664186   0.408591   0.118089   0.039573
    14  C    0.021058   0.133078  -0.479423   0.474714  -0.001920  -0.026081
    15  C    1.023496   0.089185  -0.603393  -0.259862  -0.963037  -0.144086
    16  C    0.368668  -0.363176  -0.848553  -0.284516  -0.502745   0.190702
    17  C   -1.010023   0.563964  -0.158991  -0.129288  -0.494789  -0.063563
    18  C   -0.329126   1.463915  -0.562871  -2.343097  -0.981667  -0.222145
    19  C    0.053382   0.088589  -0.071853   0.089396  -0.005050   0.021382
    20  C   -0.078968  -1.234096  -0.723972  -0.295578   0.025163  -0.035976
    21  C    0.086709  -0.031837   0.068696   0.028432   0.008907  -0.010592
    22  C   -0.039800   0.002413  -0.090721  -0.015149   0.002179   0.001336
    23  C   -1.138254  -0.578524  -0.040182  -0.081447  -0.381256  -0.071948
    24  C    0.352485  -0.315916  -0.159460  -0.019536  -0.269751   0.017784
    25  C   -0.028897  -0.236428   0.132148   0.009156  -0.031814   0.011247
    26  C   -1.108499   0.052523  -0.289331  -0.185010  -0.005504  -0.080323
    27  C   -1.154126   0.041904   0.036368  -0.021301  -0.039525  -0.158647
    28  C   -0.137068   0.060121  -0.129522  -0.036763   0.004983  -0.015159
    29  C   -0.119299  -0.157384  -0.007067  -0.017863   0.007100  -0.001330
    30  C   -0.010759  -0.020723   0.007953   0.007586  -0.008975   0.000208
    31  H    0.000053   0.000027  -0.000002  -0.000002   0.000003  -0.000000
    32  H   -0.000022   0.000048   0.000228   0.000048  -0.000010   0.000000
    33  H    0.002014  -0.014002  -0.004540  -0.002460  -0.000408   0.000344
    34  H    0.000255  -0.000024   0.000080   0.000003   0.000018   0.000001
    35  H    0.001717   0.001054   0.000297   0.000009   0.000237  -0.000009
    36  H    0.047877   0.008630   0.000384   0.000253   0.005295   0.000412
    37  H   -0.038969   0.006588   0.000658   0.007593   0.031647   0.009898
    38  H   -0.063087   0.018901  -0.039785  -0.038075   0.340156   0.037868
    39  H   -0.030121  -0.008813   0.033745  -0.098531   0.012300   0.387573
    40  H    0.009663   0.014962   0.057309  -0.069685  -0.003784   0.011102
    41  H    0.000406  -0.005176  -0.029570  -0.029602  -0.000759   0.002807
    42  H    0.000466   0.001481   0.002542   0.010824   0.000243  -0.000236
    43  H   -0.000107  -0.000630   0.000577   0.000274   0.000012   0.000031
    44  H    0.000008   0.000223   0.000242  -0.000012  -0.000004  -0.000003
    45  H   -0.000129  -0.000324  -0.000604  -0.000085  -0.000012  -0.000003
    46  H   -0.000258  -0.016841  -0.004598  -0.003581  -0.000678   0.000531
               7          8          9         10         11         12
     1  C   -1.605734   0.165284  -0.007785   0.327660  -1.807978   0.498007
     2  C   -0.583418  -2.352095   0.745073  -1.919271   0.789629  -0.922451
     3  C    2.381561  -1.987578   2.098332  -2.355708  -0.329927  -0.774036
     4  C   -2.174285   3.506468  -1.311705  -2.432929  -1.951565  -0.493982
     5  C    0.424238   0.520427  -0.176702  -0.547623   0.011506  -0.277015
     6  C   -1.365105   0.152974  -0.351878  -0.200650   0.069542   0.171488
     7  C   12.323763   0.077353  -0.198318   1.545432   2.090204  -1.072995
     8  C    0.077353  19.663837  -4.762684   0.492565  -1.877345  -1.659946
     9  C   -0.198318  -4.762684  11.386368  -0.480317  -0.503919  -0.830396
    10  C    1.545432   0.492565  -0.480317  12.098687   0.011383   0.564915
    11  C    2.090204  -1.877345  -0.503919   0.011383  17.623134  -2.569558
    12  C   -1.072995  -1.659946  -0.830396   0.564915  -2.569558  15.157265
    13  C   -1.225979  -1.058754   0.523377  -0.508563  -1.969822  -0.912733
    14  C   -1.145254   0.232358  -0.355658  -0.350566   0.067180  -0.840099
    15  C   -0.246741  -0.027199  -0.050225   0.035597  -0.049205   0.196520
    16  C   -1.154286  -0.317300   0.005613  -0.216316  -1.774402   1.061947
    17  C   -0.489672  -0.508590  -0.045377  -0.076398  -0.162806   0.886532
    18  C   -0.322949  -3.557824   0.182826  -0.148344   0.462287   1.956900
    19  C   -1.059389  -0.477560   0.220476  -0.156635   0.477377  -1.883605
    20  C   -1.332992  -0.085814  -0.194465   0.176461  -5.128103   2.162113
    21  C    0.338548  -0.035408   0.201841  -0.055398  -2.625235   0.296122
    22  C    0.038638  -0.300614  -0.172205  -0.002041   0.298059  -0.277440
    23  C    0.111557   0.088111  -0.018072  -0.006692   0.548332  -0.309505
    24  C   -0.284053  -0.070203  -0.002475   0.006305  -0.132148   0.125441
    25  C    0.174411   0.060232   0.001016  -0.018301  -0.320538  -0.078241
    26  C   -0.022467  -0.106330   0.016009  -0.039689   0.425966   0.278256
    27  C    1.055690   0.306030  -0.074762   0.109075   5.473180  -3.193347
    28  C    0.132164  -0.062288   0.018909   0.003754  -0.752112  -0.512796
[...]
 ,0.00000308,0.00000425,0.00004089,-0.00001118,0.00000483,-0.00010276,0
 .00005588,-0.00000256,-0.00008967,0.00015281,0.00006784,0.00010298,0.0
 0005923,0.00005579,-0.00004530,0.00001649,-0.00001845,-0.00002915,0.00
 004293,-0.00000453,0.00000124,-0.00000756,0.00001248,0.00000060,-0.000
 03914,-0.00003123,0.00005672,0.00009008,-0.00000368,0.00000751,-0.0000
 0573,-0.00000360,0.00000377,-0.00000148,0.00000203,0.00000245,-0.00000
 090,0.00000123,0.00000135,-0.00000291,-0.00000443,0.00000188,-0.000003
 51,0.00000461,0.00000119,-0.00000188,0.00000597,0.00000932,-0.00000149
 ,-0.00000944,-0.00001200,-0.00000350,-0.00009650,0.00044161,0.00002260
 ,0.13099065,-0.00011615,0.00009532,-0.00002042,-0.00001132,-0.00014574
 ,0.00011395,-0.00013442,0.00002776,0.00000566,0.00001613,-0.00009096,-
 0.00001134,0.00001479,-0.00002348,0.00000556,-0.00003062,0.00003053,0.
 00000678,0.00005661,0.00010465,-0.00000338,-0.00023982,0.00020292,0.00
 033680,-0.00004712,-0.00006419,-0.00005942,0.00000430,0.00002479,0.000
 01673,0.00090519,-0.00051952,-0.00050171,-0.00263829,-0.00035415,-0.00
 140307,0.01338067,-0.01272845,-0.00825889,0.00073548,0.00041354,0.0009
 0269,0.00006680,0.00001349,0.00000515,-0.00002562,-0.00000423,0.000013
 17,0.00006177,0.00007788,-0.00000555,-0.00021181,0.00004772,-0.0002816
 8,0.10798344,-0.22013912,-0.08851996,-0.00120297,0.00008165,-0.0001123
 1,0.00096123,0.00430640,-0.00292152,0.00079738,0.00100775,-0.00238194,
 0.00002589,-0.00001077,0.00000848,-0.00000755,-0.00000430,0.00001167,0
 .00013493,0.00002012,0.00005276,-0.00000251,-0.00007213,0.00000209,-0.
 00006566,-0.00045968,0.00025777,0.00015905,-0.00003105,0.00007856,-0.0
 0004690,-0.00013415,0.00005432,-0.00007026,0.00008881,-0.00008391,0.00
 000375,0.00000161,-0.00000933,0.00000744,0.00000126,0.00000017,-0.0000
 3424,0.00007164,0.00011534,0.00000257,-0.00000448,0.00000032,0.0000049
 2,-0.00000488,0.00000146,-0.00000017,-0.00000634,0.00000292,0.00000229
 ,-0.00000896,-0.00000324,-0.00000673,-0.00000784,-0.00000109,-0.000007
 33,-0.00000521,-0.00000291,-0.00000911,-0.00000071,0.00000275,-0.00002
 559,0.00000726,-0.00000647,-0.00097231,0.00025320,0.00015126,-0.118818
 01,0.22894074,-0.00001373,0.00001017,-0.00002201,0.00013933,-0.0001051
 6,0.00012016,-0.00018012,0.00000290,0.00001085,0.00007676,0.00004701,-
 0.00004142,-0.00006956,0.00001807,-0.00000375,0.00001017,-0.00010683,0
 .00002998,0.00004953,0.00017676,0.00007665,-0.00015724,-0.00002469,-0.
 00026136,0.00001179,-0.00003477,0.00003625,0.00002108,0.00000571,0.000
 00592,0.00066893,-0.00028210,-0.00034810,-0.00300760,-0.00284753,0.002
 52671,0.00726453,-0.01351900,-0.00451217,0.00170640,0.00148186,-0.0012
 3443,-0.00002561,0.00002925,-0.00000074,0.00002993,-0.00000276,-0.0000
 1159,-0.00004907,0.00000292,-0.00004196,-0.00019597,-0.00020058,0.0000
 1829,0.05098098,-0.08900090,-0.07906281,0.00039914,0.00030478,-0.00017
 713,-0.00254889,-0.00404170,0.00596009,-0.00612862,0.00475607,0.006233
 85,-0.00003325,0.00000064,0.00000327,-0.00001098,0.00001176,-0.0000360
 9,-0.00012967,0.00012627,-0.00008046,-0.00001768,-0.00002318,0.0000782
 6,0.00038089,0.00066119,-0.00054613,-0.00008399,-0.00004833,-0.0001157
 7,0.00017686,0.00006515,0.00001637,0.00001553,-0.00007480,0.00012389,0
 .00001694,-0.00000267,0.00000109,0.00000980,0.00000721,-0.00002336,-0.
 00005822,-0.00000867,-0.00002604,0.00000180,0.00000007,-0.00000989,0.0
 0000410,0.00000483,-0.00000160,0.00000045,-0.00000615,0.00000257,-0.00
 000071,-0.00000568,0.00000600,-0.00000741,-0.00000679,-0.00000262,-0.0
 0000211,-0.00000202,0.00000299,-0.00000604,0.00000184,-0.00000442,-0.0
 0002149,-0.00000296,0.00000847,-0.00061027,0.00004460,0.00057198,-0.04
 970470,0.09957060,0.07448127,-0.00004261,-0.00001960,-0.00001168,0.000
 04400,-0.00002441,0.00003118,-0.00004888,-0.00004442,-0.00001006,0.000
 09252,-0.00005975,-0.00001778,0.00003779,-0.00001414,0.00000476,-0.000
 00628,0.00002149,0.00000107,0.00011220,0.00006470,-0.00005340,-0.00030
 421,0.00007287,0.00047883,-0.00006139,-0.00022215,-0.00004198,-0.00006
 199,0.00011980,-0.00001043,-0.00002458,0.00009992,0.00003879,-0.000230
 88,0.00016326,0.00015092,-0.00429266,0.00324776,-0.00219188,-0.0000693
 2,-0.00126951,-0.00056873,-0.00000171,0.00002425,-0.00000303,-0.000003
 52,-0.00004278,0.00001073,-0.00010359,0.00007962,-0.00005436,-0.000006
 05,-0.00018083,-0.00000073,-0.01144668,-0.02278770,-0.01866889,-0.0016
 9615,0.00306226,0.00074042,0.01018842,0.01289947,0.00996274,-0.1168682
 3,-0.08601642,-0.07629993,-0.00000095,-0.00000020,-0.00000104,-0.00001
 216,0.00001056,-0.00000336,-0.00000203,0.00005694,0.00000425,0.0000505
 9,0.00000178,0.00007354,0.00041100,0.00029931,0.00035414,0.00008899,0.
 00001542,-0.00002235,0.00005325,0.00000480,-0.00000656,-0.00003854,-0.
 00006685,0.00000460,-0.00000935,0.00000993,0.00000426,-0.00000811,-0.0
 0000142,0.00001351,-0.00008744,0.00013497,0.00014139,-0.00000027,0.000
 00199,0.00000013,0.00000195,0.00000193,-0.00000197,-0.00000128,-0.0000
 0294,0.00000014,0.00000248,-0.00000401,0.00000106,-0.00000112,-0.00000
 390,0.00000177,-0.00000330,-0.00000189,0.00000059,-0.00000879,-0.00001
 611,0.00000721,-0.00000417,0.00000771,-0.00000017,-0.00003470,0.000107
 52,-0.00009785,0.00062172,-0.00061055,0.00138696,0.12311639,0.00012953
 ,-0.00007982,0.00000725,-0.00003400,0.00001128,-0.00000800,-0.00013046
 ,-0.00028999,0.00004882,0.00020897,0.00000051,-0.00003558,-0.00002540,
 0.00002788,0.00000066,-0.00000029,-0.00005579,0.00001937,0.00063103,0.
 00002524,-0.00002348,0.00027870,0.00028793,0.00067697,-0.00015331,-0.0
 0010738,0.00005995,-0.00006613,0.00019926,-0.00003920,-0.00039717,0.00
 018847,-0.00006456,0.00036104,0.00000120,0.00015751,0.00294031,0.00322
 344,-0.00376639,-0.00054967,0.00002657,0.00011705,-0.00015050,-0.00006
 421,0.00001347,0.00004572,0.00011672,-0.00003024,-0.00027300,-0.000139
 48,0.00001518,0.00006040,-0.00011745,0.00010122,0.00284764,0.00613092,
 0.00158316,0.00373364,-0.00198748,-0.00173446,-0.01303929,-0.01187170,
 -0.01303853,-0.08663324,-0.18386155,-0.11393073,-0.00003029,-0.0000176
 4,0.00000425,0.00003446,0.00001651,0.00000664,-0.00025899,-0.00006951,
 0.00000133,0.00032673,0.00018985,-0.00031327,-0.00040014,-0.00064096,-
 0.00012776,-0.00048653,0.00002213,-0.00004241,0.00009993,0.00023046,-0
 .00008484,0.00021035,-0.00018566,0.00015069,0.00002921,-0.00001226,0.0
 0000581,-0.00000394,-0.00000447,-0.00002389,0.00010031,-0.00016143,-0.
 00014781,0.00001502,-0.00001545,-0.00001003,0.00000776,-0.00001673,0.0
 0000287,-0.00000017,-0.00000964,-0.00000025,-0.00000518,-0.00000639,0.
 00000511,-0.00000461,-0.00000662,0.00000121,-0.00000528,-0.00000235,-0
 .00000182,-0.00000296,0.00000466,-0.00000059,-0.00001385,0.00000119,0.
 00000061,-0.00003738,0.00009115,-0.00019762,-0.00090864,-0.00093451,0.
 00286998,0.09161418,0.18944909,-0.00007200,0.00012301,-0.00000117,-0.0
 0004344,-0.00006336,0.00000661,0.00010215,0.00030584,-0.00007616,-0.00
 032307,0.00008506,0.00005488,-0.00004053,0.00000559,-0.00000528,0.0000
 0276,0.00001440,-0.00001345,-0.00077814,-0.00010137,0.00009487,-0.0004
 9332,-0.00020712,-0.00109403,0.00024766,0.00018268,-0.00010104,0.00005
 780,-0.00033742,0.00007712,0.00056351,-0.00025313,0.00004798,0.0002408
 3,0.00051192,0.00030878,-0.00265675,-0.00307600,0.00755294,0.00045186,
 -0.00020190,-0.00021292,0.00015126,0.00000826,-0.00000449,-0.00005043,
 -0.00000804,0.00001204,0.00047187,-0.00001587,0.00010049,-0.00009345,0
 .00044235,-0.00016650,-0.00094826,-0.00589761,0.00121968,0.00150656,-0
 .00212198,0.00148185,-0.00529517,-0.00610223,-0.00212015,-0.07823557,-
 0.11366681,-0.12829449,0.00002793,0.00000188,0.00000013,0.00000299,-0.
 00001864,0.00001304,0.00019203,-0.00005714,-0.00000449,-0.00031026,-0.
 00019261,0.00011449,-0.00082697,0.00042086,-0.00032942,0.00029414,-0.0
 0018152,0.00006997,-0.00017942,-0.00023942,0.00010229,-0.00010861,0.00
 036041,-0.00019505,0.00001965,-0.00000797,-0.00000186,0.00000869,0.000
 00438,0.00001070,0.00012157,-0.00019126,-0.00016211,-0.00000047,-0.000
 00428,0.00001086,0.00000211,-0.00000383,0.00000468,-0.00000013,-0.0000
 0201,0.00000185,-0.00000017,-0.00000298,-0.00000184,0.00000235,-0.0000
 0236,-0.00000134,-0.00000323,-0.00000028,0.00000183,-0.00000228,-0.000
 01088,0.00000652,0.00000585,0.00000730,0.00000246,0.00002420,-0.000140
 58,0.00032283,0.00099982,0.00308488,-0.00373705,0.08456657,0.12683285,
 0.12553539,-0.00022464,0.00008430,-0.00004342,-0.00001953,-0.00011164,
 0.00002420,-0.00003419,0.00007699,-0.00000882,0.00001057,-0.00015840,0
 .00003635,0.00012250,-0.00004094,0.00000214,-0.00005672,0.00012148,-0.
 00000522,-0.00008865,-0.00016830,-0.00032889,0.00022521,0.00009801,0.0
 0009174,-0.00009012,-0.00010093,-0.00000558,0.00000367,0.00008611,0.00
 000910,0.00015066,-0.00021083,-0.00006803,0.00221540,0.00019045,-0.002
 13965,0.00080160,0.00000887,0.00016079,-0.00022473,0.00002576,-0.00003
 735,0.00017411,-0.00000744,0.00002098,-0.00009862,-0.00000737,-0.00000
 063,0.00028450,0.00001836,0.00005213,-0.00014908,0.00022496,0.00002774
 ,0.00034639,0.00238244,0.00114728,-0.01165076,0.00062355,-0.00499256,-
 0.30904888,0.01937199,-0.07300106,-0.01089979,-0.00114956,-0.00479675,
 0.00002093,0.00003964,0.00000670,0.00002000,-0.00006045,0.00004409,0.0
 0027246,-0.00003211,-0.00013942,-0.00009564,-0.00052437,-0.00025698,-0
 .00064335,-0.00024768,0.00233363,0.00047647,0.00030855,0.00050986,-0.0
 0007055,-0.00054543,0.00021046,-0.00032605,0.00082344,0.00022225,-0.00
 003885,0.00005847,0.00013129,-0.00002419,0.00041890,0.00015871,-0.0002
 4451,0.00017505,0.00006692,-0.00000452,-0.00000205,-0.00001651,0.00000
 395,-0.00000250,-0.00000091,0.00000454,-0.00000980,-0.00000552,0.00000
 314,-0.00001108,-0.00000334,-0.00000073,-0.00000572,0.00000287,-0.0000
 0478,-0.00000233,0.00000102,-0.00000836,-0.00000294,-0.00000325,0.0000
 0210,0.00000391,-0.00000404,0.00000070,0.00000677,-0.00001433,-0.00057
 722,-0.00011279,-0.00019440,0.00069264,0.00003002,0.00036382,0.3297854
 9,-0.00004457,-0.00003443,-0.00001459,0.00025740,0.00000251,0.00006277
 ,-0.00019700,0.00009141,-0.00000292,0.00014795,-0.00005780,-0.00002931
 ,-0.00001426,0.00001002,0.00001727,-0.00001966,-0.00005253,0.00000985,
 -0.00011500,-0.00002805,0.00028585,0.00019941,0.00003325,0.00003039,-0
 .00013604,-0.00006205,-0.00001442,0.00001997,0.00015671,0.00000765,0.0
 0023157,0.00073757,-0.00027136,0.00047144,0.00029549,-0.00557404,0.000
 11151,-0.00064101,-0.00038491,-0.00011660,0.00005076,0.00028327,-0.000
 02876,0.00008345,-0.00001109,0.00005559,-0.00003585,0.00002990,-0.0000
 5121,0.00009832,-0.00005180,-0.00000890,-0.00043670,-0.00008031,0.0014
 2829,-0.00320828,-0.00326182,-0.02328886,0.00495040,-0.00756048,0.0197
 8934,-0.05277960,-0.00263315,0.02440857,0.00082643,0.00685898,-0.00004
 826,-0.00003629,0.00000241,-0.00000326,0.00003445,0.00008605,-0.000619
 41,-0.00000598,-0.00013682,0.00058991,-0.00087324,-0.00018007,-0.00120
 667,-0.00098726,0.00271944,-0.00012248,0.00089872,-0.00011745,0.000616
 89,0.00029797,-0.00010132,0.00048544,-0.00105762,0.00033694,-0.0000069
 1,-0.00000796,-0.00007813,-0.00001702,-0.00018220,-0.00013192,-0.00019
 647,0.00038556,0.00027027,0.00000628,0.00002301,-0.00002084,-0.0000038
 5,-0.00001110,-0.00000002,0.00000149,-0.00000346,-0.00000948,0.0000016
 2,-0.00000408,-0.00000216,-0.00000448,0.00000138,-0.00000216,0.0000035
 9,-0.00000174,-0.00001033,0.00000483,0.00000383,0.00000495,-0.00000583
 ,-0.00000491,-0.00001036,-0.00009474,0.00000940,-0.00000977,0.00121742
 ,0.00000163,0.00009968,-0.00074449,0.00035024,0.00082136,-0.02172927,0
 .05116195,-0.00023952,0.00014869,-0.00007643,0.00017716,-0.00014369,0.
 00011434,-0.00047524,0.00020720,-0.00002593,0.00021533,-0.00018852,-0.
 00000003,0.00003360,-0.00003888,0.00002797,-0.00005152,0.00001228,0.00
 001170,-0.00042090,-0.00074764,-0.00021186,0.00020674,-0.00021060,-0.0
 0007533,-0.00011243,-0.00010380,0.00004052,-0.00001715,0.00017661,0.00
 001703,-0.00204332,0.00107861,-0.00060547,-0.00204880,-0.00836618,0.00
 591953,-0.00040267,-0.00022423,-0.00045821,0.00032967,0.00033612,-0.00
 007139,0.00020418,0.00008490,0.00000428,-0.00004384,0.00000518,-0.0000
 2399,-0.00007210,0.00014130,-0.00001264,0.00007504,0.00001800,-0.00013
 525,0.00087441,-0.00221834,0.00120559,-0.01843946,0.00159667,-0.000741
 74,-0.07270027,-0.00407900,-0.06252073,0.01077367,-0.00084578,0.004828
 85,0.00003591,0.00001319,-0.00000957,-0.00002533,-0.00010674,-0.000011
 33,0.00017159,0.00029437,-0.00008634,-0.00052245,0.00074633,0.00050927
 ,0.00068114,0.00381380,-0.00363244,0.00008996,-0.00072723,-0.00038446,
 0.00017576,-0.00027545,0.00014008,0.00009970,0.00017860,0.00016539,0.0
 0008774,-0.00006174,-0.00001916,0.00034728,-0.00014572,-0.00083494,0.0
 0021308,-0.00030820,-0.00021319,-0.00001636,0.00005609,-0.00001685,-0.
 00001166,0.00002373,0.00000025,0.00000858,0.00000185,0.00001280,0.0000
 0536,-0.00001175,-0.00000657,-0.00000549,0.00000014,0.00000001,0.00000
 323,-0.00001101,-0.00000041,-0.00000260,0.00000388,-0.00000774,-0.0000
 0769,-0.00000346,-0.00000681,-0.00003392,-0.00002251,0.00007817,0.0004
 1996,-0.00009960,0.00012253,0.00003352,0.00092648,-0.00048427,0.080811
 96,0.00917617,0.05706809,0.00006124,0.00005297,-0.00006779,-0.00013109
 ,-0.00053946,-0.00065414,-0.00039069,-0.00055878,0.00005836,0.00041933
 ,-0.00025740,-0.00015006,-0.00012050,0.00038218,0.00001763,-0.00016397
 ,-0.00023387,0.00002790,-0.00056115,0.00050819,-0.00070174,0.00149879,
 0.00126516,0.00097051,-0.00118578,-0.00056139,0.00014119,0.00022728,0.
 00089720,-0.00002815,0.00092715,-0.00954278,0.01393688,-0.03834228,-0.
 00324869,0.00888603,-0.00214347,-0.00141134,0.01745024,-0.00174120,0.0
 0030356,0.00040418,-0.00009774,0.00005641,-0.00004461,-0.00007776,0.00
 023312,-0.00008017,-0.00021041,0.00017604,0.00021405,0.00016318,-0.000
 00245,-0.00041080,-0.00053744,-0.00006895,0.00029995,-0.00481786,0.010
 35764,-0.02921045,-0.00244200,0.00056249,-0.00013723,0.00010959,0.0015
 4544,-0.00045673,0.00003704,-0.00005868,0.00005338,-0.00004350,0.00009
 256,-0.00007251,0.00000083,0.00013416,-0.00021918,0.00104477,0.0005337
 3,0.00005163,0.00087010,-0.00244513,-0.00059926,-0.00095691,-0.0003316
 5,0.00036881,0.00050100,0.00007638,-0.00003873,0.00011256,-0.00060902,
 0.00057290,0.00006216,-0.00001446,-0.00002774,-0.00010220,0.00001243,-
 0.00006205,-0.00077697,0.00101478,-0.00003221,0.00001290,0.00000237,-0
 .00000182,0.00001196,-0.00002500,0.00000917,-0.00001373,-0.00001979,0.
 00000460,-0.00001502,-0.00000999,-0.00000479,-0.00001473,-0.00000711,-
 0.00000954,0.00001372,0.00003774,0.00001612,0.00000875,0.00002081,0.00
 001785,0.00001437,-0.00000622,-0.00005686,-0.00002810,0.00045414,-0.00
 084600,0.00001604,0.00012323,-0.00009456,-0.00003299,-0.00009451,0.000
 03368,-0.00099257,-0.00122452,0.00161815,0.04982730,-0.00002468,0.0008
 7907,-0.00035397,-0.00064335,-0.00145009,-0.00165061,-0.00051552,-0.00
 065555,0.00020080,0.00020258,0.00051195,-0.00015276,-0.00060732,0.0004
 8828,0.00018806,-0.00015040,-0.00070230,0.00014953,-0.00046134,0.00056
 101,-0.00053348,-0.00131147,-0.00085231,-0.00163993,0.00055623,0.00057
 576,0.00022647,-0.00000027,-0.00054494,-0.00001950,-0.00451781,-0.0233
 0618,0.02595571,-0.00195055,-0.05872539,0.07338224,0.00487325,0.005268
 42,-0.02008829,0.00151710,0.00004613,-0.00050049,0.00036021,0.00001519
 ,-0.00001508,-0.00016347,-0.00005097,0.00004736,0.00085381,0.00070918,
 0.00079808,-0.00210130,0.00128317,-0.00112164,0.00004342,-0.00065041,0
 .00102758,0.00195467,0.00027034,0.00290427,0.00004996,-0.00103172,-0.0
 0065316,-0.00075371,0.00033397,0.00064159,0.00008020,-0.00005335,0.000
 03810,-0.00008696,0.00007541,-0.00004571,0.00029573,0.00030342,-0.0000
 6666,-0.00059206,-0.00058199,0.00025645,-0.00042899,0.00085773,-0.0001
 8590,0.00079899,0.00016890,-0.00026635,0.00007549,-0.00052377,0.000223
 68,-0.00040457,0.00029543,-0.00001728,-0.00000459,0.00004418,0.0000141
 1,0.00001911,-0.00009919,-0.00011514,0.00054898,-0.00068693,-0.0003959
 8,-0.00000229,-0.00000363,-0.00000325,0.00000539,-0.00000186,0.0000033
 3,-0.00001020,-0.00000999,0.00000385,0.00000354,-0.00001015,-0.0000100
 1,-0.00002592,-0.00001059,-0.00002119,0.00001771,0.00002048,-0.0000055
 0,0.00000910,0.00001513,-0.00001415,0.00001348,0.00000440,0.00000984,-
 0.00004052,-0.00070838,0.00132232,0.00001234,-0.00006585,0.00004792,0.
 00001163,0.00006378,-0.00010445,0.00006591,0.00000766,-0.00010012,0.00
 242846,0.07792657,0.00032628,0.00006643,-0.00004504,0.00001494,-0.0000
 2815,-0.00012849,-0.00017462,-0.00029253,-0.00008306,0.00031972,0.0004
 1420,-0.00007174,-0.00034776,0.00015724,0.00002450,0.00011997,-0.00046
 541,0.00007920,-0.00016112,0.00089923,-0.00001294,0.00073568,0.0013510
 0,-0.00080373,-0.00050089,-0.00024442,0.00005970,0.00006403,0.00034291
 ,0.00002155,0.00218488,0.00444600,0.00308603,0.00943088,0.07499002,-0.
 22981601,0.00859704,-0.00116551,-0.02066302,-0.00209257,-0.00257906,0.
 00126223,-0.00003093,-0.00006055,0.00001180,-0.00000996,0.00005026,0.0
 0007380,0.00033792,-0.00025046,-0.00004685,0.00046299,-0.00060271,0.00
 010858,0.00089509,-0.00034959,0.00021441,-0.00813345,0.00347841,-0.013
 55816,-0.00155626,0.00245825,0.00201663,0.00062732,-0.00031145,-0.0002
 9368,-0.00002746,-0.00001354,-0.00002264,0.00008062,-0.00001169,0.0000
 1449,-0.00035759,-0.00020499,0.00042747,0.00032720,-0.00025815,0.00033
 201,-0.00108497,-0.00160273,-0.00233184,0.00027582,-0.00000593,0.00021
 156,-0.00018031,-0.00008945,-0.00004688,0.00004688,0.00048222,-0.00021
 080,0.00000584,-0.00001998,-0.00000654,-0.00007015,0.00011889,0.000047
 72,0.00125906,-0.00029982,0.00189156,0.00000172,0.00000783,0.00004160,
 -0.00000708,-0.00002562,0.00000774,-0.00000228,0.00000713,0.00000042,-
 0.00000573,0.00000778,-0.00001100,0.00000093,0.00000993,-0.00000663,0.
 00001069,0.00000327,-0.00001950,0.00001713,0.00000709,0.00000772,-0.00
 001951,-0.00001700,-0.00001529,0.00009955,-0.00053547,0.00089319,-0.00
 001720,-0.00011410,-0.00013653,0.00005313,0.00001306,-0.00014717,-0.00
 036937,-0.00040217,0.00040669,-0.01114610,-0.07936068,0.25723696\\0.00
 000384,-0.00000050,0.00000276,-0.00000121,-0.00000532,0.00000251,0.000
 00387,-0.00000193,0.00000131,-0.00000095,-0.00000182,0.00000206,0.0000
 0024,-0.00000131,0.00000327,0.00000265,-0.00000419,0.00000206,-0.00000
 182,-0.00000074,0.00000268,-0.00000239,-0.00000525,-0.00000218,-0.0000
 0057,-0.00000272,-0.00000206,0.00000024,-0.00000359,-0.00000124,-0.000
 00305,-0.00000395,-0.00000019,-0.00000392,0.00000219,-0.00000148,-0.00
 000629,-0.00000159,-0.00000439,0.00000327,-0.00000003,-0.00000233,0.00
 000271,0.00000023,0.00000263,0.00000111,0.00000185,0.00000283,0.000002
 04,-0.00000295,0.00000009,0.00000182,0.00000421,0.00000012,0.00000041,
 0.00000084,-0.00000352,-0.00000253,0.00000208,-0.00000111,0.00000571,-
 0.00000078,-0.00000330,-0.00000680,0.00000253,-0.00000434,0.00000243,0
 .00000148,0.00000300,0.00000142,0.00000253,0.00000266,0.00000209,0.000
 00224,0.00000090,-0.00000115,0.00000146,-0.00000033,0.00000093,0.00000
 306,0.00000110,-0.00000211,0.00000262,0.00000052,-0.00000022,0.0000024
 8,0.00000149,-0.00000075,0.00000150,-0.00000139,-0.00000065,0.00000327
 ,-0.00000100,-0.00000187,0.00000130,-0.00000187,0.00000003,-0.00000125
 ,-0.00000249,0.00000080,0.00000321,0.00000049,0.00000243,0.00000319,0.
 00000325,0.00000339,0.00000225,0.00000454,0.00000300,0.00000025,0.0000
 0448,0.00000271,-0.00000178,0.00000410,0.00000182,-0.00000308,0.000002
 99,0.00000040,-0.00000344,0.00000078,-0.00000149,-0.00000312,-0.000001
 81,-0.00000253,-0.00000081,-0.00000261,-0.00000317,0.00000109,-0.00000
 414,-0.00000298,0.00000272,-0.00000410,-0.00000272,0.00000341,-0.00000
 286,-0.00000019,-0.00000179,-0.00000389\\\@


 MY GROUP MEETINGS AREN'T VERY STRUCTURED.
     -- PROF. M. S. GORDON, OCT. 5, 1984
 Job cpu time:       1 days  1 hours 27 minutes 51.0 seconds.
 Elapsed time:       0 days  1 hours 16 minutes 36.2 seconds.
 File lengths (MBytes):  RWF=   2289 Int=      0 D2E=      0 Chk=     47 Scr=      1
 Normal termination of Gaussian 16 at Fri Aug 30 19:04:38 2019.
