 Entering Gaussian System, Link 0=/share/apps/gaussian16/g16/g16
 Initial command:
 /share/apps/gaussian16/g16/l1.exe "/home/am2145//scratch/4094/Gau-7863.inp" -scrdir="/home/am2145//scratch/4094/"
 Entering Link 1 = /share/apps/gaussian16/g16/l1.exe PID=      7864.
  
 Copyright (c) 1988,1990,1992,1993,1995,1998,2003,2009,2016,
            Gaussian, Inc.  All Rights Reserved.
  
 This is part of the Gaussian(R) 16 program.  It is based on
 the Gaussian(R) 09 system (copyright 2009, Gaussian, Inc.),
 the Gaussian(R) 03 system (copyright 2003, Gaussian, Inc.),
 the Gaussian(R) 98 system (copyright 1998, Gaussian, Inc.),
 the Gaussian(R) 94 system (copyright 1995, Gaussian, Inc.),
 the Gaussian 92(TM) system (copyright 1992, Gaussian, Inc.),
 the Gaussian 90(TM) system (copyright 1990, Gaussian, Inc.),
 the Gaussian 88(TM) system (copyright 1988, Gaussian, Inc.),
 the Gaussian 86(TM) system (copyright 1986, Carnegie Mellon
 University), and the Gaussian 82(TM) system (copyright 1983,
 Carnegie Mellon University). Gaussian is a federally registered
 trademark of Gaussian, Inc.
  
 This software contains proprietary and confidential information,
 including trade secrets, belonging to Gaussian, Inc.
  
 This software is provided under written license and may be
 used, copied, transmitted, or stored only in accord with that
 written license.
  
 The following legend is applicable only to US Government
 contracts under FAR:
  
                    RESTRICTED RIGHTS LEGEND
  
 Use, reproduction and disclosure by the US Government is
 subject to restrictions as set forth in subparagraphs (a)
 and (c) of the Commercial Computer Software - Restricted
 Rights clause in FAR 52.227-19.
  
 Gaussian, Inc.
 340 Quinnipiac St., Bldg. 40, Wallingford CT 06492
  
  
 ---------------------------------------------------------------
 Warning -- This program may not be used in any manner that
 competes with the business of Gaussian, Inc. or will provide
 assistance to any competitor of Gaussian, Inc.  The licensee
 of this program is prohibited from giving any competitor of
 Gaussian, Inc. access to this program.  By using this program,
 the user acknowledges that Gaussian, Inc. is engaged in the
 business of creating and licensing software in the field of
 computational chemistry and represents and warrants to the
 licensee that it is not a competitor of Gaussian, Inc. and that
 it will not use this program in any manner prohibited above.
 ---------------------------------------------------------------
  

 Cite this work as:
 Gaussian 16, Revision A.03,
 M. J. Frisch, G. W. Trucks, H. B. Schlegel, G. E. Scuseria, 
 M. A. Robb, J. R. Cheeseman, G. Scalmani, V. Barone, 
 G. A. Petersson, H. Nakatsuji, X. Li, M. Caricato, A. V. Marenich, 
 J. Bloino, B. G. Janesko, R. Gomperts, B. Mennucci, H. P. Hratchian, 
 J. V. Ortiz, A. F. Izmaylov, J. L. Sonnenberg, D. Williams-Young, 
 F. Ding, F. Lipparini, F. Egidi, J. Goings, B. Peng, A. Petrone, 
 T. Henderson, D. Ranasinghe, V. G. Zakrzewski, J. Gao, N. Rega, 
 G. Zheng, W. Liang, M. Hada, M. Ehara, K. Toyota, R. Fukuda, 
 J. Hasegawa, M. Ishida, T. Nakajima, Y. Honda, O. Kitao, H. Nakai, 
 T. Vreven, K. Throssell, J. A. Montgomery, Jr., J. E. Peralta, 
 F. Ogliaro, M. J. Bearpark, J. J. Heyd, E. N. Brothers, K. N. Kudin, 
 V. N. Staroverov, T. A. Keith, R. Kobayashi, J. Normand, 
 K. Raghavachari, A. P. Rendell, J. C. Burant, S. S. Iyengar, 
 J. Tomasi, M. Cossi, J. M. Millam, M. Klene, C. Adamo, R. Cammi, 
 J. W. Ochterski, R. L. Martin, K. Morokuma, O. Farkas, 
 J. B. Foresman, and D. J. Fox, Gaussian, Inc., Wallingford CT, 2016.
 
 ******************************************
 Gaussian 16:  ES64L-G16RevA.03 25-Dec-2016
                30-Apr-2019 
 ******************************************
 %nprocshared=20
 Will use up to   20 processors via shared memory.
 %mem=100GB
 %chk=7-path-3.chk
 -------------------------------------------
 # opt freq b3lyp/6-311+g(d,p) int=grid=fine
 -------------------------------------------
 1/18=20,19=15,26=3,38=1/1,3;
 2/9=110,12=2,17=6,18=5,40=1/2;
 3/5=4,6=6,7=111,11=2,25=1,30=1,71=1,74=-5,75=-4/1,2,3;
 4//1;
 5/5=2,38=5/2;
 6/7=2,8=2,9=2,10=2,28=1/1;
 7//1,2,3,16;
 1/18=20,19=15,26=3/3(2);
 2/9=110/2;
 99//99;
 2/9=110/2;
 3/5=4,6=6,7=111,11=2,25=1,30=1,71=1,74=-5,75=-4/1,2,3;
 4/5=5,16=3,69=1/1;
 5/5=2,38=5/2;
 7//1,2,3,16;
 1/18=20,19=15,26=3/3(-5);
 2/9=110/2;
 6/7=2,8=2,9=2,10=2,19=2,28=1/1;
 99/9=1/99;
 --------
 7-path-3
 --------
 Symbolic Z-matrix:
 Charge =  0 Multiplicity = 2
 C                    -2.19438   1.24187  -0.35811 
 C                    -2.5672   -0.10823  -0.4508 
 C                    -1.6037   -1.09231  -0.67518 
 C                    -0.34195  -0.64992  -1.04278 
 C                     0.05504   0.67535  -0.88319 
 C                    -0.83583   1.6174   -0.35915 
 C                     1.5165    0.60224  -0.66274 
 C                     0.75038  -1.4985   -0.91772 
 C                     1.88366  -0.73389  -0.69891 
 C                    -1.76687  -2.44642  -0.36024 
 C                     0.64061  -2.7687   -0.36741 
 C                    -0.65046  -3.2786   -0.19364 
 C                     2.97848  -1.21801   0.00242 
 C                     1.79714  -3.3365    0.18128 
 C                     2.96167  -2.57245   0.35401 
 C                     2.37667   1.53131  -0.09016 
 C                     3.64472   1.09373   0.30589 
 C                     3.92069  -0.27649   0.43007 
 C                     2.03751   2.88184  -0.11749 
 C                     4.6124    2.05681   0.59983 
 C                     3.0607    3.82341  -0.00313 
 C                     4.33874   3.40973   0.38266 
 C                    -0.42427   2.47269   0.26531 
 C                    -3.0005    1.97879  -0.14439 
 C                    -2.7062    3.14335   0.68882 
 C                    -1.41172   3.3677    0.89618 
 C                     0.71355   3.27455  -0.33747 
 C                     0.47504   4.59969  -0.71086 
 C                     2.79269   5.16144  -0.29626 
 C                     1.51386   5.53238  -0.71428 
 H                    -0.78494  -4.27444   0.21359 
 H                     1.75339  -4.33504   0.60155 
 H                     3.80158  -2.99662   0.89275 
 H                     4.84052  -0.60758   0.89851 
 H                    -2.74804  -2.81681  -0.08502 
 H                    -3.58292  -0.41259  -0.22025 
 H                    -4.00085   1.88171  -0.56708 
 H                    -3.48725   3.78547   1.09437 
 H                    -1.0889    4.21421   1.50225 
 H                    -0.5317    4.9242   -0.95022 
 H                     1.31054   6.56461  -0.9774 
 H                     3.58145   5.90393  -0.24731 
 H                     5.12692   4.14136   0.52131 
 H                     5.60603   1.75408   0.91096 
 H                     0.03437   1.97454   1.12082 
 

 GradGradGradGradGradGradGradGradGradGradGradGradGradGradGradGradGradGrad
 Berny optimization.
 Initialization pass.
                           ----------------------------
                           !    Initial Parameters    !
                           ! (Angstroms and Degrees)  !
 --------------------------                            --------------------------
 ! Name  Definition              Value          Derivative Info.                !
 --------------------------------------------------------------------------------
 ! R1    R(1,2)                  1.4037         estimate D2E/DX2                !
 ! R2    R(1,6)                  1.4095         estimate D2E/DX2                !
 ! R3    R(1,24)                 1.1129         estimate D2E/DX2                !
 ! R4    R(2,3)                  1.3954         estimate D2E/DX2                !
 ! R5    R(2,36)                 1.0851         estimate D2E/DX2                !
 ! R6    R(3,4)                  1.3867         estimate D2E/DX2                !
 ! R7    R(3,10)                 1.3998         estimate D2E/DX2                !
 ! R8    R(4,5)                  1.3926         estimate D2E/DX2                !
 ! R9    R(4,8)                  1.3889         estimate D2E/DX2                !
 ! R10   R(5,6)                  1.3985         estimate D2E/DX2                !
 ! R11   R(5,7)                  1.4798         estimate D2E/DX2                !
 ! R12   R(6,23)                 1.1362         estimate D2E/DX2                !
 ! R13   R(7,9)                  1.3861         estimate D2E/DX2                !
 ! R14   R(7,16)                 1.3896         estimate D2E/DX2                !
 ! R15   R(8,9)                  1.3845         estimate D2E/DX2                !
 ! R16   R(8,11)                 1.3886         estimate D2E/DX2                !
 ! R17   R(9,13)                 1.3874         estimate D2E/DX2                !
 ! R18   R(10,12)                1.4024         estimate D2E/DX2                !
 ! R19   R(10,35)                1.0843         estimate D2E/DX2                !
 ! R20   R(11,12)                1.3989         estimate D2E/DX2                !
 ! R21   R(11,14)                1.4004         estimate D2E/DX2                !
 ! R22   R(12,31)                1.0843         estimate D2E/DX2                !
 ! R23   R(13,15)                1.3994         estimate D2E/DX2                !
 ! R24   R(13,18)                1.399          estimate D2E/DX2                !
 ! R25   R(14,15)                1.4035         estimate D2E/DX2                !
 ! R26   R(14,32)                1.0843         estimate D2E/DX2                !
 ! R27   R(15,33)                1.0843         estimate D2E/DX2                !
 ! R28   R(16,17)                1.3987         estimate D2E/DX2                !
 ! R29   R(16,19)                1.3927         estimate D2E/DX2                !
 ! R30   R(17,18)                1.4032         estimate D2E/DX2                !
 ! R31   R(17,20)                1.3965         estimate D2E/DX2                !
 ! R32   R(18,34)                1.084          estimate D2E/DX2                !
 ! R33   R(19,21)                1.3952         estimate D2E/DX2                !
 ! R34   R(19,27)                1.3984         estimate D2E/DX2                !
 ! R35   R(20,22)                1.3973         estimate D2E/DX2                !
 ! R36   R(20,44)                1.0843         estimate D2E/DX2                !
 ! R37   R(21,22)                1.3976         estimate D2E/DX2                !
 ! R38   R(21,29)                1.3957         estimate D2E/DX2                !
 ! R39   R(22,43)                1.0843         estimate D2E/DX2                !
 ! R40   R(23,26)                1.4745         estimate D2E/DX2                !
 ! R41   R(23,27)                1.5169         estimate D2E/DX2                !
 ! R42   R(23,45)                1.0911         estimate D2E/DX2                !
 ! R43   R(24,25)                1.4619         estimate D2E/DX2                !
 ! R44   R(24,37)                1.0903         estimate D2E/DX2                !
 ! R45   R(25,26)                1.33           estimate D2E/DX2                !
 ! R46   R(25,38)                1.0894         estimate D2E/DX2                !
 ! R47   R(26,39)                1.09           estimate D2E/DX2                !
 ! R48   R(27,28)                1.3972         estimate D2E/DX2                !
 ! R49   R(28,30)                1.3961         estimate D2E/DX2                !
 ! R50   R(28,40)                1.0845         estimate D2E/DX2                !
 ! R51   R(29,30)                1.3956         estimate D2E/DX2                !
 ! R52   R(29,42)                1.0844         estimate D2E/DX2                !
 ! R53   R(30,41)                1.0845         estimate D2E/DX2                !
 ! A1    A(2,1,6)              120.8109         estimate D2E/DX2                !
 ! A2    A(2,1,24)             117.2049         estimate D2E/DX2                !
 ! A3    A(6,1,24)             121.4585         estimate D2E/DX2                !
 ! A4    A(1,2,3)              120.3671         estimate D2E/DX2                !
 ! A5    A(1,2,36)             120.2889         estimate D2E/DX2                !
 ! A6    A(3,2,36)             118.8611         estimate D2E/DX2                !
 ! A7    A(2,3,4)              116.4824         estimate D2E/DX2                !
 ! A8    A(2,3,10)             124.4409         estimate D2E/DX2                !
 ! A9    A(4,3,10)             118.3156         estimate D2E/DX2                !
 ! A10   A(3,4,5)              122.1817         estimate D2E/DX2                !
 ! A11   A(3,4,8)              119.7918         estimate D2E/DX2                !
 ! A12   A(5,4,8)              110.299          estimate D2E/DX2                !
 ! A13   A(4,5,6)              120.1584         estimate D2E/DX2                !
 ! A14   A(4,5,7)              104.5715         estimate D2E/DX2                !
 ! A15   A(6,5,7)              127.3435         estimate D2E/DX2                !
 ! A16   A(1,6,5)              115.7731         estimate D2E/DX2                !
 ! A17   A(1,6,23)             123.3193         estimate D2E/DX2                !
 ! A18   A(5,6,23)             118.8358         estimate D2E/DX2                !
 ! A19   A(5,7,9)              107.7783         estimate D2E/DX2                !
 ! A20   A(5,7,16)             129.7693         estimate D2E/DX2                !
 ! A21   A(9,7,16)             119.4241         estimate D2E/DX2                !
 ! A22   A(4,8,9)              108.6985         estimate D2E/DX2                !
 ! A23   A(4,8,11)             122.1675         estimate D2E/DX2                !
 ! A24   A(9,8,11)             120.4801         estimate D2E/DX2                !
 ! A25   A(7,9,8)              108.6417         estimate D2E/DX2                !
 ! A26   A(7,9,13)             122.1533         estimate D2E/DX2                !
 ! A27   A(8,9,13)             122.2162         estimate D2E/DX2                !
 ! A28   A(3,10,12)            120.5289         estimate D2E/DX2                !
 ! A29   A(3,10,35)            119.5412         estimate D2E/DX2                !
 ! A30   A(12,10,35)           119.1781         estimate D2E/DX2                !
 ! A31   A(8,11,12)            117.1023         estimate D2E/DX2                !
 ! A32   A(8,11,14)            117.4437         estimate D2E/DX2                !
 ! A33   A(12,11,14)           124.4533         estimate D2E/DX2                !
 ! A34   A(10,12,11)           120.2418         estimate D2E/DX2                !
 ! A35   A(10,12,31)           119.3996         estimate D2E/DX2                !
 ! A36   A(11,12,31)           119.728          estimate D2E/DX2                !
 ! A37   A(9,13,15)            117.0807         estimate D2E/DX2                !
 ! A38   A(9,13,18)            116.8182         estimate D2E/DX2                !
 ! A39   A(15,13,18)           125.6381         estimate D2E/DX2                !
 ! A40   A(11,14,15)           120.8477         estimate D2E/DX2                !
 ! A41   A(11,14,32)           119.4694         estimate D2E/DX2                !
 ! A42   A(15,14,32)           119.1525         estimate D2E/DX2                !
 ! A43   A(13,15,14)           120.394          estimate D2E/DX2                !
 ! A44   A(13,15,33)           119.6144         estimate D2E/DX2                !
 ! A45   A(14,15,33)           119.4022         estimate D2E/DX2                !
 ! A46   A(7,16,17)            117.9507         estimate D2E/DX2                !
 ! A47   A(7,16,19)            119.3085         estimate D2E/DX2                !
 ! A48   A(17,16,19)           121.9858         estimate D2E/DX2                !
 ! A49   A(16,17,18)           120.5873         estimate D2E/DX2                !
 ! A50   A(16,17,20)           118.1675         estimate D2E/DX2                !
 ! A51   A(18,17,20)           121.2311         estimate D2E/DX2                !
 ! A52   A(13,18,17)           119.8458         estimate D2E/DX2                !
 ! A53   A(13,18,34)           119.8695         estimate D2E/DX2                !
 ! A54   A(17,18,34)           120.222          estimate D2E/DX2                !
 ! A55   A(16,19,21)           118.3085         estimate D2E/DX2                !
 ! A56   A(16,19,27)           120.3956         estimate D2E/DX2                !
 ! A57   A(21,19,27)           121.1787         estimate D2E/DX2                !
 ! A58   A(17,20,22)           119.9535         estimate D2E/DX2                !
 ! A59   A(17,20,44)           120.1866         estimate D2E/DX2                !
 ! A60   A(22,20,44)           119.6293         estimate D2E/DX2                !
 ! A61   A(19,21,22)           119.5705         estimate D2E/DX2                !
 ! A62   A(19,21,29)           119.2703         estimate D2E/DX2                !
 ! A63   A(22,21,29)           121.1522         estimate D2E/DX2                !
 ! A64   A(20,22,21)           120.5693         estimate D2E/DX2                !
 ! A65   A(20,22,43)           119.4113         estimate D2E/DX2                !
 ! A66   A(21,22,43)           120.0185         estimate D2E/DX2                !
 ! A67   A(6,23,26)            116.7127         estimate D2E/DX2                !
 ! A68   A(6,23,27)            116.8238         estimate D2E/DX2                !
 ! A69   A(6,23,45)            103.859          estimate D2E/DX2                !
 ! A70   A(26,23,27)           110.5782         estimate D2E/DX2                !
 ! A71   A(26,23,45)           102.8951         estimate D2E/DX2                !
 ! A72   A(27,23,45)           103.7467         estimate D2E/DX2                !
 ! A73   A(1,24,25)            119.4146         estimate D2E/DX2                !
 ! A74   A(1,24,37)            122.0841         estimate D2E/DX2                !
 ! A75   A(25,24,37)           118.4634         estimate D2E/DX2                !
 ! A76   A(24,25,26)           114.7822         estimate D2E/DX2                !
 ! A77   A(24,25,38)           122.506          estimate D2E/DX2                !
 ! A78   A(26,25,38)           122.7051         estimate D2E/DX2                !
 ! A79   A(23,26,25)           118.8615         estimate D2E/DX2                !
 ! A80   A(23,26,39)           120.728          estimate D2E/DX2                !
 ! A81   A(25,26,39)           120.3931         estimate D2E/DX2                !
 ! A82   A(19,27,23)           119.948          estimate D2E/DX2                !
 ! A83   A(19,27,28)           118.0337         estimate D2E/DX2                !
 ! A84   A(23,27,28)           118.6521         estimate D2E/DX2                !
 ! A85   A(27,28,30)           120.4797         estimate D2E/DX2                !
 ! A86   A(27,28,40)           120.0813         estimate D2E/DX2                !
 ! A87   A(30,28,40)           119.3602         estimate D2E/DX2                !
 ! A88   A(21,29,30)           119.5813         estimate D2E/DX2                !
 ! A89   A(21,29,42)           120.4817         estimate D2E/DX2                !
 ! A90   A(30,29,42)           119.8716         estimate D2E/DX2                !
 ! A91   A(28,30,29)           120.2335         estimate D2E/DX2                !
 ! A92   A(28,30,41)           119.8005         estimate D2E/DX2                !
 ! A93   A(29,30,41)           119.8317         estimate D2E/DX2                !
 ! D1    D(6,1,2,3)             -6.2            estimate D2E/DX2                !
 ! D2    D(6,1,2,36)           165.7377         estimate D2E/DX2                !
 ! D3    D(24,1,2,3)          -178.0029         estimate D2E/DX2                !
 ! D4    D(24,1,2,36)           -6.0652         estimate D2E/DX2                !
 ! D5    D(2,1,6,5)             20.1325         estimate D2E/DX2                !
 ! D6    D(2,1,6,23)          -143.2699         estimate D2E/DX2                !
 ! D7    D(24,1,6,5)          -168.4166         estimate D2E/DX2                !
 ! D8    D(24,1,6,23)           28.1811         estimate D2E/DX2                !
 ! D9    D(2,1,24,25)          144.7644         estimate D2E/DX2                !
 ! D10   D(2,1,24,37)          -37.5085         estimate D2E/DX2                !
 ! D11   D(6,1,24,25)          -26.9819         estimate D2E/DX2                !
 ! D12   D(6,1,24,37)          150.7451         estimate D2E/DX2                !
 ! D13   D(1,2,3,4)            -11.6184         estimate D2E/DX2                !
 ! D14   D(1,2,3,10)           158.1882         estimate D2E/DX2                !
 ! D15   D(36,2,3,4)           176.33           estimate D2E/DX2                !
 ! D16   D(36,2,3,10)          -13.8634         estimate D2E/DX2                !
 ! D17   D(2,3,4,5)             15.4377         estimate D2E/DX2                !
 ! D18   D(2,3,4,8)            161.8038         estimate D2E/DX2                !
 ! D19   D(10,3,4,5)          -155.0193         estimate D2E/DX2                !
 ! D20   D(10,3,4,8)            -8.6532         estimate D2E/DX2                !
 ! D21   D(2,3,10,12)         -158.6864         estimate D2E/DX2                !
 ! D22   D(2,3,10,35)           11.3007         estimate D2E/DX2                !
 ! D23   D(4,3,10,12)           10.9478         estimate D2E/DX2                !
 ! D24   D(4,3,10,35)         -179.065          estimate D2E/DX2                !
 ! D25   D(3,4,5,6)             -1.1547         estimate D2E/DX2                !
 ! D26   D(3,4,5,7)            149.9986         estimate D2E/DX2                !
 ! D27   D(8,4,5,6)           -150.3235         estimate D2E/DX2                !
 ! D28   D(8,4,5,7)              0.8298         estimate D2E/DX2                !
 ! D29   D(3,4,8,9)           -151.1232         estimate D2E/DX2                !
 ! D30   D(3,4,8,11)            -3.3998         estimate D2E/DX2                !
 ! D31   D(5,4,8,9)             -1.1119         estimate D2E/DX2                !
 ! D32   D(5,4,8,11)           146.6115         estimate D2E/DX2                !
 ! D33   D(4,5,6,1)            -16.4742         estimate D2E/DX2                !
 ! D34   D(4,5,6,23)           147.7139         estimate D2E/DX2                !
 ! D35   D(7,5,6,1)           -160.5052         estimate D2E/DX2                !
 ! D36   D(7,5,6,23)             3.6829         estimate D2E/DX2                !
 ! D37   D(4,5,7,9)             -0.2621         estimate D2E/DX2                !
 ! D38   D(4,5,7,16)          -159.9917         estimate D2E/DX2                !
 ! D39   D(6,5,7,9)            148.0884         estimate D2E/DX2                !
 ! D40   D(6,5,7,16)           -11.6412         estimate D2E/DX2                !
 ! D41   D(1,6,23,26)          -11.672          estimate D2E/DX2                !
 ! D42   D(1,6,23,27)         -145.7299         estimate D2E/DX2                !
 ! D43   D(1,6,23,45)          100.7531         estimate D2E/DX2                !
 ! D44   D(5,6,23,26)         -174.5957         estimate D2E/DX2                !
 ! D45   D(5,6,23,27)           51.3463         estimate D2E/DX2                !
 ! D46   D(5,6,23,45)          -62.1706         estimate D2E/DX2                !
 ! D47   D(5,7,9,8)             -0.3961         estimate D2E/DX2                !
 ! D48   D(5,7,9,13)          -151.6328         estimate D2E/DX2                !
 ! D49   D(16,7,9,8)           161.802          estimate D2E/DX2                !
 ! D50   D(16,7,9,13)           10.5652         estimate D2E/DX2                !
 ! D51   D(5,7,16,17)          164.1585         estimate D2E/DX2                !
 ! D52   D(5,7,16,19)          -25.5941         estimate D2E/DX2                !
 ! D53   D(9,7,16,17)            6.4156         estimate D2E/DX2                !
 ! D54   D(9,7,16,19)          176.663          estimate D2E/DX2                !
 ! D55   D(4,8,9,7)              0.9171         estimate D2E/DX2                !
 ! D56   D(4,8,9,13)           152.1322         estimate D2E/DX2                !
 ! D57   D(11,8,9,7)          -147.4469         estimate D2E/DX2                !
 ! D58   D(11,8,9,13)            3.7682         estimate D2E/DX2                !
 ! D59   D(4,8,11,12)           12.9045         estimate D2E/DX2                !
 ! D60   D(4,8,11,14)         -156.172          estimate D2E/DX2                !
 ! D61   D(9,8,11,12)          156.9648         estimate D2E/DX2                !
 ! D62   D(9,8,11,14)          -12.1117         estimate D2E/DX2                !
 ! D63   D(7,9,13,15)          154.5972         estimate D2E/DX2                !
 ! D64   D(7,9,13,18)          -18.0422         estimate D2E/DX2                !
 ! D65   D(8,9,13,15)            7.2071         estimate D2E/DX2                !
 ! D66   D(8,9,13,18)         -165.4323         estimate D2E/DX2                !
 ! D67   D(3,10,12,11)          -1.2908         estimate D2E/DX2                !
 ! D68   D(3,10,12,31)         169.583          estimate D2E/DX2                !
 ! D69   D(35,10,12,11)       -171.3139         estimate D2E/DX2                !
 ! D70   D(35,10,12,31)         -0.4402         estimate D2E/DX2                !
 ! D71   D(8,11,12,10)         -10.4039         estimate D2E/DX2                !
 ! D72   D(8,11,12,31)         178.7523         estimate D2E/DX2                !
 ! D73   D(14,11,12,10)        157.8282         estimate D2E/DX2                !
 ! D74   D(14,11,12,31)        -13.0156         estimate D2E/DX2                !
 ! D75   D(8,11,14,15)           9.664          estimate D2E/DX2                !
 ! D76   D(8,11,14,32)        -178.7598         estimate D2E/DX2                !
 ! D77   D(12,11,14,15)       -158.5314         estimate D2E/DX2                !
 ! D78   D(12,11,14,32)         13.0448         estimate D2E/DX2                !
 ! D79   D(9,13,15,14)          -9.5534         estimate D2E/DX2                !
 ! D80   D(9,13,15,33)         179.3007         estimate D2E/DX2                !
 ! D81   D(18,13,15,14)        162.3592         estimate D2E/DX2                !
 ! D82   D(18,13,15,33)         -8.7866         estimate D2E/DX2                !
 ! D83   D(9,13,18,17)           8.6924         estimate D2E/DX2                !
 ! D84   D(9,13,18,34)        -174.1826         estimate D2E/DX2                !
 ! D85   D(15,13,18,17)       -163.2392         estimate D2E/DX2                !
 ! D86   D(15,13,18,34)         13.8858         estimate D2E/DX2                !
 ! D87   D(11,14,15,13)          1.21           estimate D2E/DX2                !
 ! D88   D(11,14,15,33)        172.3746         estimate D2E/DX2                !
 ! D89   D(32,14,15,13)       -170.3925         estimate D2E/DX2                !
 ! D90   D(32,14,15,33)          0.772          estimate D2E/DX2                !
 ! D91   D(7,16,17,18)         -15.3907         estimate D2E/DX2                !
 ! D92   D(7,16,17,20)         165.9609         estimate D2E/DX2                !
 ! D93   D(19,16,17,18)        174.6386         estimate D2E/DX2                !
 ! D94   D(19,16,17,20)         -4.0099         estimate D2E/DX2                !
 ! D95   D(7,16,19,21)        -157.0277         estimate D2E/DX2                !
 ! D96   D(7,16,19,27)          19.084          estimate D2E/DX2                !
 ! D97   D(17,16,19,21)         12.8111         estimate D2E/DX2                !
 ! D98   D(17,16,19,27)       -171.0772         estimate D2E/DX2                !
 ! D99   D(16,17,18,13)          7.7548         estimate D2E/DX2                !
 ! D100  D(16,17,18,34)       -169.3599         estimate D2E/DX2                !
 ! D101  D(20,17,18,13)       -173.6386         estimate D2E/DX2                !
 ! D102  D(20,17,18,34)          9.2467         estimate D2E/DX2                !
 ! D103  D(16,17,20,22)         -5.598          estimate D2E/DX2                !
 ! D104  D(16,17,20,44)        179.9389         estimate D2E/DX2                !
 ! D105  D(18,17,20,22)        175.7627         estimate D2E/DX2                !
 ! D106  D(18,17,20,44)          1.2996         estimate D2E/DX2                !
 ! D107  D(16,19,21,22)        -11.9476         estimate D2E/DX2                !
 ! D108  D(16,19,21,29)        167.104          estimate D2E/DX2                !
 ! D109  D(27,19,21,22)        171.9725         estimate D2E/DX2                !
 ! D110  D(27,19,21,29)         -8.9758         estimate D2E/DX2                !
 ! D111  D(16,19,27,23)         37.8285         estimate D2E/DX2                !
 ! D112  D(16,19,27,28)       -163.1508         estimate D2E/DX2                !
 ! D113  D(21,19,27,23)       -146.1729         estimate D2E/DX2                !
 ! D114  D(21,19,27,28)         12.8477         estimate D2E/DX2                !
 ! D115  D(17,20,22,21)          6.2772         estimate D2E/DX2                !
 ! D116  D(17,20,22,43)       -174.0579         estimate D2E/DX2                !
 ! D117  D(44,20,22,21)       -179.2287         estimate D2E/DX2                !
 ! D118  D(44,20,22,43)          0.4362         estimate D2E/DX2                !
 ! D119  D(19,21,22,20)          2.68           estimate D2E/DX2                !
 ! D120  D(19,21,22,43)       -176.9829         estimate D2E/DX2                !
 ! D121  D(29,21,22,20)       -176.3534         estimate D2E/DX2                !
 ! D122  D(29,21,22,43)          3.9838         estimate D2E/DX2                !
 ! D123  D(19,21,29,30)         -0.813          estimate D2E/DX2                !
 ! D124  D(19,21,29,42)       -177.8667         estimate D2E/DX2                !
 ! D125  D(22,21,29,30)        178.2232         estimate D2E/DX2                !
 ! D126  D(22,21,29,42)          1.1695         estimate D2E/DX2                !
 ! D127  D(6,23,26,25)          -0.9831         estimate D2E/DX2                !
 ! D128  D(6,23,26,39)        -179.473          estimate D2E/DX2                !
 ! D129  D(27,23,26,25)        135.7798         estimate D2E/DX2                !
 ! D130  D(27,23,26,39)        -42.7101         estimate D2E/DX2                !
 ! D131  D(45,23,26,25)       -113.9562         estimate D2E/DX2                !
 ! D132  D(45,23,26,39)         67.554          estimate D2E/DX2                !
 ! D133  D(6,23,27,19)         -89.4624         estimate D2E/DX2                !
 ! D134  D(6,23,27,28)         111.6453         estimate D2E/DX2                !
 ! D135  D(26,23,27,19)        133.8275         estimate D2E/DX2                !
 ! D136  D(26,23,27,28)        -25.0649         estimate D2E/DX2                !
 ! D137  D(45,23,27,19)         24.1178         estimate D2E/DX2                !
 ! D138  D(45,23,27,28)       -134.7745         estimate D2E/DX2                !
 ! D139  D(1,24,25,26)          13.4415         estimate D2E/DX2                !
 ! D140  D(1,24,25,38)        -167.4838         estimate D2E/DX2                !
 ! D141  D(37,24,25,26)       -164.3679         estimate D2E/DX2                !
 ! D142  D(37,24,25,38)         14.7068         estimate D2E/DX2                !
 ! D143  D(24,25,26,23)          1.3206         estimate D2E/DX2                !
 ! D144  D(24,25,26,39)        179.8156         estimate D2E/DX2                !
 ! D145  D(38,25,26,23)       -177.7521         estimate D2E/DX2                !
 ! D146  D(38,25,26,39)          0.7429         estimate D2E/DX2                !
 ! D147  D(19,27,28,30)         -7.0859         estimate D2E/DX2                !
 ! D148  D(19,27,28,40)        176.1639         estimate D2E/DX2                !
 ! D149  D(23,27,28,30)        152.2116         estimate D2E/DX2                !
 ! D150  D(23,27,28,40)        -24.5386         estimate D2E/DX2                !
 ! D151  D(27,28,30,29)         -2.3942         estimate D2E/DX2                !
 ! D152  D(27,28,30,41)       -178.1752         estimate D2E/DX2                !
 ! D153  D(40,28,30,29)        174.3793         estimate D2E/DX2                !
 ! D154  D(40,28,30,41)         -1.4018         estimate D2E/DX2                !
 ! D155  D(21,29,30,28)          6.4194         estimate D2E/DX2                !
 ! D156  D(21,29,30,41)       -177.8008         estimate D2E/DX2                !
 ! D157  D(42,29,30,28)       -176.5086         estimate D2E/DX2                !
 ! D158  D(42,29,30,41)         -0.7288         estimate D2E/DX2                !
 --------------------------------------------------------------------------------
 Trust Radius=3.00D-01 FncErr=1.00D-07 GrdErr=1.00D-06 EigMax=2.50D+02 EigMin=1.00D-04
 Number of steps in this run=    270 maximum allowed number of steps=    270.
 GradGradGradGradGradGradGradGradGradGradGradGradGradGradGradGradGradGrad

                          Input orientation:                          
 ---------------------------------------------------------------------
 Center     Atomic      Atomic             Coordinates (Angstroms)
 Number     Number       Type             X           Y           Z
 ---------------------------------------------------------------------
      1          6           0       -2.194380    1.241870   -0.358110
      2          6           0       -2.567200   -0.108230   -0.450800
      3          6           0       -1.603700   -1.092310   -0.675180
      4          6           0       -0.341950   -0.649920   -1.042780
      5          6           0        0.055040    0.675350   -0.883190
      6          6           0       -0.835830    1.617400   -0.359150
      7          6           0        1.516500    0.602240   -0.662740
      8          6           0        0.750380   -1.498500   -0.917720
      9          6           0        1.883660   -0.733890   -0.698910
     10          6           0       -1.766870   -2.446420   -0.360240
     11          6           0        0.640610   -2.768700   -0.367410
     12          6           0       -0.650460   -3.278600   -0.193640
     13          6           0        2.978480   -1.218010    0.002420
     14          6           0        1.797140   -3.336500    0.181280
     15          6           0        2.961670   -2.572450    0.354010
     16          6           0        2.376670    1.531310   -0.090160
     17          6           0        3.644720    1.093730    0.305890
     18          6           0        3.920690   -0.276490    0.430070
     19          6           0        2.037510    2.881840   -0.117490
     20          6           0        4.612400    2.056810    0.599830
     21          6           0        3.060700    3.823410   -0.003130
     22          6           0        4.338740    3.409730    0.382660
     23          6           0       -0.424270    2.472690    0.265310
     24          6           0       -3.000500    1.978790   -0.144390
     25          6           0       -2.706200    3.143350    0.688820
     26          6           0       -1.411720    3.367700    0.896180
     27          6           0        0.713550    3.274550   -0.337470
     28          6           0        0.475040    4.599690   -0.710860
     29          6           0        2.792690    5.161440   -0.296260
     30          6           0        1.513860    5.532380   -0.714280
     31          1           0       -0.784940   -4.274440    0.213590
     32          1           0        1.753390   -4.335040    0.601550
     33          1           0        3.801580   -2.996620    0.892750
     34          1           0        4.840520   -0.607580    0.898510
     35          1           0       -2.748040   -2.816810   -0.085020
     36          1           0       -3.582920   -0.412590   -0.220250
     37          1           0       -4.000850    1.881710   -0.567080
     38          1           0       -3.487250    3.785470    1.094370
     39          1           0       -1.088900    4.214210    1.502250
     40          1           0       -0.531700    4.924200   -0.950220
     41          1           0        1.310540    6.564610   -0.977400
     42          1           0        3.581450    5.903930   -0.247310
     43          1           0        5.126920    4.141360    0.521310
     44          1           0        5.606030    1.754080    0.910960
     45          1           0        0.034370    1.974540    1.120820
 ---------------------------------------------------------------------
                    Distance matrix (angstroms):
                    1          2          3          4          5
     1  C    0.000000
     2  C    1.403694   0.000000
     3  C    2.428545   1.395382   0.000000
     4  C    2.734802   2.365503   1.386669   0.000000
     5  C    2.378349   2.770758   2.432963   1.392627   0.000000
     6  C    1.409497   2.446189   2.834083   2.419092   1.398473
     7  C    3.777904   4.150457   3.550676   2.272921   1.479800
     8  C    4.061330   3.627286   2.401147   1.388853   2.282611
     9  C    4.544247   4.501462   3.505811   2.253583   2.315981
    10  C    3.712984   2.473027   1.399795   2.392419   3.652161
    11  C    4.911408   4.168345   2.818144   2.431209   3.531346
    12  C    4.779685   3.713660   2.433190   2.779600   4.075160
    13  C    5.739292   5.673763   4.633715   3.527099   3.593831
    14  C    6.097921   5.465228   4.163607   3.645784   4.501439
    15  C    6.452984   6.106431   4.908426   4.069527   4.530714
    16  C    4.588036   5.221111   4.803017   3.613329   2.598371
    17  C    5.878599   6.372224   5.769504   4.555520   3.804570
    18  C    6.349860   6.549577   5.692629   4.525355   4.192124
    19  C    4.544919   5.500452   5.418791   4.357903   3.063508
    20  C    6.921996   7.572178   7.083961   5.879638   4.987716
    21  C    5.865682   6.879786   6.809742   5.715731   4.440583
    22  C    6.923151   7.795044   7.529939   6.357790   5.237299
    23  C    2.244295   3.430176   3.871021   3.386528   2.186143
    24  C    1.112905   2.153436   3.415325   3.845141   3.403102
    25  C    2.230168   3.448308   4.584410   4.793434   4.023268
    26  C    2.589392   3.902765   4.732623   4.587510   3.544896
    27  C    3.547995   4.713742   4.955115   4.124683   2.736291
    28  C    4.304090   5.611360   6.059810   5.323162   3.950512
    29  C    6.343321   7.518093   7.653837   6.644935   5.288120
    30  C    5.682110   6.967134   7.321696   6.463186   5.074192
    31  H    5.722153   4.579866   3.403855   3.861587   5.138960
    32  H    6.899838   6.135215   4.838945   4.546909   5.494802
    33  H    7.448556   7.121045   5.941536   5.140245   5.538401
    34  H    7.381692   7.546145   6.651273   5.534293   5.265091
    35  H    4.105362   2.739143   2.152139   3.376683   4.548573
    36  H    2.164321   1.085115   2.141563   3.352129   3.854589
    37  H    1.927796   2.455348   3.821362   4.474706   4.243286
    38  H    3.201736   4.288933   5.520127   5.842346   5.111889
    39  H    3.676660   4.968225   5.758939   5.540295   4.418422
    40  H    4.083461   5.451425   6.117452   5.578117   4.289695
    41  H    6.403089   7.735694   8.198326   7.401651   6.022337
    42  H    7.423429   8.601940   8.718729   7.679765   6.338609
    43  H    7.923500   8.843274   8.609537   7.437155   6.301572
    44  H    7.919551   8.492601   7.911889   6.706324   5.932632
    45  H    2.773331   3.684574   3.913369   3.422071   2.388384
                    6          7          8          9         10
     6  C    0.000000
     7  C    2.579956   0.000000
     8  C    3.540748   2.250570   0.000000
     9  C    3.611042   1.386131   1.384496   0.000000
    10  C    4.169109   4.490696   2.746977   4.046458   0.000000
    11  C    4.627939   3.495374   1.388632   2.407388   2.428966
    12  C    4.902303   4.469529   2.378109   3.626653   1.402373
    13  C    4.766471   2.427578   2.426883   1.387396   4.915166
    14  C    5.636109   4.037920   2.383642   2.748781   3.713173
    15  C    5.699513   3.633312   2.767755   2.377194   4.783840
    16  C    3.224891   1.389572   3.536866   2.396824   5.750148
    17  C    4.559807   2.389378   4.073583   2.729680   6.500900
    18  C    5.180171   2.783259   3.655231   2.373458   6.138528
    19  C    3.148538   2.401109   4.635132   3.665409   6.551533
    20  C    5.549408   3.646156   5.464283   4.113484   7.867395
    21  C    4.491790   3.632571   5.873396   4.757995   7.921094
    22  C    5.526202   4.115811   6.217559   4.936274   8.492636
    23  C    1.136157   2.850693   4.306938   4.066745   5.137269
    24  C    2.205112   4.750460   5.172880   5.614369   4.599013
    25  C    2.631549   5.110298   6.006304   6.166490   5.764408
    26  C    2.229586   4.318851   5.625372   5.497898   5.958919
    27  C    2.268743   2.809229   4.808332   4.191347   6.235583
    28  C    3.276604   4.131169   6.107907   5.516469   7.402483
    29  C    5.072507   4.748607   6.993715   5.978577   8.869792
    30  C    4.579763   4.930410   7.075137   6.277191   8.634222
    31  H    5.919831   5.463203   3.367924   4.526541   2.152934
    32  H    6.561901   5.102086   3.370485   3.830985   4.109033
    33  H    6.660481   4.537944   3.851232   3.366266   5.734138
    34  H    6.225206   3.866559   4.563077   3.363142   6.973047
    35  H    4.836725   5.496359   3.830179   5.115473   1.084264
    36  H    3.418575   5.218214   4.521411   5.496894   2.730220
    37  H    3.182836   5.664569   5.841486   6.440978   4.875055
    38  H    3.720655   6.185297   7.065858   7.244801   6.626617
    39  H    3.205039   4.951931   6.471032   6.177776   6.949281
    40  H    3.372949   4.791357   6.549493   6.157199   7.496650
    41  H    5.428077   5.974218   8.082765   7.326263   9.542012
    42  H    6.156233   5.704780   7.953639   6.866374   9.916936
    43  H    6.534522   5.192541   7.282371   5.981282   9.576028
    44  H    6.567299   4.530731   6.123780   4.757911   8.580198
    45  H    1.753599   2.694625   4.090272   3.750584   4.998289
                   11         12         13         14         15
    11  C    0.000000
    12  C    1.398948   0.000000
    13  C    2.829673   4.177760   0.000000
    14  C    1.400364   2.476825   2.432191   0.000000
    15  C    2.438500   3.721028   1.399431   1.403474   0.000000
    16  C    4.645520   5.684141   2.815938   4.909695   4.168976
    17  C    4.939269   6.149420   2.424894   4.801668   3.729578
    18  C    4.195952   5.504279   1.398965   3.732964   2.489365
    19  C    5.826010   6.721756   4.208156   6.230152   5.552086
    20  C    6.324256   7.536172   3.708239   6.098251   4.920913
    21  C    7.031746   8.015457   5.042093   7.272888   6.406589
    22  C    7.239597   8.364090   4.838478   7.211928   6.138699
    23  C    5.385766   5.774005   5.026837   6.220001   6.076668
    24  C    5.987160   5.758929   6.781540   7.167686   7.517291
    25  C    6.875252   6.800459   7.197791   7.907346   8.056502
    26  C    6.592733   6.777944   6.411037   7.466871   7.396342
    27  C    6.043764   6.695146   5.042671   6.719319   6.302349
    28  C    7.378248   7.975069   6.373509   8.094873   7.665303
    29  C    8.217276   9.115925   6.389140   8.569373   7.763019
    30  C    8.354090   9.087833   6.944533   8.918481   8.302148
    31  H    2.153371   1.084259   4.852802   2.747346   4.117472
    32  H    2.151879   2.743517   3.402305   1.084262   2.151265
    33  H    3.410525   4.591341   2.152588   2.153947   1.084255
    34  H    4.890014   6.203064   2.154715   4.150131   2.772593
    35  H    3.400736   2.150556   5.946162   4.582538   5.731775
    36  H    4.838503   4.100493   6.614397   6.136410   6.915665
    37  H    6.573381   6.163876   7.657914   7.836227   8.316528
    38  H    7.882460   7.720585   8.248202   8.915210   9.086245
    39  H    7.432891   7.694834   6.949970   8.190690   7.986509
    40  H    7.803505   8.238473   7.138321   8.656960   8.372838
    41  H    9.377183  10.067203   8.019429   9.980546   9.380019
    42  H    9.158465  10.110925   7.151781   9.420881   8.520254
    43  H    8.286479   9.431070   5.797231   8.192768   7.056312
    44  H    6.837044   8.105040   4.069740   6.399538   5.101146
    45  H    5.008062   5.458230   4.484526   5.674261   5.461886
                   16         17         18         19         20
    16  C    0.000000
    17  C    1.398672   0.000000
    18  C    2.433676   1.403240   0.000000
    19  C    1.392734   2.441252   3.717692   0.000000
    20  C    2.398067   1.396542   2.439584   2.797370   0.000000
    21  C    2.393573   2.808510   4.211464   1.395188   2.427387
    22  C    2.757125   2.418969   3.710152   2.413395   1.397299
    23  C    2.976209   4.296494   5.144299   2.524738   5.064870
    24  C    5.396030   6.719005   7.301997   5.118375   7.649588
    25  C    5.388975   6.684442   7.461764   4.818849   7.399351
    26  C    4.324014   5.575569   6.475490   3.627778   6.172218
    27  C    2.421986   3.709669   4.846107   1.398386   4.190758
    28  C    3.662843   4.834502   6.078763   2.396750   5.030099
    29  C    3.659699   4.199381   5.600984   2.408076   3.708510
    30  C    4.140354   5.028213   6.391036   2.766899   4.838122
    31  H    6.617762   6.960435   6.178464   7.699882   8.328577
    32  H    5.939781   5.756395   4.604174   7.258175   7.002120
    33  H    4.847539   4.135211   2.761769   6.220034   5.126440
    34  H    3.409234   2.162312   1.084041   4.589681   2.690766
    35  H    6.720776   7.504166   7.154754   7.441583   8.854223
    36  H    6.269959   7.401662   7.532968   6.515601   8.598473
    37  H    6.404920   7.735485   8.270606   6.137115   8.693700
    38  H    6.392958   7.663691   8.474573   5.727838   8.296817
    39  H    4.663035   5.794466   6.812632   3.764732   6.162269
    40  H    4.550826   5.804550   6.983993   3.386076   6.089856
    41  H    5.220913   6.084879   7.456172   3.851068   5.806048
    42  H    4.538281   4.842319   6.226678   3.396120   4.071957
    43  H    3.840590   3.395787   4.580471   3.396897   2.148545
    44  H    3.388308   2.156133   2.682320   3.881222   1.084319
    45  H    2.673817   3.804545   4.543980   2.523722   4.608314
                   21         22         23         24         25
    21  C    0.000000
    22  C    1.397623   0.000000
    23  C    3.747202   4.855726   0.000000
    24  C    6.337249   7.495987   2.654949   0.000000
    25  C    5.847941   7.056619   2.415854   1.461866   0.000000
    26  C    4.584645   5.773496   1.474482   2.352887   1.330041
    27  C    2.433545   3.698495   1.516891   3.938330   3.572838
    28  C    2.790901   4.188075   2.507149   4.389691   3.768331
    29  C    1.395736   2.433041   4.230079   6.611609   5.939769
    30  C    2.412266   3.699847   3.752019   5.773407   5.048273
    31  H    8.967223   9.237270   6.756961   6.643775   7.677284
    32  H    8.284625   8.167828   7.155449   7.938535   8.707576
    33  H    6.918404   6.449035   6.940089   8.491093   8.949414
    34  H    4.859464   4.081258   6.132456   8.322172   8.430091
    35  H    8.822737   9.445156   5.788044   4.802608   6.010332
    36  H    7.882165   8.816254   4.305541   2.462451   3.773560
    37  H    7.345320   8.531448   3.719416   1.090317   2.201168
    38  H    6.639397   7.867263   3.434032   2.244002   1.089416
    39  H    4.431487   5.599995   2.237107   3.370866   2.103347
    40  H    3.874798   5.271752   2.738422   3.926802   3.253664
    41  H    3.395061   4.579632   4.614943   6.348915   5.533128
    42  H    2.158557   2.681676   5.299243   7.664162   6.930489
    43  H    2.155318   1.084313   5.802216   8.436517   7.898218
    44  H    3.405348   2.150884   6.107191   8.673904   8.430456
    45  H    3.720250   4.596983   1.091055   3.288040   3.010559
                   26         27         28         29         30
    26  C    0.000000
    27  C    2.459134   0.000000
    28  C    2.767714   1.397248   0.000000
    29  C    4.724032   2.808002   2.420528   0.000000
    30  C    3.979754   2.424928   1.396091   1.395616   0.000000
    31  H    7.698122   7.715983   9.010679  10.104218  10.115293
    32  H    8.332883   7.737499   9.120636   9.595277   9.957648
    33  H    8.226973   7.097672   8.446381   8.305754   8.975525
    34  H    7.409005   5.799178   6.983062   6.237201   7.167068
    35  H    6.402864   7.010778   8.110758   9.715801   9.395144
    36  H    4.500124   5.662896   6.467665   8.469002   7.846267
    37  H    3.324589   4.921208   5.238481   7.548653   6.615216
    38  H    2.126414   4.467429   4.429622   6.577598   5.597679
    39  H    1.090006   2.741597   2.737217   4.381623   3.664006
    40  H    2.570276   2.155796   1.084493   3.396397   2.147060
    41  H    4.597960   3.404468   2.151747   2.151652   1.084468
    42  H    5.715923   3.891866   3.400839   1.084357   2.151985
    43  H    6.594914   4.578941   4.834077   2.675372   4.063966
    44  H    7.200889   5.273212   6.087270   4.580651   5.801966
    45  H    2.020528   2.068314   3.231200   4.446659   4.267869
                   31         32         33         34         35
    31  H    0.000000
    32  H    2.568522   0.000000
    33  H    4.809392   2.463990   0.000000
    34  H    6.749872   4.848971   2.605176   0.000000
    35  H    2.463253   4.799924   6.624642   7.964563   0.000000
    36  H    4.788611   6.673618   7.902330   8.499646   2.548644
    37  H    6.989256   8.551313   9.317034   9.301309   4.886513
    38  H    8.546368   9.677286   9.958134   9.417484   6.747406
    39  H    8.591287   9.054256   8.734091   7.666302   7.396446
    40  H    9.275428   9.662461   9.214838   7.929637   8.098393
    41  H   11.103806  11.022321  10.055837   8.210975  10.260578
    42  H   11.084990  10.435462   8.975967   6.730373  10.776831
    43  H   10.289338   9.123404   7.269474   4.772498  10.526099
    44  H    8.813278   7.212209   5.081882   2.482660   9.574732
    45  H    6.367424   6.560143   6.241500   5.460389   5.670352
                   36         37         38         39         40
    36  H    0.000000
    37  H    2.357704   0.000000
    38  H    4.400123   2.578469   0.000000
    39  H    5.531222   4.266396   2.470277   0.000000
    40  H    6.190648   4.630177   3.769924   2.613267   0.000000
    41  H    8.555732   7.092868   5.919007   4.174968   2.466887
    42  H    9.551301   8.589050   7.500300   5.265765   4.286252
    43  H    9.856454   9.466087   8.640543   6.293168   5.899002
    44  H    9.508464   9.720753   9.319223   7.157091   7.154396
    45  H    4.536700   4.375000   3.960047   2.534432   3.648306
                   41         42         43         44         45
    41  H    0.000000
    42  H    2.475189   0.000000
    43  H    4.762670   2.466963   0.000000
    44  H    6.719995   4.760438   2.465863   0.000000
    45  H    5.205754   5.467510   5.566739   5.579968   0.000000
 Stoichiometry    C30H15(2)
 Framework group  C1[X(C30H15)]
 Deg. of freedom   129
 Full point group                 C1      NOp   1
 Largest Abelian subgroup         C1      NOp   1
 Largest concise Abelian subgroup C1      NOp   1
                         Standard orientation:                         
 ---------------------------------------------------------------------
 Center     Atomic      Atomic             Coordinates (Angstroms)
 Number     Number       Type             X           Y           Z
 ---------------------------------------------------------------------
      1          6           0       -0.662968    2.946309   -0.046648
      2          6           0       -2.064808    2.895524   -0.097830
      3          6           0       -2.717810    1.691516   -0.364373
      4          6           0       -1.926226    0.644640   -0.811919
      5          6           0       -0.538614    0.661427   -0.695026
      6          6           0        0.105779    1.768071   -0.133045
      7          6           0       -0.159120   -0.762493   -0.559953
      8          6           0       -2.400145   -0.658826   -0.739193
      9          6           0       -1.321979   -1.515907   -0.598474
     10          6           0       -4.047177    1.418986   -0.020955
     11          6           0       -3.625996   -0.968833   -0.165187
     12          6           0       -4.496877    0.095447    0.091581
     13          6           0       -1.429776   -2.740803    0.044081
     14          6           0       -3.799651   -2.269967    0.322579
     15          6           0       -2.714018   -3.154563    0.415471
     16          6           0        1.004239   -1.328086   -0.052400
     17          6           0        0.983558   -2.687845    0.274571
     18          6           0       -0.234307   -3.373162    0.401962
     19          6           0        2.187284   -0.593649   -0.079117
     20          6           0        2.203053   -3.330968    0.497179
     21          6           0        3.397418   -1.286826   -0.038718
     22          6           0        3.402203   -2.648295    0.277080
     23          6           0        1.064759    1.604142    0.453757
     24          6           0       -0.198131    3.926049    0.203541
     25          6           0        1.026570    3.956849    1.001169
     26          6           0        1.638491    2.782844    1.128732
     27          6           0        2.153861    0.796557   -0.226406
     28          6           0        3.332253    1.445430   -0.604107
     29          6           0        4.581696   -0.610124   -0.334755
     30          6           0        4.534941    0.740778   -0.682064
     31          1           0       -5.473362   -0.100285    0.520284
     32          1           0       -4.750844   -2.553505    0.758996
     33          1           0       -2.846962   -4.110334    0.909878
     34          1           0       -0.256619   -4.373042    0.820157
     35          1           0       -4.688196    2.225599    0.316831
     36          1           0       -2.654789    3.757380    0.196454
     37          1           0       -0.606616    4.870056   -0.158097
     38          1           0        1.414736    4.874011    1.442723
     39          1           0        2.561678    2.701617    1.702528
     40          1           0        3.329230    2.514139   -0.788433
     41          1           0        5.448432    1.261465   -0.947561
     42          1           0        5.529191   -1.137395   -0.342987
     43          1           0        4.342008   -3.182954    0.358574
     44          1           0        2.225123   -4.384300    0.753601
     45          1           0        0.755978    0.972213    1.287856
 ---------------------------------------------------------------------
 Rotational constants (GHZ):           0.2644095           0.1928070           0.1163534
 Standard basis: 6-311+G(d,p) (5D, 7F)
 There are   780 symmetry adapted cartesian basis functions of A   symmetry.
 There are   750 symmetry adapted basis functions of A   symmetry.
   750 basis functions,  1200 primitive gaussians,   780 cartesian basis functions
    98 alpha electrons       97 beta electrons
       nuclear repulsion energy      2708.6733045156 Hartrees.
 NAtoms=   45 NActive=   45 NUniq=   45 SFac= 1.00D+00 NAtFMM=   60 NAOKFM=F Big=F
 Integral buffers will be    131072 words long.
 Raffenetti 2 integral format.
 Two-electron integral symmetry is turned on.
 One-electron integrals computed using PRISM.
 NBasis=   750 RedAO= T EigKep=  1.27D-06  NBF=   750
 NBsUse=   729 1.00D-06 EigRej=  9.99D-07 NBFU=   729
 ExpMin= 4.38D-02 ExpMax= 4.56D+03 ExpMxC= 6.82D+02 IAcc=2 IRadAn=         4 AccDes= 0.00D+00
 Harris functional with IExCor=  402 and IRadAn=       4 diagonalized for initial guess.
 HarFok:  IExCor=  402 AccDes= 0.00D+00 IRadAn=         4 IDoV= 1 UseB2=F ITyADJ=14
 ICtDFT=  3500011 ScaDFX=  1.000000  1.000000  1.000000  1.000000
 FoFCou: FMM=F IPFlag=           0 FMFlag=      100000 FMFlg1=           0
         NFxFlg=           0 DoJE=T BraDBF=F KetDBF=T FulRan=T
         wScrn=  0.000000 ICntrl=       500 IOpCl=  0 I1Cent=   200000004 NGrid=           0
         NMat0=    1 NMatS0=      1 NMatT0=    0 NMatD0=    1 NMtDS0=    0 NMtDT0=    0
 Petite list used in FoFCou.
 Initial guess <Sx>= 0.0000 <Sy>= 0.0000 <Sz>= 0.5000 <S**2>= 0.7500 S= 0.5000
 Requested convergence on RMS density matrix=1.00D-08 within 128 cycles.
 Requested convergence on MAX density matrix=1.00D-06.
 Requested convergence on             energy=1.00D-06.
 No special actions if energy rises.
 Restarting incremental Fock formation.
 SCF Done:  E(UB3LYP) =  -1152.14153003     A.U. after   25 cycles
            NFock= 25  Conv=0.86D-08     -V/T= 2.0008
 <Sx>= 0.0000 <Sy>= 0.0000 <Sz>= 0.5000 <S**2>= 0.7906 S= 0.5201
 <L.S>=  0.00000000000    
 Annihilation of the first spin contaminant:
 S**2 before annihilation     0.7906,   after     0.7513

 **********************************************************************

            Population analysis using the SCF density.

 **********************************************************************

 Orbital symmetries:
 Alpha Orbitals:
       Occupied  (A) (A) (A) (A) (A) (A) (A) (A) (A) (A) (A) (A)
                 (A) (A) (A) (A) (A) (A) (A) (A) (A) (A) (A) (A)
                 (A) (A) (A) (A) (A) (A) (A) (A) (A) (A) (A) (A)
                 (A) (A) (A) (A) (A) (A) (A) (A) (A) (A) (A) (A)
                 (A) (A) (A) (A) (A) (A) (A) (A) (A) (A) (A) (A)
                 (A) (A) (A) (A) (A) (A) (A) (A) (A) (A) (A) (A)
                 (A) (A) (A) (A) (A) (A) (A) (A) (A) (A) (A) (A)
                 (A) (A) (A) (A) (A) (A) (A) (A) (A) (A) (A) (A)
                 (A) (A)
       Virtual   (A) (A) (A) (A) (A) (A) (A) (A) (A) (A) (A) (A)
                 (A) (A) (A) (A) (A) (A) (A) (A) (A) (A) (A) (A)
                 (A) (A) (A) (A) (A) (A) (A) (A) (A) (A) (A) (A)
                 (A) (A) (A) (A) (A) (A) (A) (A) (A) (A) (A) (A)
                 (A) (A) (A) (A) (A) (A) (A) (A) (A) (A) (A) (A)
                 (A) (A) (A) (A) (A) (A) (A) (A) (A) (A) (A) (A)
                 (A) (A) (A) (A) (A) (A) (A) (A) (A) (A) (A) (A)
                 (A) (A) (A) (A) (A) (A) (A) (A) (A) (A) (A) (A)
                 (A) (A) (A) (A) (A) (A) (A) (A) (A) (A) (A) (A)
                 (A) (A) (A) (A) (A) (A) (A) (A) (A) (A) (A) (A)
                 (A) (A) (A) (A) (A) (A) (A) (A) (A) (A) (A) (A)
                 (A) (A) (A) (A) (A) (A) (A) (A) (A) (A) (A) (A)
                 (A) (A) (A) (A) (A) (A) (A) (A) (A) (A) (A) (A)
                 (A) (A) (A) (A) (A) (A) (A) (A) (A) (A) (A) (A)
                 (A) (A) (A) (A) (A) (A) (A) (A) (A) (A) (A) (A)
                 (A) (A) (A) (A) (A) (A) (A) (A) (A) (A) (A) (A)
                 (A) (A) (A) (A) (A) (A) (A) (A) (A) (A) (A) (A)
                 (A) (A) (A) (A) (A) (A) (A) (A) (A) (A) (A) (A)
                 (A) (A) (A) (A) (A) (A) (A) (A) (A) (A) (A) (A)
                 (A) (A) (A) (A) (A) (A) (A) (A) (A) (A) (A) (A)
                 (A) (A) (A) (A) (A) (A) (A) (A) (A) (A) (A) (A)
                 (A) (A) (A) (A) (A) (A) (A) (A) (A) (A) (A) (A)
                 (A) (A) (A) (A) (A) (A) (A) (A) (A) (A) (A) (A)
                 (A) (A) (A) (A) (A) (A) (A) (A) (A) (A) (A) (A)
                 (A) (A) (A) (A) (A) (A) (A) (A) (A) (A) (A) (A)
                 (A) (A) (A) (A) (A) (A) (A) (A) (A) (A) (A) (A)
                 (A) (A) (A) (A) (A) (A) (A) (A) (A) (A) (A) (A)
                 (A) (A) (A) (A) (A) (A) (A) (A) (A) (A) (A) (A)
                 (A) (A) (A) (A) (A) (A) (A) (A) (A) (A) (A) (A)
                 (A) (A) (A) (A) (A) (A) (A) (A) (A) (A) (A) (A)
                 (A) (A) (A) (A) (A) (A) (A) (A) (A) (A) (A) (A)
                 (A) (A) (A) (A) (A) (A) (A) (A) (A) (A) (A) (A)
                 (A) (A) (A) (A) (A) (A) (A) (A) (A) (A) (A) (A)
                 (A) (A) (A) (A) (A) (A) (A) (A) (A) (A) (A) (A)
                 (A) (A) (A) (A) (A) (A) (A) (A) (A) (A) (A) (A)
                 (A) (A) (A) (A) (A) (A) (A) (A) (A) (A) (A) (A)
                 (A) (A) (A) (A) (A) (A) (A) (A) (A) (A) (A) (A)
                 (A) (A) (A) (A) (A) (A) (A) (A) (A) (A) (A) (A)
                 (A) (A) (A) (A) (A) (A) (A) (A) (A) (A) (A) (A)
                 (A) (A) (A) (A) (A) (A) (A) (A) (A) (A) (A) (A)
                 (A) (A) (A) (A) (A) (A) (A) (A) (A) (A) (A) (A)
                 (A) (A) (A) (A) (A) (A) (A) (A) (A) (A) (A) (A)
                 (A) (A) (A) (A) (A) (A) (A) (A) (A) (A) (A) (A)
                 (A) (A) (A) (A) (A) (A) (A) (A) (A) (A) (A) (A)
                 (A) (A) (A) (A) (A) (A) (A) (A) (A) (A) (A) (A)
                 (A) (A) (A) (A) (A) (A) (A) (A) (A) (A) (A) (A)
                 (A) (A) (A) (A) (A) (A) (A) (A) (A) (A) (A) (A)
                 (A) (A) (A) (A) (A) (A) (A) (A) (A) (A) (A) (A)
                 (A) (A) (A) (A) (A) (A) (A) (A) (A) (A) (A) (A)
                 (A) (A) (A) (A) (A) (A) (A) (A) (A) (A) (A) (A)
                 (A) (A) (A) (A) (A) (A) (A) (A) (A) (A) (A) (A)
                 (A) (A) (A) (A) (A) (A) (A) (A) (A) (A) (A) (A)
                 (A) (A) (A) (A) (A) (A) (A)
 Beta  Orbitals:
       Occupied  (A) (A) (A) (A) (A) (A) (A) (A) (A) (A) (A) (A)
                 (A) (A) (A) (A) (A) (A) (A) (A) (A) (A) (A) (A)
                 (A) (A) (A) (A) (A) (A) (A) (A) (A) (A) (A) (A)
                 (A) (A) (A) (A) (A) (A) (A) (A) (A) (A) (A) (A)
                 (A) (A) (A) (A) (A) (A) (A) (A) (A) (A) (A) (A)
                 (A) (A) (A) (A) (A) (A) (A) (A) (A) (A) (A) (A)
                 (A) (A) (A) (A) (A) (A) (A) (A) (A) (A) (A) (A)
                 (A) (A) (A) (A) (A) (A) (A) (A) (A) (A) (A) (A)
                 (A)
       Virtual   (A) (A) (A) (A) (A) (A) (A) (A) (A) (A) (A) (A)
                 (A) (A) (A) (A) (A) (A) (A) (A) (A) (A) (A) (A)
                 (A) (A) (A) (A) (A) (A) (A) (A) (A) (A) (A) (A)
                 (A) (A) (A) (A) (A) (A) (A) (A) (A) (A) (A) (A)
                 (A) (A) (A) (A) (A) (A) (A) (A) (A) (A) (A) (A)
                 (A) (A) (A) (A) (A) (A) (A) (A) (A) (A) (A) (A)
                 (A) (A) (A) (A) (A) (A) (A) (A) (A) (A) (A) (A)
                 (A) (A) (A) (A) (A) (A) (A) (A) (A) (A) (A) (A)
                 (A) (A) (A) (A) (A) (A) (A) (A) (A) (A) (A) (A)
                 (A) (A) (A) (A) (A) (A) (A) (A) (A) (A) (A) (A)
                 (A) (A) (A) (A) (A) (A) (A) (A) (A) (A) (A) (A)
                 (A) (A) (A) (A) (A) (A) (A) (A) (A) (A) (A) (A)
                 (A) (A) (A) (A) (A) (A) (A) (A) (A) (A) (A) (A)
                 (A) (A) (A) (A) (A) (A) (A) (A) (A) (A) (A) (A)
                 (A) (A) (A) (A) (A) (A) (A) (A) (A) (A) (A) (A)
                 (A) (A) (A) (A) (A) (A) (A) (A) (A) (A) (A) (A)
                 (A) (A) (A) (A) (A) (A) (A) (A) (A) (A) (A) (A)
                 (A) (A) (A) (A) (A) (A) (A) (A) (A) (A) (A) (A)
                 (A) (A) (A) (A) (A) (A) (A) (A) (A) (A) (A) (A)
                 (A) (A) (A) (A) (A) (A) (A) (A) (A) (A) (A) (A)
                 (A) (A) (A) (A) (A) (A) (A) (A) (A) (A) (A) (A)
                 (A) (A) (A) (A) (A) (A) (A) (A) (A) (A) (A) (A)
                 (A) (A) (A) (A) (A) (A) (A) (A) (A) (A) (A) (A)
                 (A) (A) (A) (A) (A) (A) (A) (A) (A) (A) (A) (A)
                 (A) (A) (A) (A) (A) (A) (A) (A) (A) (A) (A) (A)
                 (A) (A) (A) (A) (A) (A) (A) (A) (A) (A) (A) (A)
                 (A) (A) (A) (A) (A) (A) (A) (A) (A) (A) (A) (A)
                 (A) (A) (A) (A) (A) (A) (A) (A) (A) (A) (A) (A)
                 (A) (A) (A) (A) (A) (A) (A) (A) (A) (A) (A) (A)
                 (A) (A) (A) (A) (A) (A) (A) (A) (A) (A) (A) (A)
                 (A) (A) (A) (A) (A) (A) (A) (A) (A) (A) (A) (A)
                 (A) (A) (A) (A) (A) (A) (A) (A) (A) (A) (A) (A)
                 (A) (A) (A) (A) (A) (A) (A) (A) (A) (A) (A) (A)
                 (A) (A) (A) (A) (A) (A) (A) (A) (A) (A) (A) (A)
                 (A) (A) (A) (A) (A) (A) (A) (A) (A) (A) (A) (A)
                 (A) (A) (A) (A) (A) (A) (A) (A) (A) (A) (A) (A)
                 (A) (A) (A) (A) (A) (A) (A) (A) (A) (A) (A) (A)
                 (A) (A) (A) (A) (A) (A) (A) (A) (A) (A) (A) (A)
                 (A) (A) (A) (A) (A) (A) (A) (A) (A) (A) (A) (A)
                 (A) (A) (A) (A) (A) (A) (A) (A) (A) (A) (A) (A)
                 (A) (A) (A) (A) (A) (A) (A) (A) (A) (A) (A) (A)
                 (A) (A) (A) (A) (A) (A) (A) (A) (A) (A) (A) (A)
                 (A) (A) (A) (A) (A) (A) (A) (A) (A) (A) (A) (A)
                 (A) (A) (A) (A) (A) (A) (A) (A) (A) (A) (A) (A)
                 (A) (A) (A) (A) (A) (A) (A) (A) (A) (A) (A) (A)
                 (A) (A) (A) (A) (A) (A) (A) (A) (A) (A) (A) (A)
                 (A) (A) (A) (A) (A) (A) (A) (A) (A) (A) (A) (A)
                 (A) (A) (A) (A) (A) (A) (A) (A) (A) (A) (A) (A)
                 (A) (A) (A) (A) (A) (A) (A) (A) (A) (A) (A) (A)
                 (A) (A) (A) (A) (A) (A) (A) (A) (A) (A) (A) (A)
                 (A) (A) (A) (A) (A) (A) (A) (A) (A) (A) (A) (A)
                 (A) (A) (A) (A) (A) (A) (A) (A) (A) (A) (A) (A)
                 (A) (A) (A) (A) (A) (A) (A) (A)
 The electronic state is 2-A.
 Alpha  occ. eigenvalues --  -10.19546 -10.18488 -10.18474 -10.18405 -10.18342
 Alpha  occ. eigenvalues --  -10.18288 -10.18216 -10.18207 -10.18186 -10.18155
 Alpha  occ. eigenvalues --  -10.18151 -10.18143 -10.18136 -10.18122 -10.18102
 Alpha  occ. eigenvalues --  -10.18082 -10.18057 -10.18006 -10.17935 -10.17841
 Alpha  occ. eigenvalues --  -10.17831 -10.17676 -10.17667 -10.17610 -10.17421
 Alpha  occ. eigenvalues --  -10.16476 -10.16379 -10.16267 -10.15835 -10.15307
 Alpha  occ. eigenvalues --   -0.96950  -0.92357  -0.90442  -0.87214  -0.86363
 Alpha  occ. eigenvalues --   -0.84879  -0.82691  -0.80408  -0.79879  -0.78858
 Alpha  occ. eigenvalues --   -0.76266  -0.75203  -0.73360  -0.71372  -0.70799
 Alpha  occ. eigenvalues --   -0.68146  -0.66444  -0.64422  -0.63812  -0.63607
 Alpha  occ. eigenvalues --   -0.60981  -0.60296  -0.59281  -0.57889  -0.56128
 Alpha  occ. eigenvalues --   -0.54961  -0.53235  -0.52402  -0.51801  -0.50854
 Alpha  occ. eigenvalues --   -0.50244  -0.48644  -0.48390  -0.47130  -0.46615
 Alpha  occ. eigenvalues --   -0.46041  -0.45281  -0.44685  -0.43744  -0.43635
 Alpha  occ. eigenvalues --   -0.42929  -0.42729  -0.41747  -0.41060  -0.40698
 Alpha  occ. eigenvalues --   -0.40578  -0.40242  -0.39821  -0.39302  -0.38505
 Alpha  occ. eigenvalues --   -0.37463  -0.35707  -0.35574  -0.34745  -0.34349
 Alpha  occ. eigenvalues --   -0.33930  -0.33607  -0.32536  -0.31719  -0.30543
 Alpha  occ. eigenvalues --   -0.29303  -0.28163  -0.26584  -0.24222  -0.22989
 Alpha  occ. eigenvalues --   -0.21990  -0.20462  -0.16058
 Alpha virt. eigenvalues --   -0.08684  -0.06215  -0.04986  -0.02078  -0.01295
 Alpha virt. eigenvalues --   -0.00444  -0.00147   0.00576   0.00627   0.00754
 Alpha virt. eigenvalues --    0.01692   0.01752   0.02063   0.02725   0.03239
 Alpha virt. eigenvalues --    0.03347   0.03496   0.03697   0.04528   0.04824
 Alpha virt. eigenvalues --    0.04912   0.05208   0.05364   0.05966   0.06487
 Alpha virt. eigenvalues --    0.06650   0.06928   0.07399   0.07552   0.08113
 Alpha virt. eigenvalues --    0.08418   0.08862   0.09352   0.09436   0.09798
 Alpha virt. eigenvalues --    0.10148   0.10357   0.10588   0.10897   0.11205
 Alpha virt. eigenvalues --    0.11685   0.12266   0.12574   0.12980   0.13283
 Alpha virt. eigenvalues --    0.13761   0.14202   0.14328   0.14388   0.14813
 Alpha virt. eigenvalues --    0.14870   0.15185   0.15782   0.15988   0.16117
 Alpha virt. eigenvalues --    0.16487   0.16795   0.17024   0.17230   0.17386
 Alpha virt. eigenvalues --    0.17494   0.17829   0.17893   0.18059   0.18307
 Alpha virt. eigenvalues --    0.18657   0.19011   0.19097   0.19242   0.19666
 Alpha virt. eigenvalues --    0.19857   0.19950   0.20239   0.20475   0.20651
 Alpha virt. eigenvalues --    0.20824   0.21115   0.21453   0.21557   0.21595
 Alpha virt. eigenvalues --    0.21908   0.22422   0.22479   0.22559   0.22791
 Alpha virt. eigenvalues --    0.23000   0.23300   0.23471   0.23712   0.24279
 Alpha virt. eigenvalues --    0.24400   0.24859   0.25006   0.25306   0.25383
 Alpha virt. eigenvalues --    0.25492   0.25780   0.25885   0.25938   0.26315
 Alpha virt. eigenvalues --    0.26783   0.26923   0.27260   0.27349   0.27860
 Alpha virt. eigenvalues --    0.28074   0.28248   0.28422   0.28579   0.28936
 Alpha virt. eigenvalues --    0.29134   0.29633   0.29899   0.30073   0.30161
 Alpha virt. eigenvalues --    0.30563   0.30732   0.30855   0.31365   0.31503
 Alpha virt. eigenvalues --    0.32058   0.32151   0.32443   0.32594   0.32909
 Alpha virt. eigenvalues --    0.33356   0.33475   0.33591   0.34129   0.34267
 Alpha virt. eigenvalues --    0.34952   0.35128   0.35741   0.35765   0.36280
 Alpha virt. eigenvalues --    0.36328   0.36991   0.37499   0.37628   0.37860
 Alpha virt. eigenvalues --    0.37982   0.38863   0.39043   0.39421   0.40277
 Alpha virt. eigenvalues --    0.40585   0.40927   0.41757   0.42897   0.43812
 Alpha virt. eigenvalues --    0.45467   0.45665   0.46321   0.47190   0.47889
 Alpha virt. eigenvalues --    0.48266   0.49025   0.50210   0.50566   0.51027
 Alpha virt. eigenvalues --    0.51763   0.52329   0.52763   0.52812   0.53821
 Alpha virt. eigenvalues --    0.53931   0.54865   0.55125   0.55607   0.55969
 Alpha virt. eigenvalues --    0.56110   0.57053   0.57559   0.57959   0.58104
 Alpha virt. eigenvalues --    0.58502   0.58662   0.59316   0.59642   0.60034
 Alpha virt. eigenvalues --    0.60195   0.60514   0.60805   0.60983   0.61088
 Alpha virt. eigenvalues --    0.61724   0.61823   0.62588   0.63027   0.63369
 Alpha virt. eigenvalues --    0.64192   0.64485   0.64950   0.65338   0.65591
 Alpha virt. eigenvalues --    0.65843   0.66181   0.66753   0.67250   0.67306
 Alpha virt. eigenvalues --    0.68034   0.68241   0.68840   0.69533   0.70156
 Alpha virt. eigenvalues --    0.70540   0.70766   0.71054   0.71196   0.71544
 Alpha virt. eigenvalues --    0.72330   0.72881   0.73249   0.73417   0.73811
 Alpha virt. eigenvalues --    0.74013   0.74269   0.74323   0.74742   0.75008
 Alpha virt. eigenvalues --    0.75036   0.75930   0.75968   0.76302   0.76407
 Alpha virt. eigenvalues --    0.76692   0.77145   0.77348   0.77919   0.78386
 Alpha virt. eigenvalues --    0.78761   0.78824   0.79324   0.79648   0.79969
 Alpha virt. eigenvalues --    0.80575   0.80831   0.81408   0.82365   0.82548
 Alpha virt. eigenvalues --    0.82654   0.83675   0.83961   0.84090   0.85010
 Alpha virt. eigenvalues --    0.85604   0.86173   0.86310   0.86526   0.87541
 Alpha virt. eigenvalues --    0.87796   0.88038   0.89266   0.89418   0.89942
 Alpha virt. eigenvalues --    0.90756   0.91592   0.92296   0.92790   0.92897
 Alpha virt. eigenvalues --    0.93414   0.93871   0.94398   0.94703   0.95461
 Alpha virt. eigenvalues --    0.95827   0.96202   0.96528   0.97013   0.97474
 Alpha virt. eigenvalues --    0.98251   0.98721   0.99354   1.00397   1.00860
 Alpha virt. eigenvalues --    1.01907   1.02671   1.03309   1.04161   1.04560
 Alpha virt. eigenvalues --    1.04822   1.05273   1.06211   1.07974   1.08501
 Alpha virt. eigenvalues --    1.08942   1.09347   1.10057   1.10596   1.11857
 Alpha virt. eigenvalues --    1.12018   1.12604   1.13579   1.14497   1.14961
 Alpha virt. eigenvalues --    1.15790   1.16476   1.16771   1.17551   1.18573
 Alpha virt. eigenvalues --    1.20312   1.20555   1.21777   1.24155   1.24289
 Alpha virt. eigenvalues --    1.25654   1.26625   1.27056   1.27708   1.28793
 Alpha virt. eigenvalues --    1.29231   1.30037   1.32795   1.33960   1.34508
 Alpha virt. eigenvalues --    1.35121   1.35842   1.36799   1.38993   1.41248
 Alpha virt. eigenvalues --    1.42168   1.42827   1.43211   1.44588   1.46359
 Alpha virt. eigenvalues --    1.47077   1.47456   1.48126   1.49194   1.49549
 Alpha virt. eigenvalues --    1.50766   1.50920   1.51397   1.52680   1.53097
 Alpha virt. eigenvalues --    1.53607   1.53852   1.54619   1.55021   1.55634
 Alpha virt. eigenvalues --    1.56305   1.57185   1.58002   1.58519   1.58785
 Alpha virt. eigenvalues --    1.59020   1.59784   1.60139   1.60877   1.61580
 Alpha virt. eigenvalues --    1.62700   1.63196   1.64374   1.64552   1.65241
 Alpha virt. eigenvalues --    1.65827   1.67012   1.67473   1.68233   1.68727
 Alpha virt. eigenvalues --    1.69950   1.70991   1.71305   1.71819   1.72154
 Alpha virt. eigenvalues --    1.72754   1.73622   1.74740   1.75167   1.75542
 Alpha virt. eigenvalues --    1.76046   1.76555   1.77748   1.78262   1.78745
 Alpha virt. eigenvalues --    1.79256   1.80370   1.80918   1.81838   1.82722
 Alpha virt. eigenvalues --    1.83338   1.83706   1.84165   1.85673   1.86262
 Alpha virt. eigenvalues --    1.86643   1.87249   1.88474   1.89012   1.89817
 Alpha virt. eigenvalues --    1.90375   1.91263   1.91957   1.92253   1.93730
 Alpha virt. eigenvalues --    1.93951   1.94079   1.94969   1.95534   1.96103
 Alpha virt. eigenvalues --    1.97001   1.97791   1.98059   1.98484   1.99046
 Alpha virt. eigenvalues --    1.99653   2.00813   2.01666   2.01849   2.02293
 Alpha virt. eigenvalues --    2.02647   2.03783   2.04656   2.06099   2.06309
 Alpha virt. eigenvalues --    2.06627   2.07556   2.08895   2.09489   2.10316
 Alpha virt. eigenvalues --    2.10606   2.11477   2.13156   2.14011   2.14858
 Alpha virt. eigenvalues --    2.15557   2.16311   2.17008   2.17694   2.19297
 Alpha virt. eigenvalues --    2.20052   2.20349   2.21779   2.22211   2.23604
 Alpha virt. eigenvalues --    2.24364   2.25553   2.26142   2.27415   2.29313
 Alpha virt. eigenvalues --    2.30098   2.30503   2.31704   2.32726   2.33427
 Alpha virt. eigenvalues --    2.34559   2.36267   2.38021   2.39018   2.39932
 Alpha virt. eigenvalues --    2.41500   2.41951   2.42436   2.44180   2.45271
 Alpha virt. eigenvalues --    2.45936   2.46907   2.48696   2.50141   2.51683
 Alpha virt. eigenvalues --    2.52666   2.54272   2.55849   2.56288   2.56556
 Alpha virt. eigenvalues --    2.57818   2.59176   2.60445   2.61597   2.63277
 Alpha virt. eigenvalues --    2.63499   2.65423   2.66336   2.67664   2.69198
 Alpha virt. eigenvalues --    2.70736   2.71140   2.71535   2.72176   2.73010
 Alpha virt. eigenvalues --    2.73120   2.73868   2.73935   2.74685   2.75061
 Alpha virt. eigenvalues --    2.75350   2.76059   2.76274   2.76804   2.77280
 Alpha virt. eigenvalues --    2.77792   2.78319   2.78579   2.79111   2.79882
 Alpha virt. eigenvalues --    2.80609   2.80748   2.81487   2.82124   2.82555
 Alpha virt. eigenvalues --    2.84174   2.85167   2.85965   2.86483   2.87435
 Alpha virt. eigenvalues --    2.88470   2.89671   2.90250   2.91472   2.91825
 Alpha virt. eigenvalues --    2.92398   2.93000   2.94357   2.94532   2.96361
 Alpha virt. eigenvalues --    2.96994   2.97820   2.98195   3.01525   3.02356
 Alpha virt. eigenvalues --    3.04842   3.05503   3.05893   3.06765   3.07973
 Alpha virt. eigenvalues --    3.09339   3.11730   3.14281   3.15493   3.16755
 Alpha virt. eigenvalues --    3.19072   3.20188   3.21889   3.23239   3.24072
 Alpha virt. eigenvalues --    3.25735   3.26781   3.27152   3.27651   3.28259
 Alpha virt. eigenvalues --    3.29423   3.30541   3.32278   3.35332   3.36760
 Alpha virt. eigenvalues --    3.38190   3.39299   3.40169   3.41470   3.42199
 Alpha virt. eigenvalues --    3.43611   3.45675   3.47755   3.48211   3.49237
 Alpha virt. eigenvalues --    3.49521   3.50481   3.52249   3.54771   3.55452
 Alpha virt. eigenvalues --    3.56580   3.57935   3.60255   3.62317   3.65606
 Alpha virt. eigenvalues --    3.65789   3.67541   3.67714   3.72095   3.73663
 Alpha virt. eigenvalues --    3.81295   3.81959   3.85218   3.88918   3.92940
 Alpha virt. eigenvalues --    3.99147   4.01562   4.02570   4.04743   4.07966
 Alpha virt. eigenvalues --    4.10011   4.11375   4.12333   4.14391   4.15363
 Alpha virt. eigenvalues --    4.21179   4.23931   4.26711   4.32698   4.35509
 Alpha virt. eigenvalues --    4.38479   4.44264   4.58059   4.63708   4.68324
 Alpha virt. eigenvalues --    4.74484   4.81050   4.83406   4.85464   4.89865
 Alpha virt. eigenvalues --    4.97579  23.42644  23.61076  23.67122  23.80563
 Alpha virt. eigenvalues --   23.82061  23.83809  23.88876  23.92365  23.97997
 Alpha virt. eigenvalues --   23.99863  24.00828  24.02628  24.04512  24.05838
 Alpha virt. eigenvalues --   24.07023  24.09387  24.10052  24.10380  24.11371
 Alpha virt. eigenvalues --   24.11781  24.13414  24.14691  24.16382  24.17005
 Alpha virt. eigenvalues --   24.18782  24.20403  24.24459  24.28254  25.26530
 Alpha virt. eigenvalues --   25.36329
  Beta  occ. eigenvalues --  -10.19487 -10.18489 -10.18483 -10.18409 -10.18343
  Beta  occ. eigenvalues --  -10.18282 -10.18260 -10.18252 -10.18209 -10.18205
  Beta  occ. eigenvalues --  -10.18152 -10.18139 -10.18081 -10.18033 -10.18032
  Beta  occ. eigenvalues --  -10.17987 -10.17935 -10.17912 -10.17853 -10.17831
  Beta  occ. eigenvalues --  -10.17788 -10.17773 -10.17599 -10.17524 -10.17074
  Beta  occ. eigenvalues --  -10.16386 -10.16328 -10.16238 -10.15777 -10.14976
  Beta  occ. eigenvalues --   -0.96629  -0.92251  -0.90329  -0.86773  -0.86246
  Beta  occ. eigenvalues --   -0.84745  -0.82598  -0.80206  -0.79726  -0.78690
  Beta  occ. eigenvalues --   -0.76118  -0.75110  -0.73308  -0.71185  -0.70538
  Beta  occ. eigenvalues --   -0.67793  -0.66197  -0.64307  -0.63671  -0.63409
  Beta  occ. eigenvalues --   -0.60789  -0.60243  -0.59093  -0.57658  -0.56056
  Beta  occ. eigenvalues --   -0.54727  -0.52871  -0.52358  -0.51653  -0.50730
  Beta  occ. eigenvalues --   -0.49988  -0.48436  -0.48295  -0.47008  -0.46499
  Beta  occ. eigenvalues --   -0.45967  -0.45164  -0.44559  -0.43610  -0.43434
  Beta  occ. eigenvalues --   -0.42765  -0.42649  -0.41422  -0.40890  -0.40583
  Beta  occ. eigenvalues --   -0.40475  -0.40126  -0.39448  -0.39146  -0.38436
  Beta  occ. eigenvalues --   -0.37216  -0.35527  -0.35409  -0.34646  -0.34230
  Beta  occ. eigenvalues --   -0.33766  -0.33478  -0.32356  -0.31224  -0.29969
  Beta  occ. eigenvalues --   -0.29169  -0.27703  -0.26175  -0.23747  -0.22914
  Beta  occ. eigenvalues --   -0.21274  -0.20008
  Beta virt. eigenvalues --   -0.09739  -0.07610  -0.06110  -0.04669  -0.01615
  Beta virt. eigenvalues --   -0.00991  -0.00142  -0.00084   0.00645   0.00718
  Beta virt. eigenvalues --    0.00792   0.01726   0.01788   0.02125   0.02742
  Beta virt. eigenvalues --    0.03261   0.03405   0.03640   0.03838   0.04616
  Beta virt. eigenvalues --    0.04865   0.04968   0.05325   0.05399   0.06005
  Beta virt. eigenvalues --    0.06539   0.06666   0.07232   0.07450   0.07599
  Beta virt. eigenvalues --    0.08265   0.08426   0.08902   0.09421   0.09611
  Beta virt. eigenvalues --    0.09856   0.10189   0.10399   0.10667   0.11075
  Beta virt. eigenvalues --    0.11316   0.11712   0.12337   0.12633   0.13020
  Beta virt. eigenvalues --    0.13354   0.13799   0.14222   0.14426   0.14470
  Beta virt. eigenvalues --    0.14853   0.15034   0.15239   0.15836   0.16034
  Beta virt. eigenvalues --    0.16184   0.16560   0.16839   0.17077   0.17293
  Beta virt. eigenvalues --    0.17410   0.17593   0.17867   0.17931   0.18118
  Beta virt. eigenvalues --    0.18331   0.18712   0.19054   0.19158   0.19297
  Beta virt. eigenvalues --    0.19699   0.19892   0.20016   0.20303   0.20560
  Beta virt. eigenvalues --    0.20720   0.20888   0.21146   0.21511   0.21600
  Beta virt. eigenvalues --    0.21619   0.22012   0.22504   0.22549   0.22575
  Beta virt. eigenvalues --    0.22879   0.23062   0.23351   0.23536   0.23789
  Beta virt. eigenvalues --    0.24358   0.24463   0.24919   0.25036   0.25370
  Beta virt. eigenvalues --    0.25422   0.25556   0.25815   0.25931   0.26007
  Beta virt. eigenvalues --    0.26398   0.26850   0.26956   0.27305   0.27391
  Beta virt. eigenvalues --    0.27918   0.28171   0.28348   0.28506   0.28608
  Beta virt. eigenvalues --    0.29022   0.29215   0.29684   0.29944   0.30138
[...]
 22,-0.00000139,0.00002022,-0.00000171,0.00000253,0.00007102,0.00000970
 ,0.00000898,0.00000648,-0.00000432,-0.00000047,-0.00000881,-0.00000462
 ,-0.00000127,0.00009243,0.00038781,-0.00007292,0.00018962,0.00017912,-
 0.00000384,-0.00002643,-0.00008865,-0.00000387,0.00082225,0.00116748,-
 0.00081242,0.00020675,-0.00039055,0.00007445,0.00468740,0.00329685,-0.
 00117436,0.00056059,0.00203552,-0.00046831,-0.00000180,-0.00001181,0.0
 0005314,0.00001001,-0.00000349,-0.00001459,0.00003845,0.00001225,0.000
 03414,-0.00004790,-0.00004960,0.00009691,-0.00000381,0.00060556,-0.000
 19995,-0.00364061,0.00320238,-0.00228011,-0.23351990,-0.12676245,0.038
 11315,-0.01794420,-0.01897830,0.00650984,0.00000014,-0.00000631,-0.000
 00103,0.00000018,-0.00000620,-0.00000050,0.00000561,-0.00000385,0.0000
 0074,0.00000819,-0.00000111,-0.00000184,-0.00000524,-0.00000244,-0.000
 00139,-0.00000451,-0.00000186,-0.00000181,-0.00000572,-0.00000821,-0.0
 0000224,-0.00000792,0.00000321,0.00000014,0.00001034,-0.00003681,-0.00
 004646,-0.00089089,-0.00082838,0.00043521,0.00094963,0.00039744,0.0002
 0238,0.24818563,0.00000857,-0.00000283,-0.00001099,-0.00000592,-0.0000
 0687,-0.00000698,-0.00001820,-0.00000219,-0.00000415,0.00000246,0.0000
 0521,-0.00001035,0.00007794,0.00001217,0.00004652,-0.00004577,-0.00002
 202,0.00000330,0.00028749,-0.00040381,0.00010185,0.00002446,-0.0000531
 5,-0.00001672,-0.00011108,-0.00002690,-0.00006827,0.00000043,0.0000098
 2,0.00000013,-0.00000023,-0.00001721,0.00000135,0.00000767,-0.00000746
 ,0.00000391,-0.00001966,-0.00005247,-0.00000308,-0.00001792,-0.0000189
 7,-0.00000750,0.00001242,0.00003593,0.00000554,-0.00155403,-0.00018197
 ,0.00021093,-0.00014123,0.00007668,0.00006277,0.00012450,0.00008432,-0
 .00000522,0.00294535,-0.00315723,0.00306453,0.00049781,0.00008498,-0.0
 0008929,-0.02406553,-0.01313112,0.00512075,-0.00213646,0.00036760,-0.0
 0156538,-0.00015630,-0.00005831,-0.00033364,-0.00000783,-0.00000550,0.
 00000005,-0.00000685,0.00001062,-0.00000101,-0.00004593,-0.00002195,-0
 .00000802,0.00077130,-0.00042930,-0.00005810,0.00222461,0.00151843,0.0
 0269854,-0.12611109,-0.14541774,0.03618354,0.01005726,0.00986100,-0.00
 178695,-0.00000195,-0.00000356,-0.00000094,-0.00000003,-0.00000252,0.0
 0000076,0.00000442,-0.00000721,-0.00000063,0.00001688,-0.00003020,0.00
 000747,-0.00000271,-0.00000197,-0.00000010,-0.00000330,-0.00000155,0.0
 0000253,-0.00000269,0.00000036,-0.00000022,-0.00000487,0.00000144,-0.0
 0000101,-0.00000387,0.00000919,0.00000213,0.00047209,0.00020625,-0.000
 09270,-0.00037372,-0.00003183,-0.00183925,0.13602390,0.15077181,-0.000
 01564,-0.00001781,-0.00000140,0.00000543,-0.00000258,-0.00002024,-0.00
 001366,-0.00001137,0.00000138,0.00003004,0.00002284,-0.00000919,-0.000
 02656,-0.00003557,0.00002085,-0.00011364,-0.00006630,0.00005843,-0.000
 21191,0.00019989,0.00005108,0.00001348,0.00004291,-0.00002963,0.000065
 18,-0.00003530,0.00001597,-0.00000013,0.00002037,-0.00000002,-0.000002
 39,-0.00002305,-0.00000025,0.00001816,-0.00000296,0.00001071,-0.000013
 43,-0.00000972,-0.00002658,-0.00000658,0.00000710,-0.00000394,0.000005
 00,0.00000174,-0.00000157,0.00057472,0.00037633,0.00000806,0.00011967,
 -0.00009269,0.00003587,-0.00002677,0.00000799,0.00002498,0.00024692,0.
 00334927,0.00429721,-0.00019620,-0.00017221,-0.00003739,0.00912272,0.0
 0478824,0.00121968,0.00110873,-0.00115583,-0.00285968,-0.00014924,-0.0
 0040733,-0.00070695,-0.00000062,-0.00000699,-0.00000724,0.00002841,-0.
 00001863,0.00000972,-0.00006475,0.00004719,-0.00002099,-0.00047893,0.0
 0045260,-0.00098546,-0.00172042,0.00338975,0.00631440,0.03766790,0.037
 20240,-0.04813233,-0.00514793,-0.00403715,0.00503049,0.00000174,0.0000
 0115,0.00000066,-0.00000019,0.00000065,0.00000218,-0.00000115,0.000003
 16,0.00000018,-0.00000573,0.00001067,0.00001243,0.00000053,0.00000100,
 0.00000120,0.00000095,-0.00000195,0.00000230,0.00000103,-0.00000336,-0
 .00000059,0.00000580,-0.00000056,0.00000923,0.00001054,-0.00003540,-0.
 00000761,-0.00036251,-0.00018986,0.00032258,0.00050331,-0.00187651,-0.
 00366209,-0.04053897,-0.04188058,0.03873684,-0.00001696,-0.00001123,-0
 .00001355,-0.00001454,-0.00001084,-0.00000628,-0.00002253,-0.00001496,
 -0.00000923,0.00003862,-0.00000907,0.00000383,0.00005823,0.00000563,0.
 00000168,0.00002886,0.00009214,0.00003425,0.00004137,-0.00014885,0.000
 09456,-0.00003180,-0.00000583,-0.00000713,-0.00007381,0.00007603,-0.00
 004508,-0.00000380,0.00004207,0.00000717,-0.00003000,-0.00002506,-0.00
 000486,0.00004587,-0.00001522,0.00000660,0.00008762,0.00008718,0.00008
 575,0.00002395,0.00000039,-0.00000236,0.00002422,-0.00001421,0.0000102
 4,0.00005862,0.00074729,-0.00014547,0.00073140,0.00192556,-0.00084648,
 0.00021771,-0.00005052,0.00000586,-0.00326583,0.00332175,-0.00165929,0
 .00824078,0.00635729,-0.00133083,-0.01902996,-0.01999631,0.00375483,-0
 .20947030,-0.13562521,0.02155410,-0.00026521,0.00032186,-0.00013510,0.
 00002354,-0.00001340,0.00000382,-0.00001837,0.00006948,0.00002107,-0.0
 0009020,-0.00014927,0.00006169,-0.00053312,-0.00130020,0.00075390,0.00
 012952,0.00010697,-0.00007311,0.00087577,-0.00207746,0.00109943,0.0000
 4925,0.00042382,-0.00008674,0.00000097,-0.00000356,-0.00000076,0.00000
 332,-0.00000011,-0.00000149,0.00000219,-0.00000384,0.00000039,-0.00001
 013,-0.00000433,-0.00002175,-0.00000351,-0.00000229,-0.00000037,-0.000
 00321,-0.00000361,0.00000066,-0.00000491,-0.00000438,-0.00000024,-0.00
 001723,0.00000195,-0.00001783,0.00000049,0.00001183,-0.00001066,0.0000
 4514,0.00006965,-0.00005580,-0.00004138,0.00001617,-0.00002481,0.00033
 108,0.00118951,-0.00053553,0.22095742,0.00003849,-0.00000648,0.0000087
 6,-0.00000138,-0.00000621,0.00000015,-0.00001123,0.00002191,-0.0000000
 9,-0.00005041,-0.00001920,-0.00000470,0.00002771,0.00000023,0.00000515
 ,-0.00005249,-0.00005034,-0.00002014,-0.00005564,0.00008125,-0.0001010
 8,-0.00000345,-0.00001984,-0.00001026,0.00010003,0.00002971,0.00004718
 ,0.00000535,-0.00002942,-0.00000334,0.00005610,0.00000960,0.00000920,-
 0.00003827,0.00001551,-0.00000623,0.00018226,-0.00048627,-0.00028827,-
 0.00002002,-0.00008164,-0.00000109,-0.00013936,0.00006615,-0.00003217,
 0.00028731,0.00002243,-0.00005237,0.00317621,-0.00333164,0.00320564,-0
 .00124278,-0.00025634,0.00002203,0.00191574,-0.00030555,0.00107340,-0.
 02464157,-0.01686476,0.00363823,0.00876614,0.00745818,-0.00052909,-0.1
 3551889,-0.17386536,0.02603319,0.00014283,-0.00006052,-0.00001984,-0.0
 0002464,0.00001149,-0.00000312,-0.00000085,-0.00002480,-0.00000860,0.0
 0004261,0.00003961,-0.00001287,0.00034152,0.00022308,-0.00014273,0.000
 13343,0.00010682,-0.00003732,0.00182583,0.00064530,-0.00053422,-0.0002
 4673,0.00015315,-0.00009016,-0.00000275,-0.00000699,-0.00000037,-0.000
 01644,-0.00001680,0.00000054,0.00001373,-0.00000992,-0.00000017,0.0000
 5608,-0.00002445,0.00010122,-0.00000544,-0.00000263,-0.00000215,-0.000
 00597,-0.00000020,-0.00000177,-0.00000486,0.00000037,-0.00000070,-0.00
 000257,0.00000294,0.00000666,-0.00000250,0.00000088,0.00000045,-0.0000
 1527,0.00000092,0.00000668,-0.00003521,0.00001900,0.00001020,-0.000093
 92,0.00001830,0.00003329,0.14479611,0.18596370,-0.00001190,-0.00001843
 ,0.00000119,-0.00001331,0.00001502,-0.00000363,0.00002582,-0.00001286,
 0.00002910,0.00000289,-0.00007763,-0.00000044,0.00006644,0.00002166,0.
 00001898,0.00002058,-0.00002087,-0.00000344,-0.00008764,-0.00039334,-0
 .00040033,-0.00014253,-0.00013376,-0.00008136,-0.00011156,0.00032948,0
 .00016428,0.00000821,0.00001080,-0.00000331,-0.00008074,0.00013619,0.0
 0000186,-0.00000602,-0.00001599,-0.00000680,0.00024973,0.00040692,-0.0
 0076291,0.00011243,0.00003101,0.00007731,0.00002490,-0.00009889,-0.000
 11349,-0.00045257,0.00084160,-0.00076993,-0.00134491,0.00333332,0.0086
 7666,0.00069935,-0.00014576,0.00032121,-0.00111564,0.00030316,0.003104
 30,0.00638681,0.00351725,0.00400601,-0.00126531,-0.00302982,0.00311098
 ,0.02051417,0.02794092,-0.04144149,-0.00002353,0.00016453,-0.00002289,
 -0.00001133,0.00000322,-0.00000429,-0.00000219,0.00001207,-0.00000436,
 -0.00002781,-0.00002272,0.00001246,-0.00034918,-0.00008097,0.00023818,
 -0.00011710,-0.00019274,0.00011565,-0.00075321,-0.00087206,-0.00175508
 ,0.00039031,-0.00000444,-0.00013103,-0.00000010,0.00000047,0.00000290,
 0.00000588,0.00000087,0.00002032,-0.00000445,0.00000052,0.00000117,-0.
 00003263,-0.00001580,0.00023904,0.00000205,-0.00000043,-0.00000430,0.0
 0000133,-0.00000033,0.00000030,0.00000064,-0.00000220,0.00000185,-0.00
 000301,-0.00000194,-0.00000017,0.00000111,-0.00000651,0.00000663,0.000
 00609,0.00002012,0.00002465,0.00000284,0.00002789,0.00005944,0.0000200
 2,0.00023548,0.00020725,-0.02284933,-0.03082565,0.03049942,0.00000901,
 0.00001555,0.00000126,0.00000631,-0.00000027,0.00000117,0.00002231,-0.
 00001895,-0.00000876,-0.00017128,0.00007685,-0.00002870,-0.00002982,-0
 .00029093,0.00006883,-0.00002241,-0.00002187,-0.00001538,-0.00099236,0
 .00097386,-0.00007394,0.00017939,-0.00005455,-0.00000877,0.00022848,-0
 .00002184,0.00003806,-0.00000979,-0.00004941,-0.00001032,0.00005652,-0
 .00006610,0.00000757,-0.00004300,0.00001259,-0.00000674,0.00008512,-0.
 00057523,0.00005502,-0.00013913,-0.00002502,-0.00003088,-0.00001785,0.
 00015875,0.00000729,-0.00082861,-0.00397812,-0.00011985,-0.01797430,0.
 00892816,-0.00238744,0.00071790,0.00228779,0.00033805,0.00024584,-0.00
 035736,0.00010610,-0.30502746,0.07709772,-0.03167961,0.00195020,0.0003
 2529,-0.00049768,-0.00265116,-0.00039183,-0.00024025,0.00000904,-0.000
 00460,-0.00001503,-0.00001103,-0.00000574,-0.00000328,-0.00000738,0.00
 000012,0.00000020,0.00001096,-0.00001153,0.00000678,0.00000888,0.00008
 132,0.00007514,0.00001875,-0.00002425,0.00000118,-0.00036785,-0.000037
 85,0.00000216,0.00006283,0.00019876,-0.00004208,-0.00000558,-0.0000092
 3,-0.00000243,-0.00000097,-0.00001179,0.00000008,0.00001370,-0.0000290
 5,-0.00000046,0.00068424,-0.00105180,-0.00014450,-0.00000562,-0.000007
 43,-0.00000020,-0.00000780,-0.00000143,-0.00000044,-0.00000746,0.00000
 151,-0.00000131,-0.00000658,0.00000446,-0.00000067,-0.00000300,0.00000
 974,-0.00000101,-0.00001253,0.00000630,-0.00002030,-0.00003297,0.00000
 699,-0.00000530,0.00001132,0.00001262,-0.00000982,0.00091044,0.0003291
 1,0.00026180,0.32313448,-0.00001131,0.00002335,0.00000173,0.00000205,0
 .00000974,0.00000481,0.00002772,-0.00003180,-0.00001937,-0.00013172,0.
 00003318,-0.00002703,-0.00008611,-0.00024020,0.00005792,0.00002412,-0.
 00005848,-0.00002561,-0.00099752,0.00051324,-0.00000425,0.00008321,-0.
 00003960,0.00003616,-0.00018083,0.00014788,-0.00004529,-0.00001996,-0.
 00000522,-0.00000513,-0.00004827,0.00000132,-0.00000730,0.00001278,-0.
 00000501,-0.00000160,0.00044611,0.00013338,-0.00002707,0.00001232,0.00
 003014,0.00000884,-0.00001046,-0.00005039,0.00001742,-0.00237744,-0.00
 291725,0.00070624,-0.01940731,0.00883285,-0.00206892,-0.00160020,0.000
 91302,-0.00031965,-0.00016522,-0.00060389,-0.00003910,0.07628626,-0.08
 119516,0.01254874,-0.00083537,-0.00430760,0.00312668,0.03070165,-0.004
 85476,0.00361396,0.00003301,-0.00001899,0.00001569,-0.00000704,-0.0000
 0981,-0.00000392,0.00000405,-0.00000761,-0.00000153,0.00001300,0.00003
 226,-0.00002426,-0.00001294,0.00014829,-0.00017846,-0.00010473,-0.0000
 6564,0.00004280,0.00142807,0.00027441,-0.00002365,0.00008346,-0.000495
 75,0.00009755,-0.00000165,0.00000123,0.00000023,0.00000783,0.00000477,
 -0.00000126,-0.00000832,-0.00001091,-0.00000305,0.00037109,-0.00030272
 ,0.00009824,0.00000177,-0.00000309,0.00000263,0.00000062,0.00000154,0.
 00000149,0.00000046,0.00000341,0.00000070,0.00000396,-0.00000150,0.000
 00412,-0.00000726,0.00000357,0.00000786,0.00000934,0.00000313,0.000005
 09,0.00014591,-0.00005488,0.00004375,-0.00005467,-0.00003089,0.0000313
 9,-0.00017454,0.00058362,-0.00138511,-0.08347777,0.08361443,-0.0000028
 7,-0.00000318,-0.00000669,-0.00000169,0.00000295,-0.00000417,-0.000000
 13,-0.00000578,0.00000392,0.00001748,-0.00000672,-0.00001363,0.0000104
 2,0.00004453,0.00004532,0.00000156,-0.00000880,-0.00001473,0.00010999,
 0.00001222,0.00018567,-0.00001095,0.00000003,0.00002797,-0.00008428,0.
 00008835,-0.00005735,-0.00001627,0.00001486,-0.00000881,-0.00006027,0.
 00001259,-0.00001396,0.00003279,-0.00000083,0.00000734,0.00031911,0.00
 012754,-0.00014436,0.00006456,0.00000823,0.00001864,-0.00004625,-0.000
 08901,0.00004254,0.00006959,0.00054955,0.00367694,0.00323565,0.0007634
 2,0.00276309,0.00005584,-0.00063743,-0.00179190,-0.00014491,-0.0004225
 5,-0.00052705,-0.03112645,0.01069324,-0.04037523,0.00036777,0.00334204
 ,0.00888451,-0.00750601,0.00363478,0.00349240,0.00002880,0.00000495,0.
 00000990,-0.00000221,-0.00000135,-0.00000101,0.00000821,0.,0.00000137,
 0.00000796,0.00001799,0.00000206,-0.00000846,-0.00033630,-0.00070222,0
 .00003292,0.00012754,0.00010599,-0.00001135,-0.00006332,0.00013154,-0.
 00003053,-0.00019317,-0.00066737,-0.00000058,-0.00000127,0.00000342,0.
 00000100,-0.00000003,-0.00000792,-0.00000040,-0.00000172,0.00001394,-0
 .00004209,-0.00004012,0.00029993,0.00000009,0.00000077,0.00000030,-0.0
 0000053,-0.00000064,0.00000271,-0.00000116,-0.00000113,0.00000182,0.00
 000055,-0.00000032,0.00000163,-0.00000540,-0.00000358,0.00000129,0.000
 00200,0.00002724,0.00005262,-0.00002310,0.00000096,-0.00001028,-0.0000
 0808,0.00008280,0.00017377,0.00039054,-0.00148375,-0.00542751,0.034378
 99,-0.01625661,0.02982379,-0.00091643,-0.00118868,0.00000330,-0.000338
 98,0.00048259,0.00002385,0.00075112,-0.00045147,0.00003565,-0.00026516
 ,-0.00162124,0.00008204,-0.00007697,0.00263255,0.00108635,-0.00112838,
 -0.00346305,-0.00897688,0.00046197,0.00029208,-0.00050257,-0.00056998,
 0.00052725,-0.00002572,-0.00003157,0.00035476,-0.00010308,-0.00014295,
 0.00048090,0.00003095,-0.00045384,-0.00058441,-0.00018397,0.00068099,-
 0.00005221,0.00014854,0.00028120,0.00031651,0.00007566,0.00013771,0.00
 009965,0.00002387,-0.00003891,-0.00027312,-0.00001708,0.00049424,-0.00
 023882,0.00016911,-0.00054683,0.00026708,-0.00016727,0.00000959,-0.000
 32453,0.00001505,0.00023421,-0.00036670,0.00070750,-0.00008620,0.00004
 223,-0.00004254,0.00054442,-0.00023409,-0.00049957,0.00023620,0.000126
 52,0.00008342,-0.04980732,0.01104836,-0.05753915,0.00027320,-0.0004795
 9,-0.00049843,0.00018327,0.00351341,0.00111475,-0.01477766,0.00783007,
 -0.02361870,-0.00015698,-0.00836640,0.02731064,-0.00222018,-0.00026429
 ,0.00059109,-0.00021359,-0.00062442,0.00032173,-0.00043321,-0.00074399
 ,-0.00130046,0.00001206,-0.00001674,-0.00000418,0.00000814,-0.00001172
 ,-0.00000453,0.00000526,0.00000143,0.00000222,0.00000590,-0.00001113,0
 .00001168,-0.00001636,0.00000837,-0.00000261,-0.00000453,-0.00002183,-
 0.00002238,0.00006288,0.00000066,-0.00016774,-0.00073361,-0.00041788,0
 .00121815,0.00052362,-0.00013068,0.00077277,-0.00007090,0.00033254,0.0
 0060381,-0.00013665,-0.00017569,0.00000089,-0.00002299,0.00007551,0.00
 011245,0.00002040,-0.00000396,0.00000261,0.00001023,0.00002185,-0.0000
 0185,0.06825358,0.00128334,-0.00217489,-0.00081631,-0.00031940,-0.0004
 6434,0.00059651,-0.00046344,-0.00030319,-0.00016822,-0.00028123,0.0012
 2159,0.00129455,-0.00042640,-0.00130524,-0.00137168,-0.00960697,-0.003
 43746,-0.02947310,-0.00097423,0.00022182,-0.00032016,0.00058457,0.0000
 3709,0.00005013,-0.00036548,-0.00066454,0.00001137,0.00010325,0.000134
 57,-0.00007325,-0.00006203,0.00002706,-0.00011567,-0.00005547,-0.00028
 229,-0.00004083,0.00006365,-0.00006222,-0.00002118,-0.00014511,0.00000
 980,0.00000109,0.00005446,0.00016536,0.00001955,0.00009654,0.00058719,
 0.00035015,0.00021187,0.00006675,0.00011530,0.00003164,0.00000484,-0.0
 0001401,0.00095632,0.00024788,-0.00049561,-0.00003882,-0.00003433,0.00
 000072,-0.00005330,-0.00047189,-0.00022084,-0.00000221,0.00005087,0.00
 000645,0.01186583,-0.04547619,0.03251926,-0.00019993,0.00071772,0.0005
 9794,0.00024282,-0.00256237,-0.00028725,0.00957411,-0.00246774,0.01925
 565,-0.00241088,-0.00261760,0.01432008,-0.00124465,-0.00030990,0.00019
 803,-0.00019817,0.00001582,0.00001395,0.00002439,-0.00048253,-0.000794
 69,0.00000748,0.00000717,0.00000258,0.00000181,-0.00000311,-0.00000472
 ,0.00000882,0.00000456,-0.00000793,0.00000163,0.00000943,-0.00001588,-
 0.00000825,-0.00002088,-0.00000572,-0.00008923,-0.00014640,0.00002182,
 -0.00002285,0.00006502,-0.00007672,0.00053945,0.00039892,-0.00097682,-
 0.00023015,0.00023387,-0.00069114,0.00002558,0.00027969,0.00057086,-0.
 00006282,-0.00007463,0.00007861,-0.00002700,0.00005260,0.00009371,0.00
 000166,-0.00000483,0.00000573,-0.00000353,0.00000241,0.00000106,-0.008
 38768,0.05880457,0.00157746,-0.00139172,-0.00096974,-0.00042338,0.0003
 8524,0.00020132,0.00046357,-0.00039313,-0.00003055,-0.00036946,-0.0011
 4497,0.00027527,-0.00217882,0.00173579,0.00232679,-0.00556470,-0.00671
 876,-0.01228355,0.00128294,-0.00012674,-0.00047459,-0.00025829,0.00035
 273,-0.00008478,-0.00021242,0.00027835,0.00000139,-0.00005407,0.000310
 19,-0.00001453,-0.00033042,-0.00032415,-0.00016103,0.00033783,-0.00008
 054,0.00009191,0.00042315,0.00019117,0.00010791,0.00010419,-0.00001077
 ,0.00002756,-0.00011467,-0.00005926,-0.00002025,0.00071666,-0.00112415
 ,-0.00048274,-0.00043569,0.00018032,-0.00000834,-0.00009018,-0.0003729
 6,0.00000030,-0.00165351,0.00084018,0.00140714,0.00002047,0.00002300,-
 0.00003235,0.00033324,0.00076954,0.00021660,-0.00003036,-0.00002470,-0
 .00001382,-0.05274109,0.02896008,-0.25188110,-0.00039127,-0.00058553,-
 0.00055852,0.00180124,0.00208711,0.00054669,-0.00623216,0.00318001,0.0
 0150702,0.00352286,0.00716200,-0.01807077,0.00204721,-0.00036452,-0.00
 015742,0.00010814,-0.00017609,-0.00009004,-0.00007507,0.00048383,0.000
 40072,0.00001217,0.00000258,-0.00000415,-0.00000331,0.00000152,-0.0000
 0398,0.00000360,0.00000074,-0.00000456,-0.00000025,-0.00000639,0.00000
 499,-0.00000836,-0.00000074,-0.00000331,-0.00003929,-0.00009242,-0.000
 01543,-0.00003284,-0.00000145,0.00003280,-0.00007904,0.00000277,-0.000
 18335,-0.00049747,0.00024390,0.00038474,-0.00020878,-0.00015323,-0.000
 21679,0.00011122,0.00013396,0.00001437,0.00002913,-0.00004380,-0.00005
 429,-0.00000630,0.00001027,-0.00000440,0.00000549,-0.00000586,-0.00000
 021,0.05913064,-0.03413338,0.27827707\\-0.00001122,0.00000773,-0.00000
 241,0.00000025,0.00000570,0.00000051,-0.00000332,-0.00000432,-0.000002
 59,-0.00000287,-0.00000032,0.00000353,0.00000454,0.00000203,0.00000490
 ,-0.00000293,-0.00000129,0.00000037,-0.00000419,-0.00000028,-0.0000015
 8,0.00000095,0.00000214,-0.00000266,-0.00000012,0.00000035,-0.00000272
 ,0.00000341,0.00000076,-0.00000033,-0.00000136,-0.00000839,-0.00000065
 ,-0.00000108,0.00000388,-0.00000103,0.00000560,-0.00000267,0.00000071,
 0.00000143,0.00000338,0.00000311,-0.00000454,-0.00000039,0.00000160,0.
 00000324,0.00000290,0.00000121,-0.00000016,-0.00000481,0.00000070,-0.0
 0000227,0.00000319,0.00000069,0.00000538,0.00000030,0.00000051,0.00000
 017,0.00000134,0.00000026,-0.00000398,-0.00000402,0.00000199,0.0000011
 8,-0.00000199,0.00000083,-0.00000413,0.00000368,0.00000007,0.00001186,
 -0.00000968,-0.00000086,-0.00000081,-0.00000030,-0.00000162,0.00000218
 ,-0.00000111,-0.00000148,-0.00000233,0.00000279,-0.00000240,-0.0000003
 1,-0.00000396,0.00000135,-0.00000091,0.00000299,-0.00000132,0.00000445
 ,0.00000070,-0.00000010,-0.00000101,0.00000015,0.00000005,0.00000022,-
 0.00000003,0.00000038,-0.00000064,-0.00000079,0.00000023,-0.00000018,-
 0.00000008,0.00000098,-0.00000012,-0.00000022,-0.00000007,0.00000005,0
 .00000028,-0.00000106,0.00000009,0.00000025,-0.00000127,0.00000055,0.0
 0000076,-0.00000153,-0.00000040,0.00000023,0.00000042,0.00000040,0.000
 00048,-0.00000021,0.00000022,-0.00000031,-0.00000017,0.00000080,-0.000
 00076,0.00000047,0.00000009,-0.00000023,0.00000113,-0.00000005,-0.0000
 0028,0.00000123,0.00000189,0.00000025,-0.00000118\\\@


 OLD AGE AND TREACHERY WILL ALWAYS PREVAIL OVER YOUTH AND SKILL.
 Job cpu time:       1 days 15 hours 14 minutes 11.2 seconds.
 Elapsed time:       0 days  1 hours 57 minutes 39.7 seconds.
 File lengths (MBytes):  RWF=   4319 Int=      0 D2E=      0 Chk=     67 Scr=      1
 Normal termination of Gaussian 16 at Tue Apr 30 07:19:08 2019.
