 Entering Gaussian System, Link 0=/share/apps/gaussian16/g16/g16
 Initial command:
 /share/apps/gaussian16/g16/l1.exe "/home/am2145//scratch/4441/Gau-7494.inp" -scrdir="/home/am2145//scratch/4441/"
 Entering Link 1 = /share/apps/gaussian16/g16/l1.exe PID=      7495.
  
 Copyright (c) 1988,1990,1992,1993,1995,1998,2003,2009,2016,
            Gaussian, Inc.  All Rights Reserved.
  
 This is part of the Gaussian(R) 16 program.  It is based on
 the Gaussian(R) 09 system (copyright 2009, Gaussian, Inc.),
 the Gaussian(R) 03 system (copyright 2003, Gaussian, Inc.),
 the Gaussian(R) 98 system (copyright 1998, Gaussian, Inc.),
 the Gaussian(R) 94 system (copyright 1995, Gaussian, Inc.),
 the Gaussian 92(TM) system (copyright 1992, Gaussian, Inc.),
 the Gaussian 90(TM) system (copyright 1990, Gaussian, Inc.),
 the Gaussian 88(TM) system (copyright 1988, Gaussian, Inc.),
 the Gaussian 86(TM) system (copyright 1986, Carnegie Mellon
 University), and the Gaussian 82(TM) system (copyright 1983,
 Carnegie Mellon University). Gaussian is a federally registered
 trademark of Gaussian, Inc.
  
 This software contains proprietary and confidential information,
 including trade secrets, belonging to Gaussian, Inc.
  
 This software is provided under written license and may be
 used, copied, transmitted, or stored only in accord with that
 written license.
  
 The following legend is applicable only to US Government
 contracts under FAR:
  
                    RESTRICTED RIGHTS LEGEND
  
 Use, reproduction and disclosure by the US Government is
 subject to restrictions as set forth in subparagraphs (a)
 and (c) of the Commercial Computer Software - Restricted
 Rights clause in FAR 52.227-19.
  
 Gaussian, Inc.
 340 Quinnipiac St., Bldg. 40, Wallingford CT 06492
  
  
 ---------------------------------------------------------------
 Warning -- This program may not be used in any manner that
 competes with the business of Gaussian, Inc. or will provide
 assistance to any competitor of Gaussian, Inc.  The licensee
 of this program is prohibited from giving any competitor of
 Gaussian, Inc. access to this program.  By using this program,
 the user acknowledges that Gaussian, Inc. is engaged in the
 business of creating and licensing software in the field of
 computational chemistry and represents and warrants to the
 licensee that it is not a competitor of Gaussian, Inc. and that
 it will not use this program in any manner prohibited above.
 ---------------------------------------------------------------
  

 Cite this work as:
 Gaussian 16, Revision A.03,
 M. J. Frisch, G. W. Trucks, H. B. Schlegel, G. E. Scuseria, 
 M. A. Robb, J. R. Cheeseman, G. Scalmani, V. Barone, 
 G. A. Petersson, H. Nakatsuji, X. Li, M. Caricato, A. V. Marenich, 
 J. Bloino, B. G. Janesko, R. Gomperts, B. Mennucci, H. P. Hratchian, 
 J. V. Ortiz, A. F. Izmaylov, J. L. Sonnenberg, D. Williams-Young, 
 F. Ding, F. Lipparini, F. Egidi, J. Goings, B. Peng, A. Petrone, 
 T. Henderson, D. Ranasinghe, V. G. Zakrzewski, J. Gao, N. Rega, 
 G. Zheng, W. Liang, M. Hada, M. Ehara, K. Toyota, R. Fukuda, 
 J. Hasegawa, M. Ishida, T. Nakajima, Y. Honda, O. Kitao, H. Nakai, 
 T. Vreven, K. Throssell, J. A. Montgomery, Jr., J. E. Peralta, 
 F. Ogliaro, M. J. Bearpark, J. J. Heyd, E. N. Brothers, K. N. Kudin, 
 V. N. Staroverov, T. A. Keith, R. Kobayashi, J. Normand, 
 K. Raghavachari, A. P. Rendell, J. C. Burant, S. S. Iyengar, 
 J. Tomasi, M. Cossi, J. M. Millam, M. Klene, C. Adamo, R. Cammi, 
 J. W. Ochterski, R. L. Martin, K. Morokuma, O. Farkas, 
 J. B. Foresman, and D. J. Fox, Gaussian, Inc., Wallingford CT, 2016.
 
 ******************************************
 Gaussian 16:  ES64L-G16RevA.03 25-Dec-2016
                10-Jun-2019 
 ******************************************
 %nprocshared=20
 Will use up to   20 processors via shared memory.
 %mem=100GB
 %chk=7-path-3b.chk
 -------------------------------------------
 # opt freq b3lyp/6-311+g(d,p) int=grid=fine
 -------------------------------------------
 1/18=20,19=15,26=3,38=1/1,3;
 2/9=110,12=2,17=6,18=5,40=1/2;
 3/5=4,6=6,7=111,11=2,25=1,30=1,71=1,74=-5,75=-4/1,2,3;
 4//1;
 5/5=2,38=5/2;
 6/7=2,8=2,9=2,10=2,28=1/1;
 7//1,2,3,16;
 1/18=20,19=15,26=3/3(2);
 2/9=110/2;
 99//99;
 2/9=110/2;
 3/5=4,6=6,7=111,11=2,25=1,30=1,71=1,74=-5,75=-4/1,2,3;
 4/5=5,16=3,69=1/1;
 5/5=2,38=5/2;
 7//1,2,3,16;
 1/18=20,19=15,26=3/3(-5);
 2/9=110/2;
 6/7=2,8=2,9=2,10=2,19=2,28=1/1;
 99/9=1/99;
 ---------
 7-path-3b
 ---------
 Symbolic Z-matrix:
 Charge =  0 Multiplicity = 2
 C                    -0.60472   3.06709  -0.04793 
 C                    -2.02522   3.12807  -0.14595 
 C                    -2.78495   1.93618  -0.23752 
 C                    -2.01642   0.78576  -0.25885 
 C                    -0.63873   0.69143  -0.22606 
 C                     0.10303   1.83336  -0.11379 
 C                    -0.31007  -0.71316  -0.17014 
 C                    -2.53763  -0.46154  -0.2181 
 C                    -1.53337  -1.36881  -0.13846 
 C                    -4.19396   1.71266  -0.25246 
 C                    -3.88809  -0.75591  -0.18446 
 C                    -4.73601   0.38883  -0.23113 
 C                    -1.75351  -2.71857   0.00796 
 C                    -4.17599  -2.14673  -0.0815 
 C                    -3.12646  -3.11215   0.0201 
 C                     0.88454  -1.41267  -0.08096 
 C                     0.72636  -2.82619   0.12463 
 C                    -0.56098  -3.45905   0.15466 
 C                     2.18797  -0.79332  -0.20888 
 C                     1.86844  -3.5996    0.29686 
 C                     3.30723  -1.65982  -0.04493 
 C                     3.13369  -3.02207   0.23284 
 C                     1.59248   1.78196   0.00726 
 C                     0.19812   4.26862   0.22016 
 C                     1.58277   4.1678    0.63179 
 C                     2.23555   2.99494   0.55945 
 C                     2.4454    0.58941  -0.61613 
 C                     3.80951   0.97947  -0.80626 
 C                     4.61766  -1.19039  -0.20016 
 C                     4.87251   0.11526  -0.58603 
 H                    -5.81552   0.25771  -0.215 
 H                    -5.21031  -2.48075  -0.04937 
 H                    -3.38156  -4.1638    0.12892 
 H                    -0.63125  -4.53504   0.30204 
 H                    -4.8723    2.56283  -0.24495 
 H                    -2.53635   4.08483  -0.08366 
 H                    -0.28449   5.23845   0.23096 
 H                     2.07065   5.05795   1.01472 
 H                     3.26422   2.9274    0.89805 
 H                     4.03516   1.98154  -1.17394 
 H                     5.8936    0.4531   -0.73873 
 H                     5.46474  -1.85945  -0.05972 
 H                     3.99828  -3.67154   0.36178 
 H                     1.7931   -4.66991   0.47649 
 H                     1.96489   0.73259  -1.62657 
 

 GradGradGradGradGradGradGradGradGradGradGradGradGradGradGradGradGradGrad
 Berny optimization.
 Initialization pass.
                           ----------------------------
                           !    Initial Parameters    !
                           ! (Angstroms and Degrees)  !
 --------------------------                            --------------------------
 ! Name  Definition              Value          Derivative Info.                !
 --------------------------------------------------------------------------------
 ! R1    R(1,2)                  1.4252         estimate D2E/DX2                !
 ! R2    R(1,6)                  1.4238         estimate D2E/DX2                !
 ! R3    R(1,24)                 1.4697         estimate D2E/DX2                !
 ! R4    R(2,3)                  1.4164         estimate D2E/DX2                !
 ! R5    R(2,36)                 1.0865         estimate D2E/DX2                !
 ! R6    R(3,4)                  1.3837         estimate D2E/DX2                !
 ! R7    R(3,10)                 1.4267         estimate D2E/DX2                !
 ! R8    R(4,5)                  1.3813         estimate D2E/DX2                !
 ! R9    R(4,8)                  1.3524         estimate D2E/DX2                !
 ! R10   R(5,6)                  1.3663         estimate D2E/DX2                !
 ! R11   R(5,7)                  1.4436         estimate D2E/DX2                !
 ! R12   R(6,23)                 1.4952         estimate D2E/DX2                !
 ! R13   R(7,9)                  1.3883         estimate D2E/DX2                !
 ! R14   R(7,16)                 1.3872         estimate D2E/DX2                !
 ! R15   R(8,9)                  1.3557         estimate D2E/DX2                !
 ! R16   R(8,11)                 1.3826         estimate D2E/DX2                !
 ! R17   R(9,13)                 1.3754         estimate D2E/DX2                !
 ! R18   R(10,12)                1.4307         estimate D2E/DX2                !
 ! R19   R(10,35)                1.0877         estimate D2E/DX2                !
 ! R20   R(11,12)                1.4253         estimate D2E/DX2                !
 ! R21   R(11,14)                1.424          estimate D2E/DX2                !
 ! R22   R(12,31)                1.0876         estimate D2E/DX2                !
 ! R23   R(13,15)                1.4283         estimate D2E/DX2                !
 ! R24   R(13,18)                1.4114         estimate D2E/DX2                !
 ! R25   R(14,15)                1.4296         estimate D2E/DX2                !
 ! R26   R(14,32)                1.0874         estimate D2E/DX2                !
 ! R27   R(15,33)                1.0876         estimate D2E/DX2                !
 ! R28   R(16,17)                1.4371         estimate D2E/DX2                !
 ! R29   R(16,19)                1.4488         estimate D2E/DX2                !
 ! R30   R(17,18)                1.4348         estimate D2E/DX2                !
 ! R31   R(17,20)                1.39           estimate D2E/DX2                !
 ! R32   R(18,34)                1.0883         estimate D2E/DX2                !
 ! R33   R(19,21)                1.4249         estimate D2E/DX2                !
 ! R34   R(19,27)                1.4643         estimate D2E/DX2                !
 ! R35   R(20,22)                1.3923         estimate D2E/DX2                !
 ! R36   R(20,44)                1.0879         estimate D2E/DX2                !
 ! R37   R(21,22)                1.4011         estimate D2E/DX2                !
 ! R38   R(21,29)                1.4006         estimate D2E/DX2                !
 ! R39   R(22,43)                1.089          estimate D2E/DX2                !
 ! R40   R(23,26)                1.4798         estimate D2E/DX2                !
 ! R41   R(23,27)                1.5932         estimate D2E/DX2                !
 ! R42   R(24,25)                1.4481         estimate D2E/DX2                !
 ! R43   R(24,37)                1.0833         estimate D2E/DX2                !
 ! R44   R(25,26)                1.3442         estimate D2E/DX2                !
 ! R45   R(25,38)                1.0849         estimate D2E/DX2                !
 ! R46   R(26,39)                1.0851         estimate D2E/DX2                !
 ! R47   R(27,28)                1.4315         estimate D2E/DX2                !
 ! R48   R(27,45)                1.128          estimate D2E/DX2                !
 ! R49   R(28,30)                1.3876         estimate D2E/DX2                !
 ! R50   R(28,40)                1.091          estimate D2E/DX2                !
 ! R51   R(29,30)                1.3851         estimate D2E/DX2                !
 ! R52   R(29,42)                1.0885         estimate D2E/DX2                !
 ! R53   R(30,41)                1.0863         estimate D2E/DX2                !
 ! A1    A(2,1,6)              121.9601         estimate D2E/DX2                !
 ! A2    A(2,1,24)             121.468          estimate D2E/DX2                !
 ! A3    A(6,1,24)             116.4409         estimate D2E/DX2                !
 ! A4    A(1,2,3)              120.2027         estimate D2E/DX2                !
 ! A5    A(1,2,36)             120.1733         estimate D2E/DX2                !
 ! A6    A(3,2,36)             119.4968         estimate D2E/DX2                !
 ! A7    A(2,3,4)              113.748          estimate D2E/DX2                !
 ! A8    A(2,3,10)             131.4711         estimate D2E/DX2                !
 ! A9    A(4,3,10)             114.7158         estimate D2E/DX2                !
 ! A10   A(3,4,5)              127.6173         estimate D2E/DX2                !
 ! A11   A(3,4,8)              123.523          estimate D2E/DX2                !
 ! A12   A(5,4,8)              108.7041         estimate D2E/DX2                !
 ! A13   A(4,5,6)              119.1007         estimate D2E/DX2                !
 ! A14   A(4,5,7)              107.1236         estimate D2E/DX2                !
 ! A15   A(6,5,7)              133.3459         estimate D2E/DX2                !
 ! A16   A(1,6,5)              117.2662         estimate D2E/DX2                !
 ! A17   A(1,6,23)             121.4117         estimate D2E/DX2                !
 ! A18   A(5,6,23)             121.2457         estimate D2E/DX2                !
 ! A19   A(5,7,9)              105.0571         estimate D2E/DX2                !
 ! A20   A(5,7,16)             133.5645         estimate D2E/DX2                !
 ! A21   A(9,7,16)             121.2788         estimate D2E/DX2                !
 ! A22   A(4,8,9)              109.4802         estimate D2E/DX2                !
 ! A23   A(4,8,11)             124.9967         estimate D2E/DX2                !
 ! A24   A(9,8,11)             125.4243         estimate D2E/DX2                !
 ! A25   A(7,9,8)              109.5924         estimate D2E/DX2                !
 ! A26   A(7,9,13)             127.3676         estimate D2E/DX2                !
 ! A27   A(8,9,13)             122.9852         estimate D2E/DX2                !
 ! A28   A(3,10,12)            121.2648         estimate D2E/DX2                !
 ! A29   A(3,10,35)            119.5645         estimate D2E/DX2                !
 ! A30   A(12,10,35)           119.1361         estimate D2E/DX2                !
 ! A31   A(8,11,12)            114.1594         estimate D2E/DX2                !
 ! A32   A(8,11,14)            114.028          estimate D2E/DX2                !
 ! A33   A(12,11,14)           131.7978         estimate D2E/DX2                !
 ! A34   A(10,12,11)           121.2156         estimate D2E/DX2                !
 ! A35   A(10,12,31)           119.1997         estimate D2E/DX2                !
 ! A36   A(11,12,31)           119.5493         estimate D2E/DX2                !
 ! A37   A(9,13,15)            115.1618         estimate D2E/DX2                !
 ! A38   A(9,13,18)            112.9979         estimate D2E/DX2                !
 ! A39   A(15,13,18)           131.8164         estimate D2E/DX2                !
 ! A40   A(11,14,15)           121.0816         estimate D2E/DX2                !
 ! A41   A(11,14,32)           119.6337         estimate D2E/DX2                !
 ! A42   A(15,14,32)           119.2591         estimate D2E/DX2                !
 ! A43   A(13,15,14)           121.2643         estimate D2E/DX2                !
 ! A44   A(13,15,33)           119.5222         estimate D2E/DX2                !
 ! A45   A(14,15,33)           119.2017         estimate D2E/DX2                !
 ! A46   A(7,16,17)            114.229          estimate D2E/DX2                !
 ! A47   A(7,16,19)            123.6094         estimate D2E/DX2                !
 ! A48   A(17,16,19)           122.1502         estimate D2E/DX2                !
 ! A49   A(16,17,18)           122.3834         estimate D2E/DX2                !
 ! A50   A(16,17,20)           118.3302         estimate D2E/DX2                !
 ! A51   A(18,17,20)           119.2862         estimate D2E/DX2                !
 ! A52   A(13,18,17)           121.6358         estimate D2E/DX2                !
 ! A53   A(13,18,34)           118.5702         estimate D2E/DX2                !
 ! A54   A(17,18,34)           119.792          estimate D2E/DX2                !
 ! A55   A(16,19,21)           115.8849         estimate D2E/DX2                !
 ! A56   A(16,19,27)           125.9042         estimate D2E/DX2                !
 ! A57   A(21,19,27)           117.9139         estimate D2E/DX2                !
 ! A58   A(17,20,22)           120.6743         estimate D2E/DX2                !
 ! A59   A(17,20,44)           120.7282         estimate D2E/DX2                !
 ! A60   A(22,20,44)           118.5957         estimate D2E/DX2                !
 ! A61   A(19,21,22)           121.1157         estimate D2E/DX2                !
 ! A62   A(19,21,29)           121.2214         estimate D2E/DX2                !
 ! A63   A(22,21,29)           117.6285         estimate D2E/DX2                !
 ! A64   A(20,22,21)           121.6673         estimate D2E/DX2                !
 ! A65   A(20,22,43)           117.9465         estimate D2E/DX2                !
 ! A66   A(21,22,43)           120.3311         estimate D2E/DX2                !
 ! A67   A(6,23,26)            115.78           estimate D2E/DX2                !
 ! A68   A(6,23,27)            121.8254         estimate D2E/DX2                !
 ! A69   A(26,23,27)           121.7982         estimate D2E/DX2                !
 ! A70   A(1,24,25)            121.149          estimate D2E/DX2                !
 ! A71   A(1,24,37)            119.3629         estimate D2E/DX2                !
 ! A72   A(25,24,37)           119.0438         estimate D2E/DX2                !
 ! A73   A(24,25,26)           120.6508         estimate D2E/DX2                !
 ! A74   A(24,25,38)           118.2432         estimate D2E/DX2                !
 ! A75   A(26,25,38)           121.0976         estimate D2E/DX2                !
 ! A76   A(23,26,25)           121.6175         estimate D2E/DX2                !
 ! A77   A(23,26,39)           118.516          estimate D2E/DX2                !
 ! A78   A(25,26,39)           119.8606         estimate D2E/DX2                !
 ! A79   A(19,27,23)           120.2586         estimate D2E/DX2                !
 ! A80   A(19,27,28)           117.503          estimate D2E/DX2                !
 ! A81   A(19,27,45)           107.1044         estimate D2E/DX2                !
 ! A82   A(23,27,28)           110.9877         estimate D2E/DX2                !
 ! A83   A(23,27,45)            91.5724         estimate D2E/DX2                !
 ! A84   A(28,27,45)           104.618          estimate D2E/DX2                !
 ! A85   A(27,28,30)           122.6326         estimate D2E/DX2                !
 ! A86   A(27,28,40)           119.4816         estimate D2E/DX2                !
 ! A87   A(30,28,40)           117.8465         estimate D2E/DX2                !
 ! A88   A(21,29,30)           121.2621         estimate D2E/DX2                !
 ! A89   A(21,29,42)           120.516          estimate D2E/DX2                !
 ! A90   A(30,29,42)           118.1733         estimate D2E/DX2                !
 ! A91   A(28,30,29)           119.3638         estimate D2E/DX2                !
 ! A92   A(28,30,41)           120.2708         estimate D2E/DX2                !
 ! A93   A(29,30,41)           120.3484         estimate D2E/DX2                !
 ! D1    D(6,1,2,3)              3.6071         estimate D2E/DX2                !
 ! D2    D(6,1,2,36)           179.4878         estimate D2E/DX2                !
 ! D3    D(24,1,2,3)          -172.0831         estimate D2E/DX2                !
 ! D4    D(24,1,2,36)            3.7975         estimate D2E/DX2                !
 ! D5    D(2,1,6,5)             -2.3798         estimate D2E/DX2                !
 ! D6    D(2,1,6,23)          -179.2387         estimate D2E/DX2                !
 ! D7    D(24,1,6,5)           173.5152         estimate D2E/DX2                !
 ! D8    D(24,1,6,23)           -3.3437         estimate D2E/DX2                !
 ! D9    D(2,1,24,25)          165.1495         estimate D2E/DX2                !
 ! D10   D(2,1,24,37)           -7.1284         estimate D2E/DX2                !
 ! D11   D(6,1,24,25)          -10.7672         estimate D2E/DX2                !
 ! D12   D(6,1,24,37)          176.9548         estimate D2E/DX2                !
 ! D13   D(1,2,3,4)             -1.7431         estimate D2E/DX2                !
 ! D14   D(1,2,3,10)           175.1117         estimate D2E/DX2                !
 ! D15   D(36,2,3,4)          -177.6516         estimate D2E/DX2                !
 ! D16   D(36,2,3,10)           -0.7968         estimate D2E/DX2                !
 ! D17   D(2,3,4,5)             -1.2625         estimate D2E/DX2                !
 ! D18   D(2,3,4,8)            173.6816         estimate D2E/DX2                !
 ! D19   D(10,3,4,5)          -178.6685         estimate D2E/DX2                !
 ! D20   D(10,3,4,8)            -3.7244         estimate D2E/DX2                !
 ! D21   D(2,3,10,12)         -174.2182         estimate D2E/DX2                !
 ! D22   D(2,3,10,35)            3.6227         estimate D2E/DX2                !
 ! D23   D(4,3,10,12)            2.6125         estimate D2E/DX2                !
 ! D24   D(4,3,10,35)         -179.5466         estimate D2E/DX2                !
 ! D25   D(3,4,5,6)              2.4732         estimate D2E/DX2                !
 ! D26   D(3,4,5,7)            175.9315         estimate D2E/DX2                !
 ! D27   D(8,4,5,6)           -173.0782         estimate D2E/DX2                !
 ! D28   D(8,4,5,7)              0.3801         estimate D2E/DX2                !
 ! D29   D(3,4,8,9)           -174.8332         estimate D2E/DX2                !
 ! D30   D(3,4,8,11)             1.7113         estimate D2E/DX2                !
 ! D31   D(5,4,8,9)              0.9403         estimate D2E/DX2                !
 ! D32   D(5,4,8,11)           177.4849         estimate D2E/DX2                !
 ! D33   D(4,5,6,1)             -0.5106         estimate D2E/DX2                !
 ! D34   D(4,5,6,23)           176.3538         estimate D2E/DX2                !
 ! D35   D(7,5,6,1)           -171.9002         estimate D2E/DX2                !
 ! D36   D(7,5,6,23)             4.9642         estimate D2E/DX2                !
 ! D37   D(4,5,7,9)             -1.4975         estimate D2E/DX2                !
 ! D38   D(4,5,7,16)          -177.764          estimate D2E/DX2                !
 ! D39   D(6,5,7,9)            170.635          estimate D2E/DX2                !
 ! D40   D(6,5,7,16)            -5.6315         estimate D2E/DX2                !
 ! D41   D(1,6,23,26)           16.1509         estimate D2E/DX2                !
 ! D42   D(1,6,23,27)         -155.1415         estimate D2E/DX2                !
 ! D43   D(5,6,23,26)         -160.5832         estimate D2E/DX2                !
 ! D44   D(5,6,23,27)           28.1244         estimate D2E/DX2                !
 ! D45   D(5,7,9,8)              2.0949         estimate D2E/DX2                !
 ! D46   D(5,7,9,13)          -175.2544         estimate D2E/DX2                !
 ! D47   D(16,7,9,8)           178.9301         estimate D2E/DX2                !
 ! D48   D(16,7,9,13)            1.5809         estimate D2E/DX2                !
 ! D49   D(5,7,16,17)          172.1926         estimate D2E/DX2                !
 ! D50   D(5,7,16,19)           -9.0134         estimate D2E/DX2                !
 ! D51   D(9,7,16,17)           -3.5881         estimate D2E/DX2                !
 ! D52   D(9,7,16,19)          175.2058         estimate D2E/DX2                !
 ! D53   D(4,8,9,7)             -1.9494         estimate D2E/DX2                !
 ! D54   D(4,8,9,13)           175.5392         estimate D2E/DX2                !
 ! D55   D(11,8,9,7)          -178.4757         estimate D2E/DX2                !
 ! D56   D(11,8,9,13)           -0.9871         estimate D2E/DX2                !
 ! D57   D(4,8,11,12)            1.5514         estimate D2E/DX2                !
 ! D58   D(4,8,11,14)         -177.2135         estimate D2E/DX2                !
 ! D59   D(9,8,11,12)          177.5529         estimate D2E/DX2                !
 ! D60   D(9,8,11,14)           -1.212          estimate D2E/DX2                !
 ! D61   D(7,9,13,15)          179.3097         estimate D2E/DX2                !
 ! D62   D(7,9,13,18)            0.8746         estimate D2E/DX2                !
 ! D63   D(8,9,13,15)            2.2871         estimate D2E/DX2                !
 ! D64   D(8,9,13,18)         -176.148          estimate D2E/DX2                !
 ! D65   D(3,10,12,11)           0.4556         estimate D2E/DX2                !
 ! D66   D(3,10,12,31)         178.2831         estimate D2E/DX2                !
 ! D67   D(35,10,12,11)       -177.3944         estimate D2E/DX2                !
 ! D68   D(35,10,12,31)          0.4331         estimate D2E/DX2                !
 ! D69   D(8,11,12,10)          -2.5095         estimate D2E/DX2                !
 ! D70   D(8,11,12,31)         179.6705         estimate D2E/DX2                !
 ! D71   D(14,11,12,10)        175.9773         estimate D2E/DX2                !
 ! D72   D(14,11,12,31)         -1.8427         estimate D2E/DX2                !
 ! D73   D(8,11,14,15)           1.9424         estimate D2E/DX2                !
 ! D74   D(8,11,14,32)        -179.9114         estimate D2E/DX2                !
 ! D75   D(12,11,14,15)       -176.5459         estimate D2E/DX2                !
 ! D76   D(12,11,14,32)          1.6002         estimate D2E/DX2                !
 ! D77   D(9,13,15,14)          -1.4584         estimate D2E/DX2                !
 ! D78   D(9,13,15,33)         179.8009         estimate D2E/DX2                !
 ! D79   D(18,13,15,14)        176.6086         estimate D2E/DX2                !
 ! D80   D(18,13,15,33)         -2.1321         estimate D2E/DX2                !
 ! D81   D(9,13,18,17)          -0.9875         estimate D2E/DX2                !
 ! D82   D(9,13,18,34)         178.4929         estimate D2E/DX2                !
 ! D83   D(15,13,18,17)       -179.0869         estimate D2E/DX2                !
 ! D84   D(15,13,18,34)          0.3935         estimate D2E/DX2                !
 ! D85   D(11,14,15,13)         -0.6619         estimate D2E/DX2                !
 ! D86   D(11,14,15,33)        178.0828         estimate D2E/DX2                !
 ! D87   D(32,14,15,13)       -178.8148         estimate D2E/DX2                !
 ! D88   D(32,14,15,33)         -0.0702         estimate D2E/DX2                !
 ! D89   D(7,16,17,18)           3.4663         estimate D2E/DX2                !
 ! D90   D(7,16,17,20)        -176.6675         estimate D2E/DX2                !
 ! D91   D(19,16,17,18)       -175.3474         estimate D2E/DX2                !
 ! D92   D(19,16,17,20)          4.5188         estimate D2E/DX2                !
 ! D93   D(7,16,19,21)         177.9706         estimate D2E/DX2                !
 ! D94   D(7,16,19,27)          -8.4521         estimate D2E/DX2                !
 ! D95   D(17,16,19,21)         -3.3284         estimate D2E/DX2                !
 ! D96   D(17,16,19,27)        170.2488         estimate D2E/DX2                !
 ! D97   D(16,17,18,13)         -1.2251         estimate D2E/DX2                !
 ! D98   D(16,17,18,34)        179.3006         estimate D2E/DX2                !
 ! D99   D(20,17,18,13)        178.9099         estimate D2E/DX2                !
 ! D100  D(20,17,18,34)         -0.5644         estimate D2E/DX2                !
 ! D101  D(16,17,20,22)         -1.815          estimate D2E/DX2                !
 ! D102  D(16,17,20,44)        178.6808         estimate D2E/DX2                !
 ! D103  D(18,17,20,22)        178.0555         estimate D2E/DX2                !
 ! D104  D(18,17,20,44)         -1.4487         estimate D2E/DX2                !
 ! D105  D(16,19,21,22)         -0.476          estimate D2E/DX2                !
 ! D106  D(16,19,21,29)        177.3407         estimate D2E/DX2                !
 ! D107  D(27,19,21,22)       -174.5906         estimate D2E/DX2                !
 ! D108  D(27,19,21,29)          3.2261         estimate D2E/DX2                !
 ! D109  D(16,19,27,23)         45.3484         estimate D2E/DX2                !
 ! D110  D(16,19,27,28)       -174.1878         estimate D2E/DX2                !
 ! D111  D(16,19,27,45)        -56.9357         estimate D2E/DX2                !
 ! D112  D(21,19,27,23)       -141.1913         estimate D2E/DX2                !
 ! D113  D(21,19,27,28)         -0.7275         estimate D2E/DX2                !
 ! D114  D(21,19,27,45)        116.5246         estimate D2E/DX2                !
 ! D115  D(17,20,22,21)         -1.9413         estimate D2E/DX2                !
 ! D116  D(17,20,22,43)       -179.2492         estimate D2E/DX2                !
 ! D117  D(44,20,22,21)        177.5733         estimate D2E/DX2                !
 ! D118  D(44,20,22,43)          0.2654         estimate D2E/DX2                !
 ! D119  D(19,21,22,20)          3.1329         estimate D2E/DX2                !
 ! D120  D(19,21,22,43)       -179.6224         estimate D2E/DX2                !
 ! D121  D(29,21,22,20)       -174.7597         estimate D2E/DX2                !
 ! D122  D(29,21,22,43)          2.4849         estimate D2E/DX2                !
 ! D123  D(19,21,29,30)         -3.3722         estimate D2E/DX2                !
 ! D124  D(19,21,29,42)        179.2119         estimate D2E/DX2                !
 ! D125  D(22,21,29,30)        174.518          estimate D2E/DX2                !
 ! D126  D(22,21,29,42)         -2.8978         estimate D2E/DX2                !
 ! D127  D(6,23,26,25)         -15.9272         estimate D2E/DX2                !
 ! D128  D(6,23,26,39)         164.9587         estimate D2E/DX2                !
 ! D129  D(27,23,26,25)        155.3677         estimate D2E/DX2                !
 ! D130  D(27,23,26,39)        -23.7464         estimate D2E/DX2                !
 ! D131  D(6,23,27,19)         -58.279          estimate D2E/DX2                !
 ! D132  D(6,23,27,28)         158.9316         estimate D2E/DX2                !
 ! D133  D(6,23,27,45)          52.6154         estimate D2E/DX2                !
 ! D134  D(26,23,27,19)        130.9511         estimate D2E/DX2                !
 ! D135  D(26,23,27,28)        -11.8383         estimate D2E/DX2                !
 ! D136  D(26,23,27,45)       -118.1545         estimate D2E/DX2                !
 ! D137  D(1,24,25,26)          11.4721         estimate D2E/DX2                !
 ! D138  D(1,24,25,38)        -167.4815         estimate D2E/DX2                !
 ! D139  D(37,24,25,26)       -176.2258         estimate D2E/DX2                !
 ! D140  D(37,24,25,38)          4.8206         estimate D2E/DX2                !
 ! D141  D(24,25,26,23)          2.6572         estimate D2E/DX2                !
 ! D142  D(24,25,26,39)       -178.2404         estimate D2E/DX2                !
 ! D143  D(38,25,26,23)       -178.4193         estimate D2E/DX2                !
 ! D144  D(38,25,26,39)          0.6831         estimate D2E/DX2                !
 ! D145  D(19,27,28,30)         -1.7432         estimate D2E/DX2                !
 ! D146  D(19,27,28,40)        175.9247         estimate D2E/DX2                !
 ! D147  D(23,27,28,30)        142.1771         estimate D2E/DX2                !
 ! D148  D(23,27,28,40)        -40.155          estimate D2E/DX2                !
 ! D149  D(45,27,28,30)       -120.3287         estimate D2E/DX2                !
 ! D150  D(45,27,28,40)         57.3392         estimate D2E/DX2                !
 ! D151  D(27,28,30,29)          1.7373         estimate D2E/DX2                !
 ! D152  D(27,28,30,41)       -179.7624         estimate D2E/DX2                !
 ! D153  D(40,28,30,29)       -175.9667         estimate D2E/DX2                !
 ! D154  D(40,28,30,41)          2.5336         estimate D2E/DX2                !
 ! D155  D(21,29,30,28)          0.8415         estimate D2E/DX2                !
 ! D156  D(21,29,30,41)       -177.6576         estimate D2E/DX2                !
 ! D157  D(42,29,30,28)        178.3161         estimate D2E/DX2                !
 ! D158  D(42,29,30,41)         -0.183          estimate D2E/DX2                !
 --------------------------------------------------------------------------------
 Trust Radius=3.00D-01 FncErr=1.00D-07 GrdErr=1.00D-06 EigMax=2.50D+02 EigMin=1.00D-04
 Number of steps in this run=    270 maximum allowed number of steps=    270.
 GradGradGradGradGradGradGradGradGradGradGradGradGradGradGradGradGradGrad

                          Input orientation:                          
 ---------------------------------------------------------------------
 Center     Atomic      Atomic             Coordinates (Angstroms)
 Number     Number       Type             X           Y           Z
 ---------------------------------------------------------------------
      1          6           0       -0.604720    3.067090   -0.047930
      2          6           0       -2.025220    3.128070   -0.145950
      3          6           0       -2.784950    1.936180   -0.237520
      4          6           0       -2.016420    0.785760   -0.258850
      5          6           0       -0.638730    0.691430   -0.226060
      6          6           0        0.103030    1.833360   -0.113790
      7          6           0       -0.310070   -0.713160   -0.170140
      8          6           0       -2.537630   -0.461540   -0.218100
      9          6           0       -1.533370   -1.368810   -0.138460
     10          6           0       -4.193960    1.712660   -0.252460
     11          6           0       -3.888090   -0.755910   -0.184460
     12          6           0       -4.736010    0.388830   -0.231130
     13          6           0       -1.753510   -2.718570    0.007960
     14          6           0       -4.175990   -2.146730   -0.081500
     15          6           0       -3.126460   -3.112150    0.020100
     16          6           0        0.884540   -1.412670   -0.080960
     17          6           0        0.726360   -2.826190    0.124630
     18          6           0       -0.560980   -3.459050    0.154660
     19          6           0        2.187970   -0.793320   -0.208880
     20          6           0        1.868440   -3.599600    0.296860
     21          6           0        3.307230   -1.659820   -0.044930
     22          6           0        3.133690   -3.022070    0.232840
     23          6           0        1.592480    1.781960    0.007260
     24          6           0        0.198120    4.268620    0.220160
     25          6           0        1.582770    4.167800    0.631790
     26          6           0        2.235550    2.994940    0.559450
     27          6           0        2.445400    0.589410   -0.616130
     28          6           0        3.809510    0.979470   -0.806260
     29          6           0        4.617660   -1.190390   -0.200160
     30          6           0        4.872510    0.115260   -0.586030
     31          1           0       -5.815520    0.257710   -0.215000
     32          1           0       -5.210310   -2.480750   -0.049370
     33          1           0       -3.381560   -4.163800    0.128920
     34          1           0       -0.631250   -4.535040    0.302040
     35          1           0       -4.872300    2.562830   -0.244950
     36          1           0       -2.536350    4.084830   -0.083660
     37          1           0       -0.284490    5.238450    0.230960
     38          1           0        2.070650    5.057950    1.014720
     39          1           0        3.264220    2.927400    0.898050
     40          1           0        4.035160    1.981540   -1.173940
     41          1           0        5.893600    0.453100   -0.738730
     42          1           0        5.464740   -1.859450   -0.059720
     43          1           0        3.998280   -3.671540    0.361780
     44          1           0        1.793100   -4.669910    0.476490
     45          1           0        1.964890    0.732590   -1.626570
 ---------------------------------------------------------------------
                    Distance matrix (angstroms):
                    1          2          3          4          5
     1  C    0.000000
     2  C    1.425183   0.000000
     3  C    2.463393   1.416396   0.000000
     4  C    2.691069   2.345046   1.383676   0.000000
     5  C    2.382572   2.804637   2.481087   1.381305   0.000000
     6  C    1.423846   2.491336   2.892457   2.368666   1.366315
     7  C    3.793685   4.206825   3.626096   2.272941   1.443613
     8  C    4.026950   3.626716   2.410520   1.352434   2.221536
     9  C    4.532968   4.523704   3.535424   2.211335   2.247809
    10  C    3.841739   2.591942   1.426707   2.366615   3.699090
    11  C    5.041278   4.307792   2.909825   2.425990   3.557368
    12  C    4.926885   3.854747   2.490174   2.748544   4.108442
    13  C    5.898873   5.854973   4.773974   3.524293   3.595219
    14  C    6.319732   5.696796   4.316189   3.646189   4.537429
    15  C    6.674339   6.338821   5.066422   4.062475   4.551551
    16  C    4.720936   5.393445   4.970359   3.644216   2.601661
    17  C    6.044196   6.564878   5.927952   4.551492   3.789473
    18  C    6.529430   6.754592   5.848791   4.506407   4.168630
    19  C    4.767367   5.756060   5.672823   4.491424   3.192963
    20  C    7.119000   7.785770   7.251514   5.884924   4.997228
    21  C    6.135718   7.167225   7.076932   5.862412   4.596932
    22  C    7.150693   8.036296   7.735359   6.423781   5.313363
    23  C    2.546035   3.863061   4.386980   3.753317   2.494392
    24  C    1.469727   2.525496   3.814244   4.154991   3.700773
    25  C    2.541396   3.834516   4.981245   5.018526   4.213801
    26  C    2.905383   4.320819   5.192452   4.861002   3.766254
    27  C    3.970514   5.162587   5.414212   4.480406   3.110373
    28  C    4.941523   6.252725   6.687725   5.854796   4.495157
    29  C    6.739626   7.923376   8.035886   6.922401   5.583149
    30  C    6.245230   7.539852   7.878699   6.929212   5.552956
    31  H    5.922243   4.755009   3.464408   3.835873   5.194939
    32  H    7.210408   6.450813   5.042523   4.573281   5.567162
    33  H    7.747767   7.422033   6.140031   5.148992   5.587699
    34  H    7.610228   7.801737   6.841508   5.526681   5.253088
    35  H    4.301783   2.904335   2.179398   3.363662   4.628781
    36  H    2.183636   1.086519   2.168449   3.344381   3.890553
    37  H    2.212494   2.761504   4.168544   4.802702   4.583639
    38  H    3.500050   4.674157   5.906810   6.047952   5.286471
    39  H    3.985359   5.395218   6.234139   5.814654   4.636400
    40  H    4.896407   6.252959   6.884246   6.236097   4.940456
    41  H    7.038346   8.379413   8.818615   7.931542   6.556750
    42  H    7.817242   8.999016   9.082720   7.937540   6.617175
    43  H    8.170961   9.098079   8.821445   7.511945   6.393976
    44  H    8.117002   8.704912   8.069001   6.694588   5.928857
    45  H    3.813776   4.883804   5.093041   4.210025   2.956680
                    6          7          8          9         10
     6  C    0.000000
     7  C    2.580425   0.000000
     8  C    3.500076   2.242239   0.000000
     9  C    3.596152   1.388288   1.355736   0.000000
    10  C    4.300921   4.579954   2.733451   4.072738   0.000000
    11  C    4.757978   3.578304   1.382580   2.433612   2.488377
    12  C    5.051410   4.561474   2.357154   3.654420   1.430664
    13  C    4.917482   2.477278   2.400027   1.375410   5.065512
    14  C    5.843986   4.124114   2.354304   2.755330   3.863216
    15  C    5.908096   3.704510   2.725655   2.366920   4.949004
    16  C    3.338944   1.387213   3.554533   2.418991   5.965590
    17  C    4.707100   2.371913   4.045079   2.701768   6.704693
    18  C    5.340653   2.776394   3.609870   2.323912   6.333315
    19  C    3.354917   2.499626   4.737242   3.766234   6.856447
    20  C    5.727334   3.646304   5.433788   4.091239   8.079267
    21  C    4.740669   3.741217   5.968941   4.850242   8.227062
    22  C    5.734131   4.165686   6.238873   4.965137   8.737714
    23  C    1.495245   3.142736   4.705517   4.440667   5.792680
    24  C    2.459889   5.022820   5.481862   5.908239   5.103594
    25  C    2.862714   5.296197   6.255461   6.399817   6.338787
    26  C    2.519953   4.556587   5.944332   5.808111   6.606212
    27  C    2.699343   3.080294   5.108181   4.460202   6.743519
    28  C    3.866088   4.498954   6.535184   5.874244   8.056041
    29  C    5.434373   4.950876   7.192338   6.153926   9.277666
    30  C    5.091446   5.264825   7.441656   6.590757   9.212157
    31  H    6.125533   5.590580   3.355874   4.581292   2.178931
    32  H    6.844507   5.210692   3.353938   3.842426   4.319595
    33  H    6.940260   4.629298   3.813053   3.361438   5.944596
    34  H    6.424064   3.864308   4.527497   3.321577   7.213469
    35  H    5.030232   5.617086   3.820762   5.159223   1.087654
    36  H    3.469345   5.290039   4.548357   5.545373   2.898854
    37  H    3.444367   5.965165   6.145582   6.734394   5.286667
    38  H    3.942467   6.354324   7.295263   7.458018   7.214018
    39  H    3.494834   5.212510   6.811180   6.522932   7.643541
    40  H    4.075233   5.210571   7.076994   6.580698   8.284916
    41  H    5.985513   6.337900   8.496662   7.670695  10.177515
    42  H    6.510584   5.888515   8.125095   7.015730  10.299884
    43  H    6.760404   5.253269   7.304689   6.012650   9.822408
    44  H    6.745168   4.527397   6.078491   4.726608   8.781427
    45  H    2.639455   3.063792   4.866459   4.343751   6.385934
                   11         12         13         14         15
    11  C    0.000000
    12  C    1.425334   0.000000
    13  C    2.906113   4.313746   0.000000
    14  C    1.424032   2.600976   2.490665   0.000000
    15  C    2.484712   3.861428   1.428301   1.429640   0.000000
    16  C    4.818718   5.904112   2.944926   5.113493   4.357358
    17  C    5.067025   6.348260   2.484945   4.953503   3.864831
    18  C    4.300189   5.690860   1.411368   3.853084   2.592322
    19  C    6.076224   7.024206   4.391910   6.507529   5.802807
    20  C    6.438624   7.733376   3.738743   6.228091   5.026254
    21  C    7.253217   8.302129   5.170574   7.499133   6.595897
    22  C    7.390197   8.589627   4.901776   7.368613   6.264411
    23  C    6.042697   6.484399   5.608067   6.979809   6.798593
    24  C    6.488970   6.293018   7.257735   7.770492   8.097445
    25  C    7.405369   7.412977   7.677371   8.575861   8.691875
    26  C    7.219504   7.484616   6.990060   8.243509   8.144851
    27  C    6.489169   7.194519   5.381734   7.184365   6.719521
    28  C    7.915253   8.585193   6.729461   8.606196   8.095178
    29  C    8.516854   9.486097   6.555185   8.846296   7.982047
    30  C    8.812962   9.618963   7.231014   9.340584   8.646797
    31  H    2.177922   1.087564   5.040623   2.913282   4.317670
    32  H    2.177519   2.914187   3.465445   1.087391   2.178514
    33  H    3.459551   4.763466   2.180337   2.178065   1.087605
    34  H    5.012536   6.432559   2.155345   4.291423   2.886205
    35  H    3.462133   2.178312   6.138730   4.763562   5.943367
    36  H    5.026940   4.303565   6.848904   6.443661   7.221878
    37  H    7.006487   6.599119   8.094561   8.353579   8.823479
    38  H    8.411039   8.347661   8.724221   9.598418   9.733949
    39  H    8.117520   8.468947   7.605712   9.058865   8.836727
    40  H    8.441007   8.964320   7.549611   9.255216   8.869059
    41  H    9.871696  10.641917   8.312360  10.420543   9.728736
    42  H    9.418534  10.446983   7.269512   9.645034   8.682416
    43  H    8.425800   9.650180   5.840927   8.327078   7.154829
    44  H    6.930525   8.289804   4.075008   6.504447   5.180442
    45  H    6.209081   6.853283   5.329981   6.956158   6.589036
                   16         17         18         19         20
    16  C    0.000000
    17  C    1.437125   0.000000
    18  C    2.516489   1.434802   0.000000
    19  C    1.448754   2.525885   3.846427   0.000000
    20  C    2.427647   1.390026   2.437633   2.869334   0.000000
    21  C    2.435530   2.837263   4.270845   1.424937   2.439197
    22  C    2.783400   2.417709   3.721243   2.461063   1.392299
    23  C    3.273320   4.690308   5.668095   2.652054   5.396407
    24  C    5.730524   7.115089   7.765140   5.455897   8.043926
    25  C    5.668967   7.064456   7.936760   5.068107   7.779864
    26  C    4.654286   6.029285   7.045454   3.865683   6.609968
    27  C    2.594420   3.894887   5.101222   1.464263   4.325996
    28  C    3.847576   4.985521   6.302778   2.475690   5.094360
    29  C    3.741631   4.233621   5.664894   2.461937   3.689110
    30  C    4.300415   5.133004   6.545772   2.859111   4.858407
    31  H    6.906442   7.240303   6.446793   8.072209   8.613018
    32  H    6.187810   5.949257   4.755520   7.589955   7.174984
    33  H    5.080588   4.320211   2.907405   6.518735   5.282899
    34  H    3.491920   2.189691   1.088308   4.712697   2.668993
    35  H    6.998050   7.779661   7.416887   7.817446   9.149135
    36  H    6.474952   7.645316   7.801859   6.791997   8.865519
    37  H    6.760275   8.128440   8.702228   6.533664   9.096734
    38  H    6.669055   8.047300   8.955695   5.978990   8.689614
    39  H    5.045547   6.335827   7.481412   4.028320   6.701594
    40  H    4.758327   5.979022   7.244978   3.470346   6.164986
    41  H    5.385577   6.180575   7.600307   3.945377   5.805061
    42  H    4.601988   4.839506   6.238107   3.449073   4.011065
    43  H    3.872194   3.387671   4.568906   3.447757   2.132043
    44  H    3.427221   2.158945   2.666730   3.956464   1.087891
    45  H    2.856257   4.155186   5.207941   2.094758   4.740966
                   21         22         23         24         25
    21  C    0.000000
    22  C    1.401070   0.000000
    23  C    3.845639   5.050239   0.000000
    24  C    6.699495   7.859510   2.858854   0.000000
    25  C    6.114971   7.366054   2.466245   1.448054   0.000000
    26  C    4.814620   6.092433   1.479788   2.426623   1.344230
    27  C    2.475491   3.773232   1.593193   4.391610   3.886684
    28  C    2.792447   4.189127   2.494199   4.991411   4.146300
    29  C    1.400603   2.396812   4.246128   7.036320   6.213928
    30  C    2.427715   3.679250   3.726725   6.304781   5.359903
    31  H    9.323648   9.541796   7.566452   7.241590   8.410740
    32  H    8.557011   8.366302   8.028191   8.653193   9.529592
    33  H    7.144232   6.615348   7.752931   9.161230   9.711489
    34  H    4.888650   4.058157   6.703459   8.843019   8.986103
    35  H    9.207361   9.773191   6.516652   5.369842   6.709138
    36  H    8.194506   9.097118   4.728500   2.757428   4.181615
    37  H    7.782204   8.939807   3.939592   1.083328   2.189433
    38  H    6.912338   8.187070   3.460597   2.181911   1.084910
    39  H    4.683337   5.987966   2.213652   3.414583   2.106362
    40  H    3.881243   5.275205   2.720616   4.679436   3.748948
    41  H    3.411026   4.542891   4.563113   6.922150   5.853253
    42  H    2.166776   2.621273   5.315896   8.085101   7.202473
    43  H    2.165636   1.089015   5.971116   8.803829   8.207487
    44  H    3.409562   2.138206   6.472021   9.083336   8.841576
    45  H    3.166558   4.349824   1.977187   4.362957   4.128786
                   26         27         28         29         30
    26  C    0.000000
    27  C    2.685628   0.000000
    28  C    2.899075   1.431465   0.000000
    29  C    4.875289   2.838914   2.393482   0.000000
    30  C    4.069182   2.473174   1.387562   1.385123   0.000000
    31  H    8.538848   8.277302   9.670146  10.533207  10.695417
    32  H    9.262541   8.267829   9.690364   9.913464  10.425475
    33  H    9.109601   7.556558   8.890404   8.540315   9.324762
    34  H    8.061352   6.047214   7.166484   6.244193   7.259844
    35  H    7.166262   7.588208   8.842846  10.205293  10.053271
    36  H    4.936849   6.108954   7.101785   8.889397   8.420277
    37  H    3.389962   5.457420   5.997964   8.096105   7.314998
    38  H    2.119074   4.771578   4.793078   6.856015   5.902796
    39  H    1.085068   2.903344   2.645079   4.471472   3.563316
    40  H    2.696334   2.185524   1.090986   3.368782   2.128331
    41  H    4.639779   3.453070   2.150595   2.149218   1.086314
    42  H    5.863117   3.927203   3.369952   1.088535   2.127726
    43  H    6.898423   4.639336   4.799151   2.618304   4.000310
    44  H    7.678058   5.411078   6.134073   4.532445   5.788745
    45  H    3.157557   1.127998   2.033834   3.573470   3.149297
                   31         32         33         34         35
    31  H    0.000000
    32  H    2.809426   0.000000
    33  H    5.058873   2.491741   0.000000
    34  H    7.079155   5.031042   2.780646   0.000000
    35  H    2.490811   5.058676   6.899974   8.286463   0.000000
    36  H    5.041533   7.089293   8.294544   8.836307   2.792698
    37  H    7.456470   9.161241   9.899725   9.779898   5.332301
    38  H    9.313764  10.534546  10.749507   9.991678   7.484447
    39  H    9.529313  10.097690   9.749004   8.439071   8.224495
    40  H   10.046246  10.327410   9.719588   8.149829   8.974618
    41  H   11.722455  11.505630  10.396979   8.278793  10.981775
    42  H   11.478273  10.693120   9.143448   6.667139  11.244788
    43  H   10.586895   9.294361   7.399904   4.709750  10.859221
    44  H    9.091243   7.356405   5.210956   2.434357   9.862077
    45  H    7.921668   8.018517   7.459283   6.181214   7.211506
                   36         37         38         39         40
    36  H    0.000000
    37  H    2.549647   0.000000
    38  H    4.835065   2.488683   0.000000
    39  H    5.995833   4.287109   2.444885   0.000000
    40  H    6.985505   5.589328   4.256035   2.404609   0.000000
    41  H    9.202317   7.874558   6.236520   3.964196   2.445268
    42  H    9.967571   9.138836   7.779762   5.354768   4.247163
    43  H   10.151900   9.886716   8.963598   6.661264   5.858081
    44  H    9.782810  10.126809   9.746691   7.749905   7.210585
    45  H    5.820588   5.367765   5.069155   3.588754   2.459831
                   41         42         43         44         45
    41  H    0.000000
    42  H    2.448032   0.000000
    43  H    4.670762   2.368932   0.000000
    44  H    6.673537   4.654798   2.423370   0.000000
    45  H    4.037467   4.628460   5.242573   5.799947   0.000000
 Stoichiometry    C30H15(2)
 Framework group  C1[X(C30H15)]
 Deg. of freedom   129
 Full point group                 C1      NOp   1
 Largest Abelian subgroup         C1      NOp   1
 Largest concise Abelian subgroup C1      NOp   1
                         Standard orientation:                         
 ---------------------------------------------------------------------
 Center     Atomic      Atomic             Coordinates (Angstroms)
 Number     Number       Type             X           Y           Z
 ---------------------------------------------------------------------
      1          6           0        0.663088    3.067703   -0.030974
      2          6           0        2.084447    3.096459    0.069313
      3          6           0        2.816920    1.887599    0.160509
      4          6           0        2.022571    0.754805    0.179165
      5          6           0        0.643156    0.691658    0.144131
      6          6           0       -0.072448    1.850192    0.032198
      7          6           0        0.282945   -0.705078    0.085886
      8          6           0        2.515542   -0.503897    0.137603
      9          6           0        1.491173   -1.388151    0.055241
     10          6           0        4.220497    1.632292    0.177330
     11          6           0        3.859060   -0.828652    0.105662
     12          6           0        4.732543    0.296585    0.155120
     13          6           0        1.681003   -2.742353   -0.092587
     14          6           0        4.115636   -2.225489    0.001344
     15          6           0        3.044731   -3.166828   -0.103122
     16          6           0       -0.927017   -1.377314   -0.006040
     17          6           0       -0.800479   -2.793786   -0.213216
     18          6           0        0.472285   -3.455524   -0.242083
     19          6           0       -2.216326   -0.728844    0.120674
     20          6           0       -1.959464   -3.540985   -0.388207
     21          6           0       -3.354612   -1.569635   -0.046122
     22          6           0       -3.211446   -2.935106   -0.325388
     23          6           0       -1.562487    1.832599   -0.091213
     24          6           0       -0.111989    4.287397   -0.298744
     25          6           0       -1.497916    4.218396   -0.712637
     26          6           0       -2.177131    3.060490   -0.642821
     27          6           0       -2.443100    0.658834    0.529318
     28          6           0       -3.798349    1.079366    0.717851
     29          6           0       -4.654347   -1.070922    0.107698
     30          6           0       -4.880249    0.239664    0.494865
     31          1           0        5.808841    0.141136    0.140483
     32          1           0        5.142198   -2.582745   -0.029625
     33          1           0        3.276185   -4.223834   -0.212911
     34          1           0        0.518467   -4.532640   -0.390748
     35          1           0        4.917876    2.466933    0.171966
     36          1           0        2.617152    4.041508    0.009049
     37          1           0        0.392417    5.246092   -0.307545
     38          1           0       -1.964966    5.119821   -1.095165
     39          1           0       -3.206531    3.016628   -0.983093
     40          1           0       -4.001887    2.085813    1.086481
     41          1           0       -5.893687    0.600289    0.646430
     42          1           0       -5.516100   -1.720501   -0.034913
     43          1           0       -4.090281   -3.564719   -0.456500
     44          1           0       -1.908034   -4.612497   -0.569107
     45          1           0       -1.961065    0.789851    1.540681
 ---------------------------------------------------------------------
 Rotational constants (GHZ):           0.2464593           0.1760495           0.1043412
 Standard basis: 6-311+G(d,p) (5D, 7F)
 There are   780 symmetry adapted cartesian basis functions of A   symmetry.
 There are   750 symmetry adapted basis functions of A   symmetry.
   750 basis functions,  1200 primitive gaussians,   780 cartesian basis functions
    98 alpha electrons       97 beta electrons
       nuclear repulsion energy      2616.2188430030 Hartrees.
 NAtoms=   45 NActive=   45 NUniq=   45 SFac= 1.00D+00 NAtFMM=   60 NAOKFM=F Big=F
 Integral buffers will be    131072 words long.
 Raffenetti 2 integral format.
 Two-electron integral symmetry is turned on.
 One-electron integrals computed using PRISM.
 NBasis=   750 RedAO= T EigKep=  1.10D-06  NBF=   750
 NBsUse=   728 1.00D-06 EigRej=  9.22D-07 NBFU=   728
 ExpMin= 4.38D-02 ExpMax= 4.56D+03 ExpMxC= 6.82D+02 IAcc=2 IRadAn=         4 AccDes= 0.00D+00
 Harris functional with IExCor=  402 and IRadAn=       4 diagonalized for initial guess.
 HarFok:  IExCor=  402 AccDes= 0.00D+00 IRadAn=         4 IDoV= 1 UseB2=F ITyADJ=14
 ICtDFT=  3500011 ScaDFX=  1.000000  1.000000  1.000000  1.000000
 FoFCou: FMM=F IPFlag=           0 FMFlag=      100000 FMFlg1=           0
         NFxFlg=           0 DoJE=T BraDBF=F KetDBF=T FulRan=T
         wScrn=  0.000000 ICntrl=       500 IOpCl=  0 I1Cent=   200000004 NGrid=           0
         NMat0=    1 NMatS0=      1 NMatT0=    0 NMatD0=    1 NMtDS0=    0 NMtDT0=    0
 Petite list used in FoFCou.
 Initial guess <Sx>= 0.0000 <Sy>= 0.0000 <Sz>= 0.5000 <S**2>= 0.7500 S= 0.5000
 Requested convergence on RMS density matrix=1.00D-08 within 128 cycles.
 Requested convergence on MAX density matrix=1.00D-06.
 Requested convergence on             energy=1.00D-06.
 No special actions if energy rises.
 Restarting incremental Fock formation.
 SCF Done:  E(UB3LYP) =  -1152.42610191     A.U. after   28 cycles
            NFock= 28  Conv=0.72D-08     -V/T= 2.0041
 <Sx>= 0.0000 <Sy>= 0.0000 <Sz>= 0.5000 <S**2>= 0.7998 S= 0.5246
 <L.S>=  0.00000000000    
 Annihilation of the first spin contaminant:
 S**2 before annihilation     0.7998,   after     0.7517

 **********************************************************************

            Population analysis using the SCF density.

 **********************************************************************

 Orbital symmetries:
 Alpha Orbitals:
       Occupied  (A) (A) (A) (A) (A) (A) (A) (A) (A) (A) (A) (A)
                 (A) (A) (A) (A) (A) (A) (A) (A) (A) (A) (A) (A)
                 (A) (A) (A) (A) (A) (A) (A) (A) (A) (A) (A) (A)
                 (A) (A) (A) (A) (A) (A) (A) (A) (A) (A) (A) (A)
                 (A) (A) (A) (A) (A) (A) (A) (A) (A) (A) (A) (A)
                 (A) (A) (A) (A) (A) (A) (A) (A) (A) (A) (A) (A)
                 (A) (A) (A) (A) (A) (A) (A) (A) (A) (A) (A) (A)
                 (A) (A) (A) (A) (A) (A) (A) (A) (A) (A) (A) (A)
                 (A) (A)
       Virtual   (A) (A) (A) (A) (A) (A) (A) (A) (A) (A) (A) (A)
                 (A) (A) (A) (A) (A) (A) (A) (A) (A) (A) (A) (A)
                 (A) (A) (A) (A) (A) (A) (A) (A) (A) (A) (A) (A)
                 (A) (A) (A) (A) (A) (A) (A) (A) (A) (A) (A) (A)
                 (A) (A) (A) (A) (A) (A) (A) (A) (A) (A) (A) (A)
                 (A) (A) (A) (A) (A) (A) (A) (A) (A) (A) (A) (A)
                 (A) (A) (A) (A) (A) (A) (A) (A) (A) (A) (A) (A)
                 (A) (A) (A) (A) (A) (A) (A) (A) (A) (A) (A) (A)
                 (A) (A) (A) (A) (A) (A) (A) (A) (A) (A) (A) (A)
                 (A) (A) (A) (A) (A) (A) (A) (A) (A) (A) (A) (A)
                 (A) (A) (A) (A) (A) (A) (A) (A) (A) (A) (A) (A)
                 (A) (A) (A) (A) (A) (A) (A) (A) (A) (A) (A) (A)
                 (A) (A) (A) (A) (A) (A) (A) (A) (A) (A) (A) (A)
                 (A) (A) (A) (A) (A) (A) (A) (A) (A) (A) (A) (A)
                 (A) (A) (A) (A) (A) (A) (A) (A) (A) (A) (A) (A)
                 (A) (A) (A) (A) (A) (A) (A) (A) (A) (A) (A) (A)
                 (A) (A) (A) (A) (A) (A) (A) (A) (A) (A) (A) (A)
                 (A) (A) (A) (A) (A) (A) (A) (A) (A) (A) (A) (A)
                 (A) (A) (A) (A) (A) (A) (A) (A) (A) (A) (A) (A)
                 (A) (A) (A) (A) (A) (A) (A) (A) (A) (A) (A) (A)
                 (A) (A) (A) (A) (A) (A) (A) (A) (A) (A) (A) (A)
                 (A) (A) (A) (A) (A) (A) (A) (A) (A) (A) (A) (A)
                 (A) (A) (A) (A) (A) (A) (A) (A) (A) (A) (A) (A)
                 (A) (A) (A) (A) (A) (A) (A) (A) (A) (A) (A) (A)
                 (A) (A) (A) (A) (A) (A) (A) (A) (A) (A) (A) (A)
                 (A) (A) (A) (A) (A) (A) (A) (A) (A) (A) (A) (A)
                 (A) (A) (A) (A) (A) (A) (A) (A) (A) (A) (A) (A)
                 (A) (A) (A) (A) (A) (A) (A) (A) (A) (A) (A) (A)
                 (A) (A) (A) (A) (A) (A) (A) (A) (A) (A) (A) (A)
                 (A) (A) (A) (A) (A) (A) (A) (A) (A) (A) (A) (A)
                 (A) (A) (A) (A) (A) (A) (A) (A) (A) (A) (A) (A)
                 (A) (A) (A) (A) (A) (A) (A) (A) (A) (A) (A) (A)
                 (A) (A) (A) (A) (A) (A) (A) (A) (A) (A) (A) (A)
                 (A) (A) (A) (A) (A) (A) (A) (A) (A) (A) (A) (A)
                 (A) (A) (A) (A) (A) (A) (A) (A) (A) (A) (A) (A)
                 (A) (A) (A) (A) (A) (A) (A) (A) (A) (A) (A) (A)
                 (A) (A) (A) (A) (A) (A) (A) (A) (A) (A) (A) (A)
                 (A) (A) (A) (A) (A) (A) (A) (A) (A) (A) (A) (A)
                 (A) (A) (A) (A) (A) (A) (A) (A) (A) (A) (A) (A)
                 (A) (A) (A) (A) (A) (A) (A) (A) (A) (A) (A) (A)
                 (A) (A) (A) (A) (A) (A) (A) (A) (A) (A) (A) (A)
                 (A) (A) (A) (A) (A) (A) (A) (A) (A) (A) (A) (A)
                 (A) (A) (A) (A) (A) (A) (A) (A) (A) (A) (A) (A)
                 (A) (A) (A) (A) (A) (A) (A) (A) (A) (A) (A) (A)
                 (A) (A) (A) (A) (A) (A) (A) (A) (A) (A) (A) (A)
                 (A) (A) (A) (A) (A) (A) (A) (A) (A) (A) (A) (A)
                 (A) (A) (A) (A) (A) (A) (A) (A) (A) (A) (A) (A)
                 (A) (A) (A) (A) (A) (A) (A) (A) (A) (A) (A) (A)
                 (A) (A) (A) (A) (A) (A) (A) (A) (A) (A) (A) (A)
                 (A) (A) (A) (A) (A) (A) (A) (A) (A) (A) (A) (A)
                 (A) (A) (A) (A) (A) (A) (A) (A) (A) (A) (A) (A)
                 (A) (A) (A) (A) (A) (A) (A) (A) (A) (A) (A) (A)
                 (A) (A) (A) (A) (A) (A)
 Beta  Orbitals:
       Occupied  (A) (A) (A) (A) (A) (A) (A) (A) (A) (A) (A) (A)
                 (A) (A) (A) (A) (A) (A) (A) (A) (A) (A) (A) (A)
                 (A) (A) (A) (A) (A) (A) (A) (A) (A) (A) (A) (A)
                 (A) (A) (A) (A) (A) (A) (A) (A) (A) (A) (A) (A)
                 (A) (A) (A) (A) (A) (A) (A) (A) (A) (A) (A) (A)
                 (A) (A) (A) (A) (A) (A) (A) (A) (A) (A) (A) (A)
                 (A) (A) (A) (A) (A) (A) (A) (A) (A) (A) (A) (A)
                 (A) (A) (A) (A) (A) (A) (A) (A) (A) (A) (A) (A)
                 (A)
       Virtual   (A) (A) (A) (A) (A) (A) (A) (A) (A) (A) (A) (A)
                 (A) (A) (A) (A) (A) (A) (A) (A) (A) (A) (A) (A)
                 (A) (A) (A) (A) (A) (A) (A) (A) (A) (A) (A) (A)
                 (A) (A) (A) (A) (A) (A) (A) (A) (A) (A) (A) (A)
                 (A) (A) (A) (A) (A) (A) (A) (A) (A) (A) (A) (A)
                 (A) (A) (A) (A) (A) (A) (A) (A) (A) (A) (A) (A)
                 (A) (A) (A) (A) (A) (A) (A) (A) (A) (A) (A) (A)
                 (A) (A) (A) (A) (A) (A) (A) (A) (A) (A) (A) (A)
                 (A) (A) (A) (A) (A) (A) (A) (A) (A) (A) (A) (A)
                 (A) (A) (A) (A) (A) (A) (A) (A) (A) (A) (A) (A)
                 (A) (A) (A) (A) (A) (A) (A) (A) (A) (A) (A) (A)
                 (A) (A) (A) (A) (A) (A) (A) (A) (A) (A) (A) (A)
                 (A) (A) (A) (A) (A) (A) (A) (A) (A) (A) (A) (A)
                 (A) (A) (A) (A) (A) (A) (A) (A) (A) (A) (A) (A)
                 (A) (A) (A) (A) (A) (A) (A) (A) (A) (A) (A) (A)
                 (A) (A) (A) (A) (A) (A) (A) (A) (A) (A) (A) (A)
                 (A) (A) (A) (A) (A) (A) (A) (A) (A) (A) (A) (A)
                 (A) (A) (A) (A) (A) (A) (A) (A) (A) (A) (A) (A)
                 (A) (A) (A) (A) (A) (A) (A) (A) (A) (A) (A) (A)
                 (A) (A) (A) (A) (A) (A) (A) (A) (A) (A) (A) (A)
                 (A) (A) (A) (A) (A) (A) (A) (A) (A) (A) (A) (A)
                 (A) (A) (A) (A) (A) (A) (A) (A) (A) (A) (A) (A)
                 (A) (A) (A) (A) (A) (A) (A) (A) (A) (A) (A) (A)
                 (A) (A) (A) (A) (A) (A) (A) (A) (A) (A) (A) (A)
                 (A) (A) (A) (A) (A) (A) (A) (A) (A) (A) (A) (A)
                 (A) (A) (A) (A) (A) (A) (A) (A) (A) (A) (A) (A)
                 (A) (A) (A) (A) (A) (A) (A) (A) (A) (A) (A) (A)
                 (A) (A) (A) (A) (A) (A) (A) (A) (A) (A) (A) (A)
                 (A) (A) (A) (A) (A) (A) (A) (A) (A) (A) (A) (A)
                 (A) (A) (A) (A) (A) (A) (A) (A) (A) (A) (A) (A)
                 (A) (A) (A) (A) (A) (A) (A) (A) (A) (A) (A) (A)
                 (A) (A) (A) (A) (A) (A) (A) (A) (A) (A) (A) (A)
                 (A) (A) (A) (A) (A) (A) (A) (A) (A) (A) (A) (A)
                 (A) (A) (A) (A) (A) (A) (A) (A) (A) (A) (A) (A)
                 (A) (A) (A) (A) (A) (A) (A) (A) (A) (A) (A) (A)
                 (A) (A) (A) (A) (A) (A) (A) (A) (A) (A) (A) (A)
                 (A) (A) (A) (A) (A) (A) (A) (A) (A) (A) (A) (A)
                 (A) (A) (A) (A) (A) (A) (A) (A) (A) (A) (A) (A)
                 (A) (A) (A) (A) (A) (A) (A) (A) (A) (A) (A) (A)
                 (A) (A) (A) (A) (A) (A) (A) (A) (A) (A) (A) (A)
                 (A) (A) (A) (A) (A) (A) (A) (A) (A) (A) (A) (A)
                 (A) (A) (A) (A) (A) (A) (A) (A) (A) (A) (A) (A)
                 (A) (A) (A) (A) (A) (A) (A) (A) (A) (A) (A) (A)
                 (A) (A) (A) (A) (A) (A) (A) (A) (A) (A) (A) (A)
                 (A) (A) (A) (A) (A) (A) (A) (A) (A) (A) (A) (A)
                 (A) (A) (A) (A) (A) (A) (A) (A) (A) (A) (A) (A)
                 (A) (A) (A) (A) (A) (A) (A) (A) (A) (A) (A) (A)
                 (A) (A) (A) (A) (A) (A) (A) (A) (A) (A) (A) (A)
                 (A) (A) (A) (A) (A) (A) (A) (A) (A) (A) (A) (A)
                 (A) (A) (A) (A) (A) (A) (A) (A) (A) (A) (A) (A)
                 (A) (A) (A) (A) (A) (A) (A) (A) (A) (A) (A) (A)
                 (A) (A) (A) (A) (A) (A) (A) (A) (A) (A) (A) (A)
                 (A) (A) (A) (A) (A) (A) (A)
 The electronic state is 2-A.
 Alpha  occ. eigenvalues --  -10.21391 -10.21037 -10.20081 -10.19976 -10.19704
 Alpha  occ. eigenvalues --  -10.19533 -10.19513 -10.19460 -10.19447 -10.19427
 Alpha  occ. eigenvalues --  -10.19361 -10.19234 -10.19188 -10.19184 -10.19051
 Alpha  occ. eigenvalues --  -10.18983 -10.18906 -10.18855 -10.18691 -10.18544
 Alpha  occ. eigenvalues --  -10.18275 -10.18268 -10.18180 -10.18124 -10.18114
 Alpha  occ. eigenvalues --  -10.17511 -10.17220 -10.15594 -10.15479 -10.15452
 Alpha  occ. eigenvalues --   -0.93311  -0.89570  -0.87917  -0.85642  -0.84231
 Alpha  occ. eigenvalues --   -0.83647  -0.80620  -0.80329  -0.78603  -0.76778
 Alpha  occ. eigenvalues --   -0.75876  -0.74761  -0.72897  -0.71202  -0.69891
 Alpha  occ. eigenvalues --   -0.67186  -0.66061  -0.64417  -0.63227  -0.62845
 Alpha  occ. eigenvalues --   -0.60676  -0.59447  -0.58499  -0.56911  -0.55724
 Alpha  occ. eigenvalues --   -0.52724  -0.52224  -0.51700  -0.51035  -0.49890
 Alpha  occ. eigenvalues --   -0.49104  -0.47870  -0.47433  -0.46668  -0.45430
 Alpha  occ. eigenvalues --   -0.44978  -0.44635  -0.44114  -0.43727  -0.43436
 Alpha  occ. eigenvalues --   -0.42666  -0.42516  -0.41043  -0.40782  -0.40372
 Alpha  occ. eigenvalues --   -0.39966  -0.39844  -0.39076  -0.38198  -0.37888
 Alpha  occ. eigenvalues --   -0.36527  -0.36050  -0.35431  -0.34839  -0.34530
 Alpha  occ. eigenvalues --   -0.34145  -0.33443  -0.33034  -0.32518  -0.31303
 Alpha  occ. eigenvalues --   -0.28768  -0.27648  -0.27079  -0.25638  -0.23055
 Alpha  occ. eigenvalues --   -0.21168  -0.19540  -0.17469
 Alpha virt. eigenvalues --   -0.10390  -0.06197  -0.04419  -0.02647  -0.02042
 Alpha virt. eigenvalues --   -0.00117  -0.00035   0.00650   0.00710   0.01579
 Alpha virt. eigenvalues --    0.01651   0.01746   0.01981   0.02896   0.02989
 Alpha virt. eigenvalues --    0.03346   0.03634   0.04139   0.04532   0.04754
 Alpha virt. eigenvalues --    0.04855   0.05058   0.05582   0.06027   0.06235
 Alpha virt. eigenvalues --    0.06966   0.07101   0.07551   0.07885   0.08342
 Alpha virt. eigenvalues --    0.08620   0.08829   0.09119   0.09336   0.09720
 Alpha virt. eigenvalues --    0.10054   0.10271   0.10532   0.10915   0.11592
 Alpha virt. eigenvalues --    0.11702   0.11906   0.12396   0.12538   0.13103
 Alpha virt. eigenvalues --    0.13267   0.13949   0.14471   0.14879   0.15033
 Alpha virt. eigenvalues --    0.15117   0.15361   0.15659   0.15880   0.16092
 Alpha virt. eigenvalues --    0.16231   0.16492   0.16518   0.16795   0.16938
 Alpha virt. eigenvalues --    0.17113   0.17390   0.17599   0.17930   0.18237
 Alpha virt. eigenvalues --    0.18639   0.18674   0.18858   0.19016   0.19447
 Alpha virt. eigenvalues --    0.19591   0.19938   0.20137   0.20326   0.20514
 Alpha virt. eigenvalues --    0.20679   0.20819   0.21049   0.21399   0.21515
 Alpha virt. eigenvalues --    0.21645   0.21811   0.22165   0.22208   0.22391
 Alpha virt. eigenvalues --    0.22895   0.22996   0.23217   0.23563   0.23705
 Alpha virt. eigenvalues --    0.23905   0.24137   0.24273   0.24735   0.25035
 Alpha virt. eigenvalues --    0.25237   0.25464   0.25638   0.25676   0.26045
 Alpha virt. eigenvalues --    0.26219   0.26363   0.26780   0.26836   0.27064
 Alpha virt. eigenvalues --    0.27372   0.27584   0.27778   0.28549   0.28645
 Alpha virt. eigenvalues --    0.29045   0.29386   0.29679   0.29954   0.30042
 Alpha virt. eigenvalues --    0.30410   0.30468   0.30925   0.31141   0.31281
 Alpha virt. eigenvalues --    0.31787   0.32197   0.32339   0.32855   0.33175
 Alpha virt. eigenvalues --    0.33404   0.33795   0.34310   0.34613   0.34702
 Alpha virt. eigenvalues --    0.35260   0.35479   0.36356   0.36472   0.37089
 Alpha virt. eigenvalues --    0.37374   0.37759   0.38511   0.39324   0.39380
 Alpha virt. eigenvalues --    0.39814   0.40464   0.41513   0.41607   0.42280
 Alpha virt. eigenvalues --    0.42730   0.43588   0.44025   0.44581   0.44906
 Alpha virt. eigenvalues --    0.45300   0.45885   0.46118   0.46790   0.48090
 Alpha virt. eigenvalues --    0.48589   0.48842   0.49869   0.50758   0.51253
 Alpha virt. eigenvalues --    0.51627   0.51998   0.52703   0.52780   0.53463
 Alpha virt. eigenvalues --    0.54155   0.54170   0.54677   0.54829   0.55010
 Alpha virt. eigenvalues --    0.55366   0.55814   0.56505   0.56743   0.57418
 Alpha virt. eigenvalues --    0.57843   0.57956   0.58631   0.58986   0.59135
 Alpha virt. eigenvalues --    0.59396   0.60021   0.60069   0.60244   0.60343
 Alpha virt. eigenvalues --    0.61271   0.61470   0.62081   0.62247   0.62722
 Alpha virt. eigenvalues --    0.63309   0.63396   0.64364   0.64560   0.64792
 Alpha virt. eigenvalues --    0.64982   0.65492   0.65653   0.66297   0.66500
 Alpha virt. eigenvalues --    0.67028   0.67425   0.68049   0.68245   0.68562
 Alpha virt. eigenvalues --    0.69087   0.69286   0.69563   0.69886   0.70557
 Alpha virt. eigenvalues --    0.70790   0.71437   0.71619   0.71694   0.72092
 Alpha virt. eigenvalues --    0.72614   0.73046   0.73463   0.73713   0.74097
 Alpha virt. eigenvalues --    0.74272   0.74922   0.75525   0.75758   0.76165
 Alpha virt. eigenvalues --    0.76643   0.76875   0.77198   0.77509   0.77702
 Alpha virt. eigenvalues --    0.79031   0.79239   0.79891   0.80390   0.80842
 Alpha virt. eigenvalues --    0.81933   0.82522   0.83171   0.83691   0.83857
 Alpha virt. eigenvalues --    0.85624   0.86368   0.87323   0.87794   0.88282
 Alpha virt. eigenvalues --    0.89335   0.89486   0.89936   0.90362   0.90770
 Alpha virt. eigenvalues --    0.91227   0.91931   0.92798   0.92844   0.93111
 Alpha virt. eigenvalues --    0.93557   0.94155   0.94210   0.94997   0.95455
 Alpha virt. eigenvalues --    0.96209   0.96449   0.96476   0.97230   0.97614
 Alpha virt. eigenvalues --    0.98042   0.98548   0.98687   0.99251   0.99539
 Alpha virt. eigenvalues --    0.99614   1.00587   1.00798   1.00993   1.01330
 Alpha virt. eigenvalues --    1.02430   1.03140   1.03423   1.03893   1.04330
 Alpha virt. eigenvalues --    1.04938   1.05397   1.06146   1.06567   1.06922
 Alpha virt. eigenvalues --    1.07614   1.08021   1.08732   1.09449   1.10100
 Alpha virt. eigenvalues --    1.10294   1.11476   1.12086   1.13672   1.14212
 Alpha virt. eigenvalues --    1.14636   1.15094   1.15967   1.16989   1.17287
 Alpha virt. eigenvalues --    1.17934   1.18976   1.19385   1.21118   1.21816
 Alpha virt. eigenvalues --    1.22690   1.23286   1.26254   1.27352   1.29477
 Alpha virt. eigenvalues --    1.30445   1.30915   1.32221   1.32862   1.35027
 Alpha virt. eigenvalues --    1.37151   1.37915   1.39879   1.40310   1.41297
 Alpha virt. eigenvalues --    1.42123   1.43187   1.44265   1.44854   1.45224
 Alpha virt. eigenvalues --    1.46319   1.46645   1.47606   1.47805   1.48317
 Alpha virt. eigenvalues --    1.48580   1.49193   1.49505   1.50170   1.50631
 Alpha virt. eigenvalues --    1.51069   1.52201   1.52546   1.53404   1.54016
 Alpha virt. eigenvalues --    1.54696   1.55238   1.55865   1.56875   1.57256
 Alpha virt. eigenvalues --    1.57715   1.58233   1.58706   1.59888   1.60372
 Alpha virt. eigenvalues --    1.61127   1.61761   1.63071   1.63711   1.65272
 Alpha virt. eigenvalues --    1.65994   1.66553   1.67303   1.67474   1.68767
 Alpha virt. eigenvalues --    1.69232   1.70274   1.70936   1.71687   1.72636
 Alpha virt. eigenvalues --    1.73471   1.73743   1.74817   1.75386   1.75950
 Alpha virt. eigenvalues --    1.76354   1.77235   1.77732   1.77877   1.79052
 Alpha virt. eigenvalues --    1.79517   1.80175   1.80963   1.81374   1.82673
 Alpha virt. eigenvalues --    1.83139   1.83575   1.84216   1.84651   1.85498
 Alpha virt. eigenvalues --    1.86656   1.87617   1.87848   1.88030   1.88433
 Alpha virt. eigenvalues --    1.89105   1.89359   1.89904   1.90442   1.90970
 Alpha virt. eigenvalues --    1.91396   1.92327   1.92864   1.93255   1.93831
 Alpha virt. eigenvalues --    1.93941   1.95315   1.95601   1.96320   1.97152
 Alpha virt. eigenvalues --    1.97832   1.99025   1.99674   1.99868   2.00801
 Alpha virt. eigenvalues --    2.01764   2.02731   2.03264   2.03624   2.04891
 Alpha virt. eigenvalues --    2.05281   2.06146   2.06624   2.07448   2.08033
 Alpha virt. eigenvalues --    2.08722   2.09134   2.10860   2.11915   2.12712
 Alpha virt. eigenvalues --    2.13214   2.13712   2.14975   2.16162   2.16666
 Alpha virt. eigenvalues --    2.18097   2.19099   2.19410   2.20461   2.20721
 Alpha virt. eigenvalues --    2.22037   2.22651   2.23063   2.25039   2.25330
 Alpha virt. eigenvalues --    2.26763   2.27651   2.27931   2.29410   2.31292
 Alpha virt. eigenvalues --    2.31930   2.33267   2.34600   2.36256   2.37411
 Alpha virt. eigenvalues --    2.39249   2.39977   2.41507   2.42401   2.42717
 Alpha virt. eigenvalues --    2.44856   2.45276   2.46645   2.47397   2.49552
 Alpha virt. eigenvalues --    2.50475   2.52358   2.53992   2.55990   2.56613
 Alpha virt. eigenvalues --    2.57144   2.57481   2.59462   2.61061   2.61262
 Alpha virt. eigenvalues --    2.62861   2.63798   2.64348   2.65295   2.66400
 Alpha virt. eigenvalues --    2.67354   2.68377   2.69073   2.70057   2.70615
 Alpha virt. eigenvalues --    2.71552   2.72637   2.72958   2.73297   2.73689
 Alpha virt. eigenvalues --    2.73770   2.74204   2.74683   2.75267   2.75380
 Alpha virt. eigenvalues --    2.75793   2.76104   2.76847   2.77360   2.77862
 Alpha virt. eigenvalues --    2.78102   2.78344   2.78865   2.79534   2.79893
 Alpha virt. eigenvalues --    2.81220   2.82157   2.82521   2.83767   2.84558
 Alpha virt. eigenvalues --    2.85319   2.85523   2.85937   2.86595   2.88179
 Alpha virt. eigenvalues --    2.89353   2.89861   2.90195   2.91017   2.91664
 Alpha virt. eigenvalues --    2.93556   2.94226   2.95661   2.97178   2.99446
 Alpha virt. eigenvalues --    2.99615   3.00243   3.01754   3.03423   3.05042
 Alpha virt. eigenvalues --    3.06038   3.07453   3.08075   3.11648   3.12825
 Alpha virt. eigenvalues --    3.14002   3.15625   3.16734   3.18605   3.18809
 Alpha virt. eigenvalues --    3.20084   3.22355   3.22534   3.23416   3.23826
 Alpha virt. eigenvalues --    3.24572   3.28744   3.30533   3.33250   3.36169
 Alpha virt. eigenvalues --    3.36814   3.37956   3.38463   3.40172   3.40717
 Alpha virt. eigenvalues --    3.42839   3.43673   3.44304   3.45483   3.47172
 Alpha virt. eigenvalues --    3.47861   3.48480   3.49329   3.50133   3.53031
 Alpha virt. eigenvalues --    3.53757   3.55324   3.57409   3.58244   3.59055
 Alpha virt. eigenvalues --    3.62783   3.64259   3.65496   3.68260   3.70782
 Alpha virt. eigenvalues --    3.74174   3.78465   3.83171   3.87328   3.90273
 Alpha virt. eigenvalues --    3.93124   3.97633   4.02733   4.03879   4.06730
 Alpha virt. eigenvalues --    4.07261   4.08895   4.10401   4.11497   4.13596
 Alpha virt. eigenvalues --    4.20742   4.24121   4.29327   4.35454   4.39350
 Alpha virt. eigenvalues --    4.51400   4.66845   4.68891   4.77958   4.80613
 Alpha virt. eigenvalues --    4.82399   4.83786   4.87861   4.91688   4.95077
 Alpha virt. eigenvalues --   23.39437  23.65295  23.68107  23.77179  23.80382
 Alpha virt. eigenvalues --   23.81831  23.85937  23.89300  23.92647  23.92924
 Alpha virt. eigenvalues --   23.94217  23.96357  23.97307  23.98450  23.99143
 Alpha virt. eigenvalues --   23.99945  24.03251  24.03837  24.04507  24.07067
 Alpha virt. eigenvalues --   24.07585  24.08029  24.10045  24.14806  24.16647
 Alpha virt. eigenvalues --   24.17731  24.18205  24.22933  24.26799  24.35407
  Beta  occ. eigenvalues --  -10.21239 -10.21119 -10.19983 -10.19798 -10.19690
  Beta  occ. eigenvalues --  -10.19546 -10.19485 -10.19430 -10.19424 -10.19419
  Beta  occ. eigenvalues --  -10.19299 -10.19206 -10.19182 -10.19180 -10.19164
  Beta  occ. eigenvalues --  -10.19157 -10.18913 -10.18622 -10.18538 -10.18376
  Beta  occ. eigenvalues --  -10.18278 -10.18270 -10.18227 -10.18021 -10.17624
  Beta  occ. eigenvalues --  -10.17369 -10.17244 -10.15578 -10.15510 -10.15440
  Beta  occ. eigenvalues --   -0.93242  -0.89219  -0.87823  -0.85431  -0.84101
  Beta  occ. eigenvalues --   -0.83573  -0.80386  -0.80136  -0.78447  -0.76571
  Beta  occ. eigenvalues --   -0.75732  -0.74522  -0.72878  -0.71001  -0.69724
  Beta  occ. eigenvalues --   -0.67139  -0.65557  -0.64254  -0.63164  -0.62587
  Beta  occ. eigenvalues --   -0.60500  -0.59337  -0.58413  -0.56780  -0.55657
  Beta  occ. eigenvalues --   -0.52535  -0.52134  -0.51600  -0.50866  -0.49764
  Beta  occ. eigenvalues --   -0.48979  -0.47781  -0.47324  -0.46213  -0.45352
  Beta  occ. eigenvalues --   -0.44781  -0.44508  -0.44018  -0.43606  -0.43145
  Beta  occ. eigenvalues --   -0.42526  -0.42277  -0.40947  -0.40708  -0.40310
  Beta  occ. eigenvalues --   -0.39830  -0.39797  -0.38983  -0.38041  -0.37631
  Beta  occ. eigenvalues --   -0.36173  -0.35866  -0.35189  -0.34652  -0.34483
  Beta  occ. eigenvalues --   -0.34012  -0.33369  -0.32445  -0.32197  -0.30853
  Beta  occ. eigenvalues --   -0.28481  -0.27158  -0.26581  -0.25426  -0.22894
  Beta  occ. eigenvalues --   -0.20542  -0.19454
  Beta virt. eigenvalues --   -0.11071  -0.09145  -0.05695  -0.04230  -0.02112
  Beta virt. eigenvalues --   -0.01801  -0.00060   0.00243   0.00655   0.00728
  Beta virt. eigenvalues --    0.01584   0.01671   0.01829   0.02049   0.02909
  Beta virt. eigenvalues --    0.03025   0.03618   0.03721   0.04160   0.04537
  Beta virt. eigenvalues --    0.04804   0.04902   0.05325   0.05721   0.06096
  Beta virt. eigenvalues --    0.06368   0.07032   0.07130   0.07578   0.07936
  Beta virt. eigenvalues --    0.08468   0.08667   0.08889   0.09178   0.09503
  Beta virt. eigenvalues --    0.09760   0.10087   0.10260   0.10657   0.11024
  Beta virt. eigenvalues --    0.11613   0.11749   0.11952   0.12491   0.12615
  Beta virt. eigenvalues --    0.13158   0.13309   0.14006   0.14590   0.14907
  Beta virt. eigenvalues --    0.15057   0.15217   0.15388   0.15714   0.15933
  Beta virt. eigenvalues --    0.16169   0.16294   0.16558   0.16616   0.16892
  Beta virt. eigenvalues --    0.16969   0.17156   0.17461   0.17713   0.17967
  Beta virt. eigenvalues --    0.18367   0.18689   0.18721   0.19026   0.19087
  Beta virt. eigenvalues --    0.19558   0.19657   0.20031   0.20205   0.20362
  Beta virt. eigenvalues --    0.20536   0.20805   0.20873   0.21103   0.21499
  Beta virt. eigenvalues --    0.21563   0.21699   0.21853   0.22199   0.22239
  Beta virt. eigenvalues --    0.22445   0.22973   0.23034   0.23303   0.23725
  Beta virt. eigenvalues --    0.23737   0.23998   0.24197   0.24330   0.24759
  Beta virt. eigenvalues --    0.25132   0.25275   0.25477   0.25699   0.25797
  Beta virt. eigenvalues --    0.26104   0.26233   0.26436   0.26824   0.26927
  Beta virt. eigenvalues --    0.27164   0.27448   0.27631   0.27848   0.28691
  Beta virt. eigenvalues --    0.28720   0.29080   0.29442   0.29758   0.30018
  Beta virt. eigenvalues --    0.30160   0.30471   0.30549   0.30978   0.31227
[...]
 00000094,-0.00000078,0.00000829,0.00000247,-0.00008807,0.00002059,-0.0
 0002404,-0.00003102,0.00003620,-0.00000406,0.00006725,-0.00000737,0.00
 000551,-0.00053635,0.00145108,-0.00041524,0.00008887,0.00010791,-0.000
 00595,0.00014966,-0.00008232,0.00004675,-0.00340110,-0.00381303,0.0005
 4741,0.00019575,-0.00051238,0.00021572,-0.01759971,0.01763862,-0.00955
 835,0.00080047,0.00228330,-0.00039428,0.00010270,-0.00002465,-0.000104
 87,-0.00000539,0.00000865,0.00000496,0.00000110,-0.00000366,0.00001070
 ,-0.00001432,0.00003632,0.00001014,0.00016251,-0.00040136,0.00028984,0
 .00072187,-0.00179451,0.00084149,-0.22308776,0.11666604,-0.07065288,0.
 00766375,-0.00489448,0.00266997,-0.00000571,0.00000147,0.00000095,-0.0
 0000450,-0.00000063,-0.00000011,-0.00000480,-0.00000641,0.00000355,-0.
 00002324,-0.00002331,0.00000065,-0.00000297,0.00000320,0.00000024,-0.0
 0000154,0.00000399,-0.00000146,-0.00000202,0.00000304,0.00000046,0.000
 00086,0.00000883,0.00000117,0.00000009,0.00001242,-0.00000284,0.000211
 49,-0.00028441,0.00020097,0.00069244,0.00051695,-0.00015743,0.23419918
 ,0.00004241,-0.00001065,0.00000904,-0.00000462,0.00000116,-0.00000850,
 0.00000623,-0.00001385,0.00000654,-0.00001405,0.00000306,0.00000867,0.
 00003500,-0.00006787,0.00000228,0.00000269,-0.00006096,-0.00002612,-0.
 00010121,-0.00003316,-0.00014216,0.00002969,-0.00003639,-0.00002057,-0
 .00013760,-0.00002374,-0.00001757,-0.00001363,-0.00000445,-0.00000103,
 -0.00003790,-0.00003945,0.00001894,0.00000213,0.00000378,0.00000206,-0
 .00017278,0.00012425,-0.00004305,-0.00003526,0.00007363,-0.00000746,0.
 00009520,-0.00001926,-0.00001035,-0.00018839,0.00052546,-0.00008717,-0
 .00037119,0.00007489,-0.00000656,0.00030525,-0.00001933,0.00004542,-0.
 00302213,-0.00017826,0.00162778,0.00050137,0.00009585,0.00005519,-0.00
 797340,0.00831686,-0.00281483,-0.00152935,0.00034666,-0.00159362,0.000
 01976,0.00014222,0.00004640,0.00001120,-0.00002599,-0.00000741,0.00002
 024,0.00003367,0.00000454,0.00002616,-0.00000506,-0.00003924,-0.000353
 90,-0.00018681,-0.00043515,-0.00227606,-0.00322371,0.00388351,0.117128
 01,-0.13822479,0.06163130,0.02246439,-0.00905120,0.00738434,0.00000275
 ,0.00000138,-0.00000122,0.00000324,0.00000185,0.00000063,0.00000121,0.
 00000248,0.00000103,-0.00000366,0.00000003,-0.00000179,0.00000224,-0.0
 0000245,-0.00000035,0.00000532,-0.00000305,-0.00000114,0.00000750,-0.0
 0000391,0.00000159,0.00000139,-0.00001496,0.00000006,0.00001237,0.0000
 3207,0.00005980,0.00107318,-0.00068649,0.00046090,-0.00030982,0.000174
 32,-0.00146260,-0.12543775,0.14186352,-0.00000587,-0.00000569,0.000010
 86,0.00001829,-0.00000549,-0.00000262,-0.00002040,-0.00000585,0.000002
 83,0.00004627,0.00000929,0.00000814,-0.00004641,0.00001616,0.00001110,
 0.00004047,-0.00004666,-0.00002018,0.00003301,0.00001212,-0.00023801,0
 .00000269,-0.00002569,-0.00002207,-0.00001267,-0.00002563,-0.00002553,
 0.00001481,0.00000540,-0.00000303,-0.00000634,0.00001359,0.00001399,-0
 .00000286,-0.00001439,0.00000523,-0.00003262,0.00000782,-0.00001830,-0
 .00000048,0.00000523,-0.00000281,0.00001474,-0.00000583,-0.00000492,0.
 00029089,-0.00000591,0.00019925,-0.00007717,-0.00000273,0.00018294,0.0
 0004837,-0.00000081,0.00001173,0.00005650,0.00177829,0.00348266,0.0000
 4952,-0.00014073,-0.00003414,0.00349904,-0.00083121,0.00406839,0.00070
 728,-0.00099192,-0.00216631,-0.00003256,0.00004794,0.00009597,0.000008
 97,0.00001312,0.00000532,-0.00002813,-0.00001185,-0.00001069,0.0000412
 9,-0.00000013,-0.00001070,0.00018632,-0.00053023,-0.00059216,0.0013745
 4,0.00346169,0.00208241,-0.07052040,0.05965848,-0.06202015,-0.01105603
 ,0.00741827,-0.00026689,-0.00000071,-0.00000075,-0.00000185,-0.0000005
 0,-0.00000011,0.00000234,-0.00000013,-0.00000096,-0.00000067,0.0000008
 8,0.00000256,0.00000986,-0.00000047,0.00000024,0.00000156,0.00000110,0
 .00000238,-0.00000346,-0.00000272,0.00000058,-0.00000061,0.00000262,-0
 .00000565,0.00000288,-0.00001194,-0.00001123,-0.00000389,-0.00052574,0
 .00030767,-0.00015017,0.00010156,-0.00147266,-0.00180022,0.07611266,-0
 .06874065,0.05682361,0.00000759,0.00000598,0.00000105,-0.00003721,-0.0
 0000641,-0.00000988,0.00002914,0.00004828,0.00001706,-0.00002348,0.000
 01583,-0.00000026,-0.00000285,-0.00001870,0.00000470,-0.00003203,0.000
 02485,-0.00001203,0.00017192,0.00002372,0.00005118,0.00002634,0.000002
 92,-0.00000537,-0.00002393,-0.00010795,0.00002792,-0.00002846,-0.00001
 639,-0.00000188,-0.00004899,-0.00011187,0.00000913,0.00001774,0.000033
 22,0.,-0.00055570,-0.00017901,0.00016710,-0.00010056,0.00007658,-0.000
 01372,0.00009155,0.00013486,-0.00003156,-0.00008551,-0.00031241,0.0002
 6828,-0.00249014,-0.00447702,-0.00089621,-0.00034327,0.00112458,-0.000
 52324,0.00080221,-0.00128601,-0.00012195,-0.01893781,0.01684560,-0.009
 36717,0.00450033,-0.00315160,0.00147888,-0.23229593,0.11205886,-0.0708
 6794,-0.00001103,-0.00000799,0.00003404,-0.00000157,-0.00001244,-0.000
 00545,-0.00000139,-0.00000583,0.00000203,0.00002213,-0.00000875,-0.000
 01559,0.00011568,-0.00038941,0.00008268,0.00020502,-0.00008030,0.00008
 114,0.00071577,-0.00138368,0.00107208,0.00012006,0.00033214,-0.0001646
 2,-0.00000815,0.00000041,0.00000115,-0.00001997,0.00001327,0.00000186,
 -0.00000222,-0.00001413,0.00000854,0.00000210,-0.00007676,-0.00003950,
 -0.00000271,0.00000595,0.00000113,-0.00000170,0.00000345,0.00000374,-0
 .00000396,0.00000454,0.00000089,0.00000393,0.00000630,0.00000146,0.000
 00171,-0.00000228,-0.00000859,0.00000663,0.00001302,0.00000077,0.00000
 746,0.00001972,-0.00004243,0.00027888,0.00018650,-0.00013539,0.2472204
 9,0.00001044,0.00000864,-0.00001111,-0.00000639,-0.00000733,-0.0000001
 7,0.00002310,-0.00000700,-0.00000133,-0.00000423,0.00003297,0.00000589
 ,-0.00002005,0.00003395,0.00001325,-0.00000189,-0.00004564,-0.00004869
 ,0.00020086,0.00005138,-0.00011157,0.00005310,-0.00003779,0.00000401,-
 0.00006300,-0.00007453,0.00003731,-0.00003819,-0.00000643,0.00000619,0
 .00000102,-0.00003609,-0.00000128,0.00000397,0.00003581,-0.00000036,-0
 .00018642,-0.00008476,-0.00023309,-0.00001988,0.00002689,0.00002125,0.
 00000325,0.00004672,-0.00004552,-0.00066061,-0.00033064,-0.00024734,-0
 .00322318,-0.00026246,0.00230908,-0.00025671,0.00054846,-0.00013725,-0
 .00249742,-0.00413456,0.00245192,-0.01338683,0.01076227,-0.00454925,0.
 02390435,-0.01224514,0.00868742,0.11308999,-0.12872995,0.05040020,-0.0
 0018843,-0.00004494,0.00030549,-0.00000387,-0.00004727,-0.00001481,0.0
 0002586,0.00001622,-0.00002444,0.00006451,-0.00004655,-0.00003325,0.00
 112738,-0.00022916,0.00010604,0.00019453,0.00023321,-0.00017463,0.0023
 4698,0.00090636,-0.00092884,-0.00038854,-0.00003231,0.00000388,0.00000
 136,0.00000167,-0.00000011,-0.00000375,0.00000730,0.00000551,0.0000010
 2,-0.00000044,0.00000034,-0.00000449,-0.00000180,0.00007197,0.00000131
 ,-0.00000117,-0.00000239,0.00000314,-0.00000130,0.00000024,0.00000336,
 -0.00000253,0.00000299,0.00000322,-0.00001529,-0.00000376,-0.00000140,
 -0.00000596,0.00001879,-0.00009463,0.00000530,-0.00002304,-0.00001448,
 -0.00001053,0.00003492,-0.00116633,0.00001529,0.00000395,-0.11941298,0
 .13360034,-0.00000806,-0.00002824,0.00000726,0.00001057,0.00002739,0.0
 0001475,0.00001886,-0.00006349,-0.00001702,-0.00008712,0.00002308,-0.0
 0002107,0.00004809,-0.00007202,0.00004167,0.00002174,0.00001861,0.0000
 1441,-0.00014660,-0.00003148,-0.00045130,0.00001626,0.00002362,0.00000
 854,0.00006118,0.00014681,0.00007445,0.00001703,0.00000355,0.00000477,
 0.00002853,0.00003399,-0.00000433,-0.00002203,-0.00001081,-0.00000307,
 0.00012743,-0.00032008,-0.00073440,0.00000743,-0.00003396,0.00006891,-
 0.00001833,-0.00005505,-0.00007207,0.00073012,-0.00015087,-0.00055649,
 -0.00076379,0.00186851,0.00870775,-0.00036926,0.00008804,0.00020976,0.
 00016536,0.00245047,0.00263176,-0.00118919,0.00107835,0.00374895,-0.00
 730266,0.00319307,-0.00002736,-0.06997759,0.05058899,-0.06408331,0.000
 07612,0.00004318,-0.00015036,0.00000608,0.00002339,0.00000606,0.000001
 40,0.00000317,0.00000685,-0.00003302,0.00004571,0.00001276,-0.00039118
 ,0.00014092,0.00035933,-0.00009588,-0.00004049,0.00001686,-0.00041343,
 -0.00100766,-0.00162918,0.00019800,-0.00010039,-0.00006368,-0.00000066
 ,-0.00000117,0.00000201,0.00000342,0.00000158,0.00001307,-0.00000415,-
 0.00000145,-0.00000409,-0.00003339,0.00007385,0.00023442,-0.00000417,0
 .00000082,-0.00000319,-0.00000103,0.00000283,-0.00000041,-0.00000080,0
 .00000118,0.00000104,-0.00000211,0.00000321,0.00000477,0.00000045,0.00
 000046,0.00000437,0.00003368,0.00001518,0.00002921,0.00001263,0.000064
 25,0.00004731,0.00041494,0.00014456,0.00024298,0.07784005,-0.05631956,
 0.05620845,-0.00000440,0.00000539,0.00001596,0.00003076,0.00000802,0.0
 0000389,-0.00004294,-0.00006725,0.00000902,0.00000828,0.00018851,0.000
 02697,-0.00029229,0.00003836,-0.00015553,-0.00003450,-0.00004072,-0.00
 003035,0.00041144,0.00123540,-0.00014637,-0.00005919,-0.00012650,0.000
 00319,0.00014514,0.00013413,-0.00001784,-0.00000543,0.00003046,0.00000
 885,0.00001926,0.00009490,-0.00002331,-0.00000345,-0.00001787,0.000004
 77,0.00015300,-0.00036565,0.00021139,0.00004931,-0.00005275,0.00001172
 ,-0.00009170,0.00000446,-0.00002998,-0.00399998,0.00106246,-0.00192864
 ,0.00548764,0.02379003,-0.00686115,0.00111178,0.00160575,-0.00000930,-
 0.00048802,-0.00001292,0.00003728,-0.05936555,-0.02598515,0.00330243,-
 0.00455723,-0.00155173,-0.00226688,0.00091184,-0.02903149,0.00818070,-
 0.00000111,0.00001364,0.00002690,0.00000413,0.00000407,0.00000399,-0.0
 0000319,0.00001928,-0.00000179,0.00000030,-0.00001893,-0.00001470,0.00
 009781,0.00008458,0.00017536,-0.00004994,0.00007699,-0.00006488,0.0006
 4402,-0.00103186,0.00044318,-0.00040233,-0.00009436,0.00017294,-0.0000
 0062,0.00000259,-0.00000027,0.00000467,-0.00000750,0.00000129,-0.00002
 063,0.00000054,-0.00000411,-0.00040736,-0.00064364,0.00010745,-0.00000
 437,-0.00000238,-0.00000172,0.00000098,0.00000317,-0.00000582,0.000003
 41,0.00000026,0.00000201,-0.00000093,-0.00000315,0.00000025,0.00000435
 ,0.00000621,0.00000869,0.00001107,-0.00002014,-0.00001837,-0.00002673,
 -0.00011815,0.00008269,-0.00004464,0.00001216,-0.00004847,0.00071918,0
 .00060429,0.00103447,0.06008372,-0.00000521,-0.00000457,-0.00000751,0.
 00000319,-0.00000038,0.00000595,0.00000674,0.00002442,-0.00001553,-0.0
 0000697,-0.00012418,-0.00001086,0.00016242,0.00004443,0.00012083,0.000
 02316,-0.00002576,0.00000668,-0.00065510,-0.00075461,0.00005897,0.0000
 2808,0.00012228,-0.00003497,-0.00001385,0.00022920,-0.00003037,0.00003
 791,-0.00000267,-0.00000724,0.00006061,0.00005316,0.00000467,-0.000010
 77,-0.00002543,0.00000084,0.00050768,0.00010094,-0.00005071,0.00004443
 ,-0.00011451,0.00000563,-0.00012440,-0.00003433,0.00005390,0.00281040,
 0.00105739,0.00150488,-0.00360888,-0.01230246,0.00396407,-0.00177846,0
 .00046370,-0.00099167,0.00009487,0.00036216,-0.00032047,-0.02680410,-0
 .30712134,0.07817454,-0.00271108,0.00214000,0.00166595,0.00094559,-0.0
 0975888,0.00457206,-0.00001055,-0.00000240,0.00002994,0.00000555,-0.00
 000679,-0.00000191,0.00000054,0.00000637,0.00000119,-0.00000665,-0.000
 00892,-0.00001464,-0.00002189,-0.00014938,-0.00022929,-0.00001297,0.00
 001745,-0.00000692,0.00028312,-0.00060080,0.00031371,-0.00025554,-0.00
 008580,-0.00013121,0.00001035,-0.00000268,-0.00000012,0.00001161,-0.00
 000076,-0.00000520,0.00001673,0.00001919,-0.00000226,0.00072005,0.0006
 1442,-0.00004044,0.00000577,-0.00000421,-0.00000058,0.00000287,-0.0000
 0574,0.00000007,0.00000346,-0.00000478,-0.00000344,-0.00000294,-0.0000
 0813,-0.00000120,-0.00000452,0.00000620,0.00000506,-0.00000643,-0.0000
 0395,0.00003128,-0.00001401,-0.00006376,0.00003804,-0.00003097,0.00002
 772,0.00001183,0.00006315,0.00036303,-0.00185927,0.03020511,0.32553786
 ,0.00001142,-0.00000620,-0.00001139,0.00001090,0.00000104,-0.00000201,
 -0.00001810,-0.00000938,-0.00002825,0.00001474,0.00009541,0.00001789,-
 0.00017667,-0.00005840,0.00011445,-0.00002875,0.00000293,0.00001243,0.
 00022404,0.00059412,0.00004992,-0.00000271,-0.00007022,0.00005927,-0.0
 0001638,-0.00010783,-0.00007431,-0.00001976,0.00000148,-0.00000241,-0.
 00001887,-0.00003014,-0.00000935,0.00000596,0.00001641,0.00000829,-0.0
 0017894,-0.00005967,-0.00015464,-0.00002173,0.00003760,0.00000012,0.00
 004507,0.00004791,0.00006448,-0.00186899,0.00178041,0.00331532,0.00184
 453,0.00870428,0.00030902,0.00114297,-0.00055432,-0.00179477,-0.000605
 80,-0.00023721,-0.00084175,0.00329248,0.07844571,-0.05989166,-0.001634
 67,0.00205064,0.00841440,-0.00047854,-0.00127916,0.00470704,-0.0000318
 2,-0.00010118,0.00003197,0.00000173,-0.00000175,0.00000189,-0.00000342
 ,0.00001367,-0.00001730,0.00002050,-0.00002917,-0.00000796,0.00015968,
 -0.00030518,-0.00072993,-0.00003478,0.00005378,0.00002037,-0.00005844,
 -0.00025189,0.00024684,-0.00003617,-0.00023649,-0.00042887,-0.00000299
 ,0.00000123,0.00000335,-0.00000524,-0.00000216,-0.00001093,-0.00001063
 ,-0.00000230,0.00001684,-0.00034444,-0.00014470,0.00032394,-0.00000366
 ,0.00000166,-0.00000289,-0.00000126,0.00000008,0.00000768,-0.00000057,
 0.00000378,0.00000115,0.00000095,-0.00000086,0.00000189,-0.00000178,-0
 .00000359,0.00001307,0.00001907,0.00003501,0.00006348,-0.00000534,-0.0
 0000869,0.00000231,-0.00000948,0.00005781,0.00008841,0.00110093,-0.001
 73776,-0.00488325,-0.00228845,-0.08678431,0.05102906,0.00054667,-0.000
 42939,-0.00012015,0.00023319,-0.00000952,0.00005411,-0.00018522,-0.000
 32599,-0.00008468,-0.00066929,0.00000453,-0.00023264,0.00037606,0.0003
 5724,-0.00018716,-0.00073083,0.00077928,0.00175226,0.00085581,-0.00045
 943,0.00032540,0.00061719,0.00015243,0.00010037,-0.00056394,-0.0002639
 4,-0.00013969,0.00019551,0.00011494,-0.00001863,-0.00036430,0.00008501
 ,0.00011820,-0.00000413,-0.00025705,-0.00002998,0.00025540,0.00016380,
 0.00000144,0.00009501,0.00001218,-0.00002975,-0.00013684,-0.00000107,-
 0.00000569,-0.00155120,-0.00145804,0.00121841,0.00026086,0.00075203,-0
 .00025499,-0.00011365,-0.00005727,-0.00000544,0.00332750,0.00368603,0.
 00192154,0.00037522,-0.00027236,0.00014018,0.00056046,-0.00026022,0.00
 019654,-0.00012677,-0.00036356,-0.00018059,0.00544974,0.00429747,0.013
 67948,0.00018030,0.00054628,0.00031142,-0.00021441,0.00053445,-0.00066
 847,-0.00091923,0.00087421,0.00038822,-0.07966952,-0.00991900,-0.08892
 403,-0.02186793,-0.00027949,-0.02704064,-0.00031367,0.00037681,-0.0008
 8125,-0.00228787,-0.00389370,0.00179718,0.00001194,-0.00000547,0.00000
 154,0.00000843,0.00000323,0.00000378,0.00000547,0.00001261,-0.00000044
 ,0.00000610,0.00001687,-0.00000880,0.00000961,-0.00000679,0.00001373,0
 .00002580,0.00001373,-0.00004259,-0.00001725,-0.00003656,0.00003780,-0
 .00003335,0.00011812,-0.00003897,-0.00015732,-0.00008193,0.00031378,0.
 00080941,0.00020450,0.00108396,-0.00071662,0.00113100,0.00113563,0.000
 04241,-0.00001492,-0.00008379,-0.00000729,-0.00002335,-0.00000940,0.00
 000444,0.00003191,0.00001339,0.09639812,-0.00023370,-0.00017941,0.0003
 4867,-0.00020202,0.00012517,-0.00002285,0.00005495,0.00008286,0.000005
 56,-0.00003322,-0.00003653,0.00001367,0.00000255,0.00038860,0.00019625
 ,-0.00048141,0.00031342,-0.00013764,0.00008812,0.00078835,-0.00010834,
 0.00018187,0.00002992,0.00001121,-0.00037162,-0.00017775,-0.00012617,-
 0.00001553,-0.00002701,0.00000723,-0.00013528,-0.00014960,0.00004613,-
 0.00001053,0.00001204,-0.00001033,-0.00014984,0.00019251,-0.00003480,-
 0.00003062,0.00016959,-0.00001519,0.00010191,-0.00002846,-0.00002030,0
 .00089131,-0.00013795,0.00059754,0.00035454,-0.00002296,-0.00053829,0.
 00025979,0.00004509,0.00003914,0.01116264,-0.00680437,0.02820033,0.000
 17324,-0.00025220,0.00020259,-0.00173834,-0.00247250,0.00092545,0.0004
 3580,-0.00073640,-0.00055528,-0.00486168,-0.00931433,-0.02620431,-0.00
 028330,-0.00044265,-0.00029029,0.00017595,-0.00108313,0.00102267,0.002
 09142,-0.00080221,-0.00047309,-0.00951069,-0.03703491,-0.00702244,-0.0
 0120465,0.00107360,-0.00611812,0.00014566,-0.00016698,0.00015585,-0.00
 107406,-0.00032437,-0.00034832,0.00000022,-0.00000105,-0.00000214,-0.0
 0000034,0.00000258,0.00000548,0.00000461,-0.00000039,0.00000325,0.0000
 1718,0.00001870,0.00003823,-0.00000040,-0.00000142,0.00000226,-0.00002
 811,-0.00000400,-0.00000603,0.00004274,0.00005801,-0.00011286,0.000063
 27,-0.00021277,-0.00002174,0.00007284,0.00036190,-0.00057662,-0.000048
 36,0.00022130,0.00018775,-0.00005851,0.00030297,0.00029805,0.00002160,
 0.00007563,0.00010615,0.00001824,-0.00025421,-0.00001274,-0.00003863,0
 .00002731,0.00007763,0.00415039,0.05637799,0.00002187,-0.00076759,0.00
 026428,-0.00016981,0.00018864,-0.00000094,0.00002352,-0.00003691,0.000
 00173,-0.00021225,0.00005089,0.00015192,0.00088676,0.00063301,-0.00038
 022,-0.00191065,-0.00005531,0.00158160,0.00124869,-0.00039447,-0.00042
 422,0.00016255,0.00011585,-0.00002734,-0.00004737,-0.00016335,0.000216
 77,-0.00000961,0.00002838,-0.00000153,-0.00014281,-0.00010348,0.000019
 31,0.00002033,-0.00002590,0.00000030,-0.00001210,0.00008258,0.00002528
 ,-0.00000347,0.00010755,-0.00000443,0.00002815,-0.00003094,-0.00001786
 ,-0.00236528,-0.00011048,0.00147164,-0.00029823,0.00071508,0.00009459,
 -0.00001273,-0.00012567,-0.00002597,-0.00611324,0.00795338,-0.01333339
 ,0.00027962,0.00007343,-0.00002803,0.00275562,0.00105432,-0.00129775,-
 0.00044579,0.00004814,0.00031970,-0.00450892,-0.00958545,-0.01963672,-
 0.00000238,-0.00005984,-0.00016992,-0.00019400,-0.00051412,0.00048818,
 0.00235676,-0.00056100,-0.00046936,-0.08356262,-0.00701347,-0.23269557
 ,-0.00263971,-0.00009187,0.00691937,-0.00037306,0.00021025,-0.00042013
 ,0.00137306,-0.00189166,0.00017380,-0.00000517,0.00000085,0.00000114,-
 0.00000433,-0.00000027,0.00000477,-0.00000859,-0.00000687,-0.00000593,
 -0.00000296,-0.00001820,-0.00002941,-0.00001013,0.00000216,-0.00000497
 ,-0.00002487,0.00000327,-0.00000716,0.00004734,0.00004759,-0.00005616,
 0.00007883,-0.00019528,0.00000486,-0.00006649,0.00021080,-0.00017735,-
 0.00060003,0.00002257,0.00058403,0.00007901,-0.00021846,-0.00039588,-0
 .00004245,0.00001614,0.00004688,0.00000501,0.00015890,-0.00001788,0.00
 004253,-0.00001999,-0.00003322,0.09437939,0.01026678,0.25729119\\0.000
 06591,-0.00005951,-0.00002422,-0.00000906,0.00002244,0.00002177,-0.000
 04752,-0.00003609,-0.00000015,-0.00004306,-0.00007111,0.00002640,0.000
 02674,0.00001954,0.00000858,-0.00006533,0.00007776,0.00000319,0.000028
 74,-0.00002384,0.00002087,0.00013410,0.00001928,-0.00001055,-0.0000845
 5,0.00005179,0.00000293,0.00005216,0.00006074,-0.00001920,-0.00003532,
 -0.00002225,0.00001511,-0.00000108,-0.00006567,-0.00000929,-0.00006014
 ,0.00000207,-0.00000770,-0.00002412,0.00006931,-0.00003272,0.00007477,
 -0.00004098,-0.00000490,-0.00003257,0.00001723,-0.00001561,0.00003466,
 0.00002916,0.00000007,0.00002579,-0.00001612,0.00000893,-0.00002308,-0
 .00008791,0.00002569,-0.00002656,-0.00000378,0.00000992,-0.00000768,0.
 00002362,-0.00001322,0.00003025,-0.00000663,0.00000017,0.00003004,-0.0
 0009058,-0.00007803,-0.00001731,0.00001366,0.00004405,0.00006103,-0.00
 008917,-0.00003641,-0.00008813,0.00010695,0.00006624,0.00007104,0.0001
 4723,0.00003379,-0.00003850,-0.00001559,-0.00000785,-0.00001301,-0.000
 01255,-0.00001054,0.00000341,-0.00000045,0.00001828,-0.00000160,-0.000
 00012,-0.00000170,-0.00000264,-0.00000745,0.00000176,-0.00000712,0.000
 00156,-0.00000101,-0.00000945,0.00000073,-0.00000841,-0.00000698,-0.00
 000865,0.00000298,-0.00001163,-0.00000498,-0.00000856,-0.00000011,-0.0
 0000178,-0.00001752,-0.00001010,0.00000785,0.00000331,0.00001220,-0.00
 001698,-0.00000686,0.00000111,0.00000700,0.00000804,0.00000127,-0.0000
 0053,-0.00000354,0.00000601,0.00001226,0.00000987,-0.00000070,0.000000
 91,-0.00000040,0.00000532,0.00000290,-0.00000477,0.00000282,-0.0000112
 8,-0.00000880\\\@


 IN THE FIGHT BETWEEN YOU AND THE WORLD, BACK THE WORLD

                                        -- FRANZ KAFKA
 Job cpu time:       2 days  8 hours 31 minutes 30.3 seconds.
 Elapsed time:       0 days  2 hours 49 minutes 34.4 seconds.
 File lengths (MBytes):  RWF=   4319 Int=      0 D2E=      0 Chk=     75 Scr=      1
 Normal termination of Gaussian 16 at Tue Jun 11 00:02:02 2019.
