 Entering Gaussian System, Link 0=/share/apps/gaussian16/g16/g16
 Initial command:
 /share/apps/gaussian16/g16/l1.exe "/home/amen01//scratch/467/Gau-7641.inp" -scrdir="/home/amen01//scratch/467/"
 Entering Link 1 = /share/apps/gaussian16/g16/l1.exe PID=      7642.
  
 Copyright (c) 1988-2017, Gaussian, Inc.  All Rights Reserved.
  
 This is part of the Gaussian(R) 16 program.  It is based on
 the Gaussian(R) 09 system (copyright 2009, Gaussian, Inc.),
 the Gaussian(R) 03 system (copyright 2003, Gaussian, Inc.),
 the Gaussian(R) 98 system (copyright 1998, Gaussian, Inc.),
 the Gaussian(R) 94 system (copyright 1995, Gaussian, Inc.),
 the Gaussian 92(TM) system (copyright 1992, Gaussian, Inc.),
 the Gaussian 90(TM) system (copyright 1990, Gaussian, Inc.),
 the Gaussian 88(TM) system (copyright 1988, Gaussian, Inc.),
 the Gaussian 86(TM) system (copyright 1986, Carnegie Mellon
 University), and the Gaussian 82(TM) system (copyright 1983,
 Carnegie Mellon University). Gaussian is a federally registered
 trademark of Gaussian, Inc.
  
 This software contains proprietary and confidential information,
 including trade secrets, belonging to Gaussian, Inc.
  
 This software is provided under written license and may be
 used, copied, transmitted, or stored only in accord with that
 written license.
  
 The following legend is applicable only to US Government
 contracts under FAR:
  
                    RESTRICTED RIGHTS LEGEND
  
 Use, reproduction and disclosure by the US Government is
 subject to restrictions as set forth in subparagraphs (a)
 and (c) of the Commercial Computer Software - Restricted
 Rights clause in FAR 52.227-19.
  
 Gaussian, Inc.
 340 Quinnipiac St., Bldg. 40, Wallingford CT 06492
  
  
 ---------------------------------------------------------------
 Warning -- This program may not be used in any manner that
 competes with the business of Gaussian, Inc. or will provide
 assistance to any competitor of Gaussian, Inc.  The licensee
 of this program is prohibited from giving any competitor of
 Gaussian, Inc. access to this program.  By using this program,
 the user acknowledges that Gaussian, Inc. is engaged in the
 business of creating and licensing software in the field of
 computational chemistry and represents and warrants to the
 licensee that it is not a competitor of Gaussian, Inc. and that
 it will not use this program in any manner prohibited above.
 ---------------------------------------------------------------
  

 Cite this work as:
 Gaussian 16, Revision B.01,
 M. J. Frisch, G. W. Trucks, H. B. Schlegel, G. E. Scuseria, 
 M. A. Robb, J. R. Cheeseman, G. Scalmani, V. Barone, 
 G. A. Petersson, H. Nakatsuji, X. Li, M. Caricato, A. V. Marenich, 
 J. Bloino, B. G. Janesko, R. Gomperts, B. Mennucci, H. P. Hratchian, 
 J. V. Ortiz, A. F. Izmaylov, J. L. Sonnenberg, D. Williams-Young, 
 F. Ding, F. Lipparini, F. Egidi, J. Goings, B. Peng, A. Petrone, 
 T. Henderson, D. Ranasinghe, V. G. Zakrzewski, J. Gao, N. Rega, 
 G. Zheng, W. Liang, M. Hada, M. Ehara, K. Toyota, R. Fukuda, 
 J. Hasegawa, M. Ishida, T. Nakajima, Y. Honda, O. Kitao, H. Nakai, 
 T. Vreven, K. Throssell, J. A. Montgomery, Jr., J. E. Peralta, 
 F. Ogliaro, M. J. Bearpark, J. J. Heyd, E. N. Brothers, K. N. Kudin, 
 V. N. Staroverov, T. A. Keith, R. Kobayashi, J. Normand, 
 K. Raghavachari, A. P. Rendell, J. C. Burant, S. S. Iyengar, 
 J. Tomasi, M. Cossi, J. M. Millam, M. Klene, C. Adamo, R. Cammi, 
 J. W. Ochterski, R. L. Martin, K. Morokuma, O. Farkas, 
 J. B. Foresman, and D. J. Fox, Gaussian, Inc., Wallingford CT, 2016.
 
 ******************************************
 Gaussian 16:  ES64L-G16RevB.01 20-Dec-2017
                12-Jun-2019 
 ******************************************
 %nprocshared=20
 Will use up to   20 processors via shared memory.
 %mem=100GB
 %chk=7-memb-hadd-3a.chk
 -------------------------------------------
 # opt freq b3lyp/6-311+g(d,p) int=grid=fine
 -------------------------------------------
 1/18=20,19=15,26=3,38=1/1,3;
 2/9=110,12=2,17=6,18=5,40=1/2;
 3/5=4,6=6,7=111,11=2,25=1,30=1,71=1,74=-5,75=-4/1,2,3;
 4//1;
 5/5=2,38=5/2;
 6/7=2,8=2,9=2,10=2,28=1/1;
 7//1,2,3,16;
 1/18=20,19=15,26=3/3(2);
 2/9=110/2;
 99//99;
 2/9=110/2;
 3/5=4,6=6,7=111,11=2,25=1,30=1,71=1,74=-5,75=-4/1,2,3;
 4/5=5,16=3,69=1/1;
 5/5=2,38=5/2;
 7//1,2,3,16;
 1/18=20,19=15,26=3/3(-5);
 2/9=110/2;
 6/7=2,8=2,9=2,10=2,19=2,28=1/1;
 99/9=1/99;
 --------------
 7-memb-hadd-3a
 --------------
 Symbolic Z-matrix:
 Charge =  0 Multiplicity = 1
 C                    -6.97188   0.02266  -0.37454 
 C                    -5.74972   0.63568  -0.22386 
 C                    -4.60637  -0.04409   0.0335 
 C                    -4.49863  -1.4177    0.14172 
 C                    -6.94488  -1.40385  -0.30559 
 C                    -5.72803  -2.11166  -0.05188 
 C                    -3.58524   0.83098   0.1843 
 C                    -2.28754   0.45144   0.44475 
 C                    -2.09311  -0.95673   0.58384 
 C                    -3.17988  -1.87535   0.43181 
 C                    -4.06145   2.11333  -0.00926 
 C                    -3.19718   3.1822   -0.06798 
 C                    -1.82433   2.88199   0.21538 
 C                    -1.39022   1.54411   0.50208 
 C                    -8.03487   0.94013  -0.52361 
 C                    -7.8179    2.35497  -0.42671 
 C                    -6.50589   2.92377  -0.28164 
 C                    -5.48293   1.99582  -0.2289 
 C                    -0.90879   3.92982   0.1666 
 C                    -3.64691   4.46891  -0.54608 
 C                    -2.57805   5.42738  -0.84277 
 C                    -1.29557   5.18904  -0.29269 
 C                    -8.91111   3.21076  -0.38502 
 C                    -8.73674   4.55702  -0.07516 
 C                    -7.4643    5.10408   0.14744 
 C                    -6.28559   4.33279  -0.04723 
 C                    -5.00397   5.02019   0.07754 
 C                    -4.99637   6.31077   0.65206 
 C                    -7.3906    6.4259    0.60001 
 C                    -6.17074   7.00641   0.90737 
 H                    -6.13057   8.01243   1.31588 
 H                    -4.06102   6.81137   0.88718 
 H                    -8.29626   7.00472   0.77109 
 H                    -9.62664   5.17563   0.03244 
 H                    -9.92263   2.82955  -0.50606 
 H                    -9.0467    0.55289  -0.62534 
 H                    -7.87021  -1.96375  -0.41998 
 H                    -5.74754  -3.19701   0.0104 
 H                    -2.9931   -2.94121   0.53821 
 H                    -1.09809  -1.34194   0.79407 
 H                    -0.33918   1.34919   0.7036 
 H                     0.12761   3.77342   0.45659 
 H                    -0.5578    5.99114  -0.31355 
 H                    -4.1521    4.20611  -1.52538 
 H                    -2.46459   5.35227  -1.96842 
 H                    -2.90453   6.48411  -0.79813 
 

 GradGradGradGradGradGradGradGradGradGradGradGradGradGradGradGradGradGrad
 Berny optimization.
 Initialization pass.
                           ----------------------------
                           !    Initial Parameters    !
                           ! (Angstroms and Degrees)  !
 --------------------------                            --------------------------
 ! Name  Definition              Value          Derivative Info.                !
 --------------------------------------------------------------------------------
 ! R1    R(1,2)                  1.3756         estimate D2E/DX2                !
 ! R2    R(1,5)                  1.4284         estimate D2E/DX2                !
 ! R3    R(1,15)                 1.4121         estimate D2E/DX2                !
 ! R4    R(2,3)                  1.3548         estimate D2E/DX2                !
 ! R5    R(2,18)                 1.3861         estimate D2E/DX2                !
 ! R6    R(3,4)                  1.3821         estimate D2E/DX2                !
 ! R7    R(3,7)                  1.3532         estimate D2E/DX2                !
 ! R8    R(4,6)                  1.425          estimate D2E/DX2                !
 ! R9    R(4,10)                 1.4257         estimate D2E/DX2                !
 ! R10   R(5,6)                  1.4304         estimate D2E/DX2                !
 ! R11   R(5,37)                 1.0876         estimate D2E/DX2                !
 ! R12   R(6,38)                 1.0873         estimate D2E/DX2                !
 ! R13   R(7,8)                  1.3769         estimate D2E/DX2                !
 ! R14   R(7,11)                 1.3815         estimate D2E/DX2                !
 ! R15   R(8,9)                  1.4283         estimate D2E/DX2                !
 ! R16   R(8,14)                 1.4151         estimate D2E/DX2                !
 ! R17   R(9,10)                 1.4311         estimate D2E/DX2                !
 ! R18   R(9,40)                 1.0875         estimate D2E/DX2                !
 ! R19   R(10,39)                1.0873         estimate D2E/DX2                !
 ! R20   R(11,12)                1.3758         estimate D2E/DX2                !
 ! R21   R(11,18)                1.4431         estimate D2E/DX2                !
 ! R22   R(12,13)                1.4336         estimate D2E/DX2                !
 ! R23   R(12,20)                1.4445         estimate D2E/DX2                !
 ! R24   R(13,14)                1.4355         estimate D2E/DX2                !
 ! R25   R(13,19)                1.3923         estimate D2E/DX2                !
 ! R26   R(14,41)                1.0878         estimate D2E/DX2                !
 ! R27   R(15,16)                1.4347         estimate D2E/DX2                !
 ! R28   R(15,36)                1.0882         estimate D2E/DX2                !
 ! R29   R(16,17)                1.4373         estimate D2E/DX2                !
 ! R30   R(16,23)                1.389          estimate D2E/DX2                !
 ! R31   R(17,18)                1.3821         estimate D2E/DX2                !
 ! R32   R(17,26)                1.4453         estimate D2E/DX2                !
 ! R33   R(19,22)                1.3951         estimate D2E/DX2                !
 ! R34   R(19,42)                1.0875         estimate D2E/DX2                !
 ! R35   R(20,21)                1.466          estimate D2E/DX2                !
 ! R36   R(20,27)                1.592          estimate D2E/DX2                !
 ! R37   R(20,44)                1.1328         estimate D2E/DX2                !
 ! R38   R(21,22)                1.4157         estimate D2E/DX2                !
 ! R39   R(21,45)                1.1338         estimate D2E/DX2                !
 ! R40   R(21,46)                1.1069         estimate D2E/DX2                !
 ! R41   R(22,43)                1.09           estimate D2E/DX2                !
 ! R42   R(23,24)                1.3924         estimate D2E/DX2                !
 ! R43   R(23,35)                1.0877         estimate D2E/DX2                !
 ! R44   R(24,25)                1.4028         estimate D2E/DX2                !
 ! R45   R(24,34)                1.0891         estimate D2E/DX2                !
 ! R46   R(25,26)                1.422          estimate D2E/DX2                !
 ! R47   R(25,29)                1.3991         estimate D2E/DX2                !
 ! R48   R(26,27)                1.4597         estimate D2E/DX2                !
 ! R49   R(27,28)                1.4127         estimate D2E/DX2                !
 ! R50   R(28,30)                1.3886         estimate D2E/DX2                !
 ! R51   R(28,32)                1.0866         estimate D2E/DX2                !
 ! R52   R(29,30)                1.3855         estimate D2E/DX2                !
 ! R53   R(29,33)                1.0884         estimate D2E/DX2                !
 ! R54   R(30,31)                1.0865         estimate D2E/DX2                !
 ! A1    A(2,1,5)              115.0222         estimate D2E/DX2                !
 ! A2    A(2,1,15)             113.0074         estimate D2E/DX2                !
 ! A3    A(5,1,15)             131.9274         estimate D2E/DX2                !
 ! A4    A(1,2,3)              123.1615         estimate D2E/DX2                !
 ! A5    A(1,2,18)             127.44           estimate D2E/DX2                !
 ! A6    A(3,2,18)             109.3057         estimate D2E/DX2                !
 ! A7    A(2,3,4)              125.4032         estimate D2E/DX2                !
 ! A8    A(2,3,7)              109.4827         estimate D2E/DX2                !
 ! A9    A(4,3,7)              125.1101         estimate D2E/DX2                !
 ! A10   A(3,4,6)              113.9619         estimate D2E/DX2                !
 ! A11   A(3,4,10)             114.0207         estimate D2E/DX2                !
 ! A12   A(6,4,10)             132.0168         estimate D2E/DX2                !
 ! A13   A(1,5,6)              121.2521         estimate D2E/DX2                !
 ! A14   A(1,5,37)             119.5357         estimate D2E/DX2                !
 ! A15   A(6,5,37)             119.1897         estimate D2E/DX2                !
 ! A16   A(4,6,5)              121.1357         estimate D2E/DX2                !
 ! A17   A(4,6,38)             119.5924         estimate D2E/DX2                !
 ! A18   A(5,6,38)             119.2638         estimate D2E/DX2                !
 ! A19   A(3,7,8)              123.6426         estimate D2E/DX2                !
 ! A20   A(3,7,11)             108.936          estimate D2E/DX2                !
 ! A21   A(8,7,11)             127.3885         estimate D2E/DX2                !
 ! A22   A(7,8,9)              114.738          estimate D2E/DX2                !
 ! A23   A(7,8,14)             113.1074         estimate D2E/DX2                !
 ! A24   A(9,8,14)             132.1454         estimate D2E/DX2                !
 ! A25   A(8,9,10)             121.2736         estimate D2E/DX2                !
 ! A26   A(8,9,40)             119.5113         estimate D2E/DX2                !
 ! A27   A(10,9,40)            119.2082         estimate D2E/DX2                !
 ! A28   A(4,10,9)             121.1972         estimate D2E/DX2                !
 ! A29   A(4,10,39)            119.5683         estimate D2E/DX2                !
 ! A30   A(9,10,39)            119.2345         estimate D2E/DX2                !
 ! A31   A(7,11,12)            120.7013         estimate D2E/DX2                !
 ! A32   A(7,11,18)            106.5746         estimate D2E/DX2                !
 ! A33   A(12,11,18)           132.4944         estimate D2E/DX2                !
 ! A34   A(11,12,13)           115.4959         estimate D2E/DX2                !
 ! A35   A(11,12,20)           120.7033         estimate D2E/DX2                !
 ! A36   A(13,12,20)           123.3757         estimate D2E/DX2                !
 ! A37   A(12,13,14)           121.6185         estimate D2E/DX2                !
 ! A38   A(12,13,19)           117.7223         estimate D2E/DX2                !
 ! A39   A(14,13,19)           120.6342         estimate D2E/DX2                !
 ! A40   A(8,14,13)            121.3199         estimate D2E/DX2                !
 ! A41   A(8,14,41)            118.8055         estimate D2E/DX2                !
 ! A42   A(13,14,41)           119.7494         estimate D2E/DX2                !
 ! A43   A(1,15,16)            121.3178         estimate D2E/DX2                !
 ! A44   A(1,15,36)            118.5962         estimate D2E/DX2                !
 ! A45   A(16,15,36)           119.8605         estimate D2E/DX2                !
 ! A46   A(15,16,17)           122.3527         estimate D2E/DX2                !
 ! A47   A(15,16,23)           119.3813         estimate D2E/DX2                !
 ! A48   A(17,16,23)           118.1373         estimate D2E/DX2                !
 ! A49   A(16,17,18)           114.4408         estimate D2E/DX2                !
 ! A50   A(16,17,26)           122.7729         estimate D2E/DX2                !
 ! A51   A(18,17,26)           122.3805         estimate D2E/DX2                !
 ! A52   A(2,18,11)            105.6012         estimate D2E/DX2                !
 ! A53   A(2,18,17)            121.0981         estimate D2E/DX2                !
 ! A54   A(11,18,17)           132.8558         estimate D2E/DX2                !
 ! A55   A(13,19,22)           120.5657         estimate D2E/DX2                !
 ! A56   A(13,19,42)           120.6031         estimate D2E/DX2                !
 ! A57   A(22,19,42)           118.8044         estimate D2E/DX2                !
 ! A58   A(12,20,21)           114.985          estimate D2E/DX2                !
 ! A59   A(12,20,27)           116.373          estimate D2E/DX2                !
 ! A60   A(12,20,44)           102.6108         estimate D2E/DX2                !
 ! A61   A(21,20,27)           118.3193         estimate D2E/DX2                !
 ! A62   A(21,20,44)           107.5696         estimate D2E/DX2                !
 ! A63   A(27,20,44)            92.2249         estimate D2E/DX2                !
 ! A64   A(20,21,22)           118.1506         estimate D2E/DX2                !
 ! A65   A(20,21,45)           103.3304         estimate D2E/DX2                !
 ! A66   A(20,21,46)           113.6377         estimate D2E/DX2                !
 ! A67   A(22,21,45)           106.4961         estimate D2E/DX2                !
 ! A68   A(22,21,46)           114.3462         estimate D2E/DX2                !
 ! A69   A(45,21,46)            97.6309         estimate D2E/DX2                !
 ! A70   A(19,22,21)           122.0767         estimate D2E/DX2                !
 ! A71   A(19,22,43)           118.8725         estimate D2E/DX2                !
 ! A72   A(21,22,43)           118.8058         estimate D2E/DX2                !
 ! A73   A(16,23,24)           120.2535         estimate D2E/DX2                !
 ! A74   A(16,23,35)           120.8407         estimate D2E/DX2                !
 ! A75   A(24,23,35)           118.6897         estimate D2E/DX2                !
 ! A76   A(23,24,25)           121.7316         estimate D2E/DX2                !
 ! A77   A(23,24,34)           117.9581         estimate D2E/DX2                !
 ! A78   A(25,24,34)           120.2624         estimate D2E/DX2                !
 ! A79   A(24,25,26)           121.2395         estimate D2E/DX2                !
 ! A80   A(24,25,29)           117.8748         estimate D2E/DX2                !
 ! A81   A(26,25,29)           120.8674         estimate D2E/DX2                !
 ! A82   A(17,26,25)           115.1279         estimate D2E/DX2                !
 ! A83   A(17,26,27)           127.3595         estimate D2E/DX2                !
 ! A84   A(25,26,27)           117.4298         estimate D2E/DX2                !
 ! A85   A(20,27,26)           123.497          estimate D2E/DX2                !
 ! A86   A(20,27,28)           118.1038         estimate D2E/DX2                !
 ! A87   A(26,27,28)           118.0151         estimate D2E/DX2                !
 ! A88   A(27,28,30)           121.8622         estimate D2E/DX2                !
 ! A89   A(27,28,32)           120.8968         estimate D2E/DX2                !
 ! A90   A(30,28,32)           117.2198         estimate D2E/DX2                !
 ! A91   A(25,29,30)           120.9306         estimate D2E/DX2                !
 ! A92   A(25,29,33)           120.6285         estimate D2E/DX2                !
 ! A93   A(30,29,33)           118.3568         estimate D2E/DX2                !
 ! A94   A(28,30,29)           119.5995         estimate D2E/DX2                !
 ! A95   A(28,30,31)           120.1122         estimate D2E/DX2                !
 ! A96   A(29,30,31)           120.2589         estimate D2E/DX2                !
 ! D1    D(5,1,2,3)             -2.9619         estimate D2E/DX2                !
 ! D2    D(5,1,2,18)          -179.0762         estimate D2E/DX2                !
 ! D3    D(15,1,2,3)           174.9421         estimate D2E/DX2                !
 ! D4    D(15,1,2,18)           -1.1722         estimate D2E/DX2                !
 ! D5    D(2,1,5,6)              2.0206         estimate D2E/DX2                !
 ! D6    D(2,1,5,37)          -179.7205         estimate D2E/DX2                !
 ! D7    D(15,1,5,6)          -175.386          estimate D2E/DX2                !
 ! D8    D(15,1,5,37)            2.873          estimate D2E/DX2                !
 ! D9    D(2,1,15,16)           -4.0071         estimate D2E/DX2                !
 ! D10   D(2,1,15,36)         -178.5422         estimate D2E/DX2                !
 ! D11   D(5,1,15,16)          173.4399         estimate D2E/DX2                !
 ! D12   D(5,1,15,36)           -1.0952         estimate D2E/DX2                !
 ! D13   D(1,2,3,4)              1.8807         estimate D2E/DX2                !
 ! D14   D(1,2,3,7)           -177.4149         estimate D2E/DX2                !
 ! D15   D(18,2,3,4)           178.6124         estimate D2E/DX2                !
 ! D16   D(18,2,3,7)            -0.6832         estimate D2E/DX2                !
 ! D17   D(1,2,18,11)          178.9402         estimate D2E/DX2                !
 ! D18   D(1,2,18,17)            5.6628         estimate D2E/DX2                !
 ! D19   D(3,2,18,11)            2.3863         estimate D2E/DX2                !
 ! D20   D(3,2,18,17)         -170.8912         estimate D2E/DX2                !
 ! D21   D(2,3,4,6)              0.3555         estimate D2E/DX2                !
 ! D22   D(2,3,4,10)          -179.3881         estimate D2E/DX2                !
 ! D23   D(7,3,4,6)            179.5436         estimate D2E/DX2                !
 ! D24   D(7,3,4,10)            -0.1999         estimate D2E/DX2                !
 ! D25   D(2,3,7,8)           -179.4733         estimate D2E/DX2                !
 ! D26   D(2,3,7,11)            -1.4221         estimate D2E/DX2                !
 ! D27   D(4,3,7,8)              1.2286         estimate D2E/DX2                !
 ! D28   D(4,3,7,11)           179.2798         estimate D2E/DX2                !
 ! D29   D(3,4,6,5)             -1.2217         estimate D2E/DX2                !
 ! D30   D(3,4,6,38)           179.8222         estimate D2E/DX2                !
 ! D31   D(10,4,6,5)           178.463          estimate D2E/DX2                !
 ! D32   D(10,4,6,38)           -0.4931         estimate D2E/DX2                !
 ! D33   D(3,4,10,9)            -0.2323         estimate D2E/DX2                !
 ! D34   D(3,4,10,39)          179.8817         estimate D2E/DX2                !
 ! D35   D(6,4,10,9)          -179.9168         estimate D2E/DX2                !
 ! D36   D(6,4,10,39)            0.1972         estimate D2E/DX2                !
 ! D37   D(1,5,6,4)              0.0238         estimate D2E/DX2                !
 ! D38   D(1,5,6,38)           178.9833         estimate D2E/DX2                !
 ! D39   D(37,5,6,4)          -178.241          estimate D2E/DX2                !
 ! D40   D(37,5,6,38)            0.7184         estimate D2E/DX2                !
 ! D41   D(3,7,8,9)             -1.6367         estimate D2E/DX2                !
 ! D42   D(3,7,8,14)           177.3946         estimate D2E/DX2                !
 ! D43   D(11,7,8,9)          -179.3166         estimate D2E/DX2                !
 ! D44   D(11,7,8,14)           -0.2853         estimate D2E/DX2                !
 ! D45   D(3,7,11,12)         -172.2977         estimate D2E/DX2                !
 ! D46   D(3,7,11,18)            2.8527         estimate D2E/DX2                !
 ! D47   D(8,7,11,12)            5.6604         estimate D2E/DX2                !
 ! D48   D(8,7,11,18)         -179.1892         estimate D2E/DX2                !
 ! D49   D(7,8,9,10)             1.1717         estimate D2E/DX2                !
 ! D50   D(7,8,9,40)          -179.7888         estimate D2E/DX2                !
 ! D51   D(14,8,9,10)         -177.6265         estimate D2E/DX2                !
 ! D52   D(14,8,9,40)            1.4129         estimate D2E/DX2                !
 ! D53   D(7,8,14,13)           -4.124          estimate D2E/DX2                !
 ! D54   D(7,8,14,41)          179.9549         estimate D2E/DX2                !
 ! D55   D(9,8,14,13)          174.6893         estimate D2E/DX2                !
 ! D56   D(9,8,14,41)           -1.2318         estimate D2E/DX2                !
 ! D57   D(8,9,10,4)            -0.2882         estimate D2E/DX2                !
 ! D58   D(8,9,10,39)          179.5981         estimate D2E/DX2                !
 ! D59   D(40,9,10,4)         -179.3305         estimate D2E/DX2                !
 ! D60   D(40,9,10,39)           0.5559         estimate D2E/DX2                !
 ! D61   D(7,11,12,13)          -5.9442         estimate D2E/DX2                !
 ! D62   D(7,11,12,20)         166.8201         estimate D2E/DX2                !
 ! D63   D(18,11,12,13)       -179.635          estimate D2E/DX2                !
 ! D64   D(18,11,12,20)         -6.8708         estimate D2E/DX2                !
 ! D65   D(7,11,18,2)           -3.1749         estimate D2E/DX2                !
 ! D66   D(7,11,18,17)         168.9661         estimate D2E/DX2                !
 ! D67   D(12,11,18,2)         171.1673         estimate D2E/DX2                !
 ! D68   D(12,11,18,17)        -16.6917         estimate D2E/DX2                !
 ! D69   D(11,12,13,14)          1.6915         estimate D2E/DX2                !
 ! D70   D(11,12,13,19)        179.8875         estimate D2E/DX2                !
 ! D71   D(20,12,13,14)       -170.8572         estimate D2E/DX2                !
 ! D72   D(20,12,13,19)          7.3388         estimate D2E/DX2                !
 ! D73   D(11,12,20,21)       -166.8475         estimate D2E/DX2                !
 ! D74   D(11,12,20,27)         48.5447         estimate D2E/DX2                !
 ! D75   D(11,12,20,44)        -50.3912         estimate D2E/DX2                !
 ! D76   D(13,12,20,21)          5.328          estimate D2E/DX2                !
 ! D77   D(13,12,20,27)       -139.2797         estimate D2E/DX2                !
 ! D78   D(13,12,20,44)        121.7843         estimate D2E/DX2                !
 ! D79   D(12,13,14,8)           3.5331         estimate D2E/DX2                !
 ! D80   D(12,13,14,41)        179.4163         estimate D2E/DX2                !
 ! D81   D(19,13,14,8)        -174.6109         estimate D2E/DX2                !
 ! D82   D(19,13,14,41)          1.2722         estimate D2E/DX2                !
 ! D83   D(12,13,19,22)         -7.2204         estimate D2E/DX2                !
 ! D84   D(12,13,19,42)        174.6826         estimate D2E/DX2                !
 ! D85   D(14,13,19,22)        170.9943         estimate D2E/DX2                !
 ! D86   D(14,13,19,42)         -7.1028         estimate D2E/DX2                !
 ! D87   D(1,15,16,17)           5.0915         estimate D2E/DX2                !
 ! D88   D(1,15,16,23)        -170.7059         estimate D2E/DX2                !
 ! D89   D(36,15,16,17)        179.5585         estimate D2E/DX2                !
 ! D90   D(36,15,16,23)          3.7611         estimate D2E/DX2                !
 ! D91   D(15,16,17,18)         -0.6947         estimate D2E/DX2                !
 ! D92   D(15,16,17,26)       -173.5353         estimate D2E/DX2                !
 ! D93   D(23,16,17,18)        175.1525         estimate D2E/DX2                !
 ! D94   D(23,16,17,26)          2.3119         estimate D2E/DX2                !
 ! D95   D(15,16,23,24)        169.5769         estimate D2E/DX2                !
 ! D96   D(15,16,23,35)         -5.0109         estimate D2E/DX2                !
 ! D97   D(17,16,23,24)         -6.3973         estimate D2E/DX2                !
 ! D98   D(17,16,23,35)        179.0149         estimate D2E/DX2                !
 ! D99   D(16,17,18,2)          -4.2939         estimate D2E/DX2                !
 ! D100  D(16,17,18,11)       -175.4465         estimate D2E/DX2                !
 ! D101  D(26,17,18,2)         168.5782         estimate D2E/DX2                !
 ! D102  D(26,17,18,11)         -2.5744         estimate D2E/DX2                !
 ! D103  D(16,17,26,25)          5.2739         estimate D2E/DX2                !
 ! D104  D(16,17,26,27)       -178.1475         estimate D2E/DX2                !
 ! D105  D(18,17,26,25)       -167.0049         estimate D2E/DX2                !
 ! D106  D(18,17,26,27)          9.5736         estimate D2E/DX2                !
 ! D107  D(13,19,22,21)         -6.1221         estimate D2E/DX2                !
 ! D108  D(13,19,22,43)        179.6349         estimate D2E/DX2                !
 ! D109  D(42,19,22,21)        172.0087         estimate D2E/DX2                !
 ! D110  D(42,19,22,43)         -2.2343         estimate D2E/DX2                !
 ! D111  D(12,20,21,22)        -18.0401         estimate D2E/DX2                !
 ! D112  D(12,20,21,45)         99.202          estimate D2E/DX2                !
 ! D113  D(12,20,21,46)       -156.1622         estimate D2E/DX2                !
 ! D114  D(27,20,21,22)        125.8429         estimate D2E/DX2                !
 ! D115  D(27,20,21,45)       -116.915          estimate D2E/DX2                !
 ! D116  D(27,20,21,46)        -12.2792         estimate D2E/DX2                !
 ! D117  D(44,20,21,22)       -131.6309         estimate D2E/DX2                !
 ! D118  D(44,20,21,45)        -14.3888         estimate D2E/DX2                !
 ! D119  D(44,20,21,46)         90.247          estimate D2E/DX2                !
 ! D120  D(12,20,27,26)        -60.9314         estimate D2E/DX2                !
 ! D121  D(12,20,27,28)        126.3348         estimate D2E/DX2                !
 ! D122  D(21,20,27,26)        155.6771         estimate D2E/DX2                !
 ! D123  D(21,20,27,28)        -17.0568         estimate D2E/DX2                !
 ! D124  D(44,20,27,26)         44.325          estimate D2E/DX2                !
 ! D125  D(44,20,27,28)       -128.4089         estimate D2E/DX2                !
 ! D126  D(20,21,22,19)         19.288          estimate D2E/DX2                !
 ! D127  D(20,21,22,43)       -166.4654         estimate D2E/DX2                !
 ! D128  D(45,21,22,19)        -96.2548         estimate D2E/DX2                !
 ! D129  D(45,21,22,43)         77.9919         estimate D2E/DX2                !
 ! D130  D(46,21,22,19)        157.126          estimate D2E/DX2                !
 ! D131  D(46,21,22,43)        -28.6274         estimate D2E/DX2                !
 ! D132  D(16,23,24,25)          2.7164         estimate D2E/DX2                !
 ! D133  D(16,23,24,34)       -174.7734         estimate D2E/DX2                !
 ! D134  D(35,23,24,25)        177.4195         estimate D2E/DX2                !
 ! D135  D(35,23,24,34)         -0.0702         estimate D2E/DX2                !
 ! D136  D(23,24,25,26)          5.5162         estimate D2E/DX2                !
 ! D137  D(23,24,25,29)       -172.937          estimate D2E/DX2                !
 ! D138  D(34,24,25,26)       -177.051          estimate D2E/DX2                !
 ! D139  D(34,24,25,29)          4.4959         estimate D2E/DX2                !
 ! D140  D(24,25,26,17)         -9.0714         estimate D2E/DX2                !
 ! D141  D(24,25,26,27)        173.9922         estimate D2E/DX2                !
 ! D142  D(29,25,26,17)        169.3356         estimate D2E/DX2                !
 ! D143  D(29,25,26,27)         -7.6008         estimate D2E/DX2                !
 ! D144  D(24,25,29,30)        176.5833         estimate D2E/DX2                !
 ! D145  D(24,25,29,33)         -0.0256         estimate D2E/DX2                !
 ! D146  D(26,25,29,30)         -1.8759         estimate D2E/DX2                !
 ! D147  D(26,25,29,33)       -178.4848         estimate D2E/DX2                !
 ! D148  D(17,26,27,20)         23.8793         estimate D2E/DX2                !
 ! D149  D(17,26,27,28)       -163.3809         estimate D2E/DX2                !
 ! D150  D(25,26,27,20)       -159.6108         estimate D2E/DX2                !
 ! D151  D(25,26,27,28)         13.129          estimate D2E/DX2                !
 ! D152  D(20,27,28,30)        163.3428         estimate D2E/DX2                !
 ! D153  D(20,27,28,32)        -14.9326         estimate D2E/DX2                !
 ! D154  D(26,27,28,30)         -9.7956         estimate D2E/DX2                !
 ! D155  D(26,27,28,32)        171.929          estimate D2E/DX2                !
 ! D156  D(27,28,30,29)          0.3117         estimate D2E/DX2                !
 ! D157  D(27,28,30,31)       -177.7227         estimate D2E/DX2                !
 ! D158  D(32,28,30,29)        178.6475         estimate D2E/DX2                !
 ! D159  D(32,28,30,31)          0.6131         estimate D2E/DX2                !
 ! D160  D(25,29,30,28)          5.7474         estimate D2E/DX2                !
 ! D161  D(25,29,30,31)       -176.2211         estimate D2E/DX2                !
 ! D162  D(33,29,30,28)       -177.5683         estimate D2E/DX2                !
 ! D163  D(33,29,30,31)          0.4631         estimate D2E/DX2                !
 --------------------------------------------------------------------------------
 Trust Radius=3.00D-01 FncErr=1.00D-07 GrdErr=1.00D-06 EigMax=2.50D+02 EigMin=1.00D-04
 Number of steps in this run=    276 maximum allowed number of steps=    276.
 GradGradGradGradGradGradGradGradGradGradGradGradGradGradGradGradGradGrad

                          Input orientation:                          
 ---------------------------------------------------------------------
 Center     Atomic      Atomic             Coordinates (Angstroms)
 Number     Number       Type             X           Y           Z
 ---------------------------------------------------------------------
      1          6           0       -6.971880    0.022660   -0.374540
      2          6           0       -5.749720    0.635680   -0.223860
      3          6           0       -4.606370   -0.044090    0.033500
      4          6           0       -4.498630   -1.417700    0.141720
      5          6           0       -6.944880   -1.403850   -0.305590
      6          6           0       -5.728030   -2.111660   -0.051880
      7          6           0       -3.585240    0.830980    0.184300
      8          6           0       -2.287540    0.451440    0.444750
      9          6           0       -2.093110   -0.956730    0.583840
     10          6           0       -3.179880   -1.875350    0.431810
     11          6           0       -4.061450    2.113330   -0.009260
     12          6           0       -3.197180    3.182200   -0.067980
     13          6           0       -1.824330    2.881990    0.215380
     14          6           0       -1.390220    1.544110    0.502080
     15          6           0       -8.034870    0.940130   -0.523610
     16          6           0       -7.817900    2.354970   -0.426710
     17          6           0       -6.505890    2.923770   -0.281640
     18          6           0       -5.482930    1.995820   -0.228900
     19          6           0       -0.908790    3.929820    0.166600
     20          6           0       -3.646910    4.468910   -0.546080
     21          6           0       -2.578050    5.427380   -0.842770
     22          6           0       -1.295570    5.189040   -0.292690
     23          6           0       -8.911110    3.210760   -0.385020
     24          6           0       -8.736740    4.557020   -0.075160
     25          6           0       -7.464300    5.104080    0.147440
     26          6           0       -6.285590    4.332790   -0.047230
     27          6           0       -5.003970    5.020190    0.077540
     28          6           0       -4.996370    6.310770    0.652060
     29          6           0       -7.390600    6.425900    0.600010
     30          6           0       -6.170740    7.006410    0.907370
     31          1           0       -6.130570    8.012430    1.315880
     32          1           0       -4.061020    6.811370    0.887180
     33          1           0       -8.296260    7.004720    0.771090
     34          1           0       -9.626640    5.175630    0.032440
     35          1           0       -9.922630    2.829550   -0.506060
     36          1           0       -9.046700    0.552890   -0.625340
     37          1           0       -7.870210   -1.963750   -0.419980
     38          1           0       -5.747540   -3.197010    0.010400
     39          1           0       -2.993100   -2.941210    0.538210
     40          1           0       -1.098090   -1.341940    0.794070
     41          1           0       -0.339180    1.349190    0.703600
     42          1           0        0.127610    3.773420    0.456590
     43          1           0       -0.557800    5.991140   -0.313550
     44          1           0       -4.152100    4.206110   -1.525380
     45          1           0       -2.464590    5.352270   -1.968420
     46          1           0       -2.904530    6.484110   -0.798130
 ---------------------------------------------------------------------
                    Distance matrix (angstroms):
                    1          2          3          4          5
     1  C    0.000000
     2  C    1.375563   0.000000
     3  C    2.401372   1.354832   0.000000
     4  C    2.908286   2.432128   1.382072   0.000000
     5  C    1.428431   2.365327   2.726272   2.486849   0.000000
     6  C    2.491304   2.752803   2.353775   1.424951   1.430415
     7  C    3.526332   2.211269   1.353216   2.427479   4.064682
     8  C    4.774739   3.530959   2.406585   2.911088   5.069115
     9  C    5.067553   4.069268   2.729883   2.488873   4.952845
    10  C    4.316469   3.652294   2.355215   1.425727   3.865397
    11  C    3.602073   2.253832   2.225585   3.561193   4.557690
    12  C    4.932041   3.608950   3.522082   4.785063   5.927358
    13  C    5.917858   4.543955   4.041630   5.064054   6.697751
    14  C    5.851342   4.511926   3.617398   4.308641   6.340114
    15  C    1.412063   2.324747   3.610218   4.301979   2.594196
    16  C    2.481560   2.697123   4.034998   5.057045   3.860772
    17  C    2.939765   2.410495   3.537751   4.801738   4.349894
    18  C    2.476195   1.386068   2.235720   3.571880   3.701477
    19  C    7.233242   5.868426   5.429712   6.440772   8.068791
    20  C    5.554637   4.383981   4.650123   5.987543   6.739715
    21  C    6.981116   5.779527   5.900755   7.177254   8.125483
    22  C    7.675850   6.370030   6.201084   7.355088   8.682227
    23  C    3.731582   4.080612   5.412947   6.416391   5.016672
    24  C    4.874913   4.931664   6.184010   7.328430   6.228630
    25  C    5.131839   4.800442   5.889346   7.164415   6.544325
    26  C    4.376682   3.739917   4.688643   6.024704   5.780177
    27  C    5.390023   4.457680   5.080055   6.458012   6.721771
    28  C    6.670598   5.791495   6.396793   7.761278   8.014309
    29  C    6.490497   6.074364   7.066374   8.372310   7.894540
    30  C    7.145480   6.484068   7.274644   8.622517   8.532470
    31  H    8.209857   7.545349   8.299108   9.642055   9.589504
    32  H    7.493439   6.498097   6.929900   8.274346   8.788014
    33  H    7.198306   6.931051   7.990310   9.260414   8.584260
    34  H    5.810893   5.975562   7.242140   8.353468   7.113062
    35  H    4.074660   4.722910   6.067252   6.919431   5.179658
    36  H    2.156136   3.322366   4.528464   5.015630   2.889415
    37  H    2.180570   3.360354   3.813580   3.461391   1.087570
    38  H    3.466044   3.839843   3.353164   2.177835   2.179196
    39  H    5.044634   4.579721   3.354203   2.178281   4.323429
    40  H    6.142409   5.156047   3.817186   3.463376   5.949625
    41  H    6.849436   5.535632   4.538631   5.027168   7.227238
    42  H    8.072282   6.697121   6.096143   6.960529   8.798020
    43  H    8.761672   7.459560   7.275669   8.404066   9.771424
    44  H    5.174635   4.122416   4.549799   5.875929   6.384290
    45  H    7.159669   6.006812   6.141303   7.377161   8.275455
    46  H    7.646771   6.529091   6.797445   8.115607   8.876201
                    6          7          8          9         10
     6  C    0.000000
     7  C    3.647802   0.000000
     8  C    4.318923   1.376921   0.000000
     9  C    3.866607   2.362624   1.428318   0.000000
    10  C    2.604394   2.747690   2.492065   1.431099   0.000000
    11  C    4.542009   1.381544   2.472804   3.694780   4.108683
    12  C    5.867744   2.396345   2.923591   4.332965   5.082214
    13  C    6.344040   2.703407   2.484904   3.865718   4.951428
    14  C    5.699835   2.329732   1.415061   2.599027   3.860120
    15  C    3.854538   4.506912   5.848790   6.334748   5.693038
    16  C    4.945588   4.539966   5.913354   6.690425   6.335921
    17  C    5.100334   3.623129   4.943130   5.939694   5.882423
    18  C    4.118592   2.264688   3.612400   4.568258   4.552640
    19  C    7.731254   4.094693   3.751992   5.045302   6.239246
    20  C    6.919479   3.711037   4.355421   5.755743   6.436150
    21  C    8.208837   4.816243   5.148017   6.559515   7.437514
    22  C    8.544291   4.945988   4.896190   6.258983   7.347185
    23  C    6.210566   5.861089   7.223160   8.049335   7.706019
    24  C    7.316022   6.363069   7.662785   8.658726   8.515345
    25  C    7.424370   5.771295   6.966656   8.110089   8.194484
    26  C    6.468526   4.428111   5.593865   6.778950   6.958155
    27  C    7.169679   4.424214   5.327974   6.667310   7.141518
    28  C    8.483406   5.677868   6.458520   7.826246   8.388129
    29  C    8.722329   6.779138   7.858721   9.086632   9.309630
    30  C    9.179071   6.733764   7.632882   8.952281   9.383872
    31  H   10.223992   7.702753   8.526214   9.863204  10.356464
    32  H    9.125855   6.040320   6.617378   8.019231   8.743162
    33  H    9.506917   7.788010   8.897005  10.094494  10.254175
    34  H    8.265039   7.442954   8.737869   9.729540   9.562245
    35  H    6.497423   6.680823   8.053201   8.764998   8.275286
    36  H    4.294445   5.528146   6.844094   7.217581   6.436885
    37  H    2.178603   5.151372   6.143867   5.949507   4.767867
    38  H    1.087310   4.574985   5.046925   4.324644   2.918433
    39  H    2.918253   3.834749   3.466500   2.179501   1.087320
    40  H    4.769114   3.358469   2.180144   1.087496   2.179360
    41  H    6.448871   3.327930   2.160802   2.899634   4.305938
    42  H    8.317525   4.745245   4.107145   5.227055   6.545892
    43  H    9.615358   6.003374   5.852802   7.171847   8.325415
    44  H    6.676000   3.825681   4.632013   5.945012   6.462195
    45  H    8.368597   5.131484   5.465608   6.815828   7.649264
    46  H    9.078343   5.778098   6.190197   7.611461   8.453942
                   11         12         13         14         15
    11  C    0.000000
    12  C    1.375825   0.000000
    13  C    2.376133   1.433575   0.000000
    14  C    2.778660   2.504678   1.435469   0.000000
    15  C    4.174808   5.351422   6.548873   6.750423   0.000000
    16  C    3.787291   4.707871   6.050860   6.544862   1.434656
    17  C    2.589651   3.325658   4.708055   5.356095   2.516179
    18  C    1.443141   2.580319   3.790519   4.181943   2.777361
    19  C    3.642777   2.418820   1.392315   2.456814   7.758586
    20  C    2.451281   1.444458   2.533759   3.840019   5.630896
    21  C    3.725338   2.454476   2.857759   4.277774   7.072069
    22  C    4.146133   2.773810   2.420785   3.731773   7.970240
    23  C    4.986457   5.722790   7.119763   7.754254   2.437779
    24  C    5.275822   5.707618   7.118395   7.961293   3.711553
    25  C    4.533048   4.684906   6.062307   7.049369   4.256094
    26  C    3.142331   3.295840   4.698577   5.660665   3.846695
    27  C    3.057076   2.581448   3.834190   5.032152   5.118069
    28  C    4.350853   3.680148   4.691381   5.978951   6.281597
    29  C    5.482035   5.343461   6.609887   7.736021   5.636602
    30  C    5.406621   4.941452   6.031664   7.270100   6.505570
    31  H    6.390355   5.818158   6.787947   8.060543   7.551656
    32  H    4.782801   3.850899   4.571009   5.918235   7.228642
    33  H    6.516767   6.427777   7.693607   8.808179   6.206756
    34  H    6.352225   6.732147   8.134512   9.013718   4.558770
    35  H    5.925640   6.748922   8.130540   8.687389   2.670928
    36  H    5.259966   6.437453   7.635060   7.802261   1.088165
    37  H    5.594455   6.960023   7.774159   7.426005   2.910390
    38  H    5.571624   6.870575   7.237944   6.458034   4.757412
    39  H    5.195139   6.156725   5.948101   4.763258   6.450714
    40  H    4.622308   5.061339   4.324800   2.915456   7.420447
    41  H    3.866183   3.481871   2.189407   1.087791   7.803654
    42  H    4.530026   3.417447   2.159375   2.697351   8.695654
    43  H    5.235033   3.862224   3.398629   4.597200   9.025708
    44  H    2.585839   2.020960   3.194065   4.338758   5.171660
    45  H    4.108406   2.976166   3.358750   4.664732   7.251377
    46  H    4.589608   3.394315   3.894779   5.327972   7.558536
                   16         17         18         19         20
    16  C    0.000000
    17  C    1.437341   0.000000
    18  C    2.370697   1.382143   0.000000
    19  C    7.111116   5.704435   4.981921   0.000000
    20  C    4.677622   3.260545   3.096409   2.880249   0.000000
    21  C    6.088418   4.691573   4.537705   2.459257   1.465998
    22  C    7.112714   5.681462   5.266375   1.395056   2.472164
    23  C    1.388965   2.424486   3.640449   8.053475   5.414858
    24  C    2.411821   2.772514   4.143750   7.856757   5.112328
    25  C    2.830598   2.420002   3.705231   6.659877   3.931524
    26  C    2.530563   1.445274   2.477639   5.396118   2.688868
    27  C    3.908435   2.603795   3.077356   4.238790   1.591987
    28  C    4.977261   3.823901   4.430759   4.755303   2.578571
    29  C    4.220096   3.718189   4.894068   6.959319   4.377048
    30  C    5.111634   4.265445   5.183648   6.140217   3.862789
    31  H    6.155531   5.346718   6.245429   6.727223   4.710838
    32  H    5.974944   4.738878   5.143635   4.331180   2.777200
    33  H    4.825322   4.579063   5.831285   8.024658   5.457263
    34  H    3.382082   3.861166   5.229706   8.807437   6.049075
    35  H    2.159030   3.425398   4.525799   9.105623   6.486429
    36  H    2.190182   3.492122   3.865187   8.846265   6.670774
    37  H    4.319042   5.076254   4.627506   9.140001   7.696186
    38  H    5.941543   6.174490   5.205071   8.615661   7.967976
    39  H    7.229059   6.885480   5.582291   7.189819   7.517515
    40  H    7.766163   6.971208   5.604813   5.312345   6.485250
    41  H    7.630232   6.440366   5.267433   2.696753   4.715446
    42  H    8.119319   6.728314   5.925193   1.087511   3.966870
    43  H    8.120566   6.692500   6.342449   2.145409   3.451645
    44  H    4.251104   2.954930   2.887447   3.668541   1.132832
    45  H    6.326026   5.007489   4.837568   3.000365   2.049697
    46  H    6.428760   5.090440   5.207391   3.382023   2.162334
                   21         22         23         24         25
    21  C    0.000000
    22  C    1.415680   0.000000
    23  C    6.725369   7.868835   0.000000
    24  C    6.267074   7.471130   1.392420   0.000000
    25  C    4.996046   6.184995   2.441605   1.402829   0.000000
    26  C    3.946754   5.068897   2.875136   2.461543   1.422020
    27  C    2.626378   3.730658   4.330559   3.764494   2.462752
    28  C    2.977107   3.980798   5.100077   4.194622   2.793102
    29  C    5.122430   6.283003   3.690442   2.400137   1.399092
    30  C    4.296946   5.339500   4.856630   3.680928   2.422736
    31  H    4.895166   5.825483   5.803490   4.546094   3.406257
    32  H    2.665962   3.416396   6.173027   5.279257   3.878707
    33  H    6.147395   7.310129   4.013572   2.627051   2.166455
    34  H    7.107179   8.337423   2.132363   1.089118   2.166578
    35  H    7.797753   8.946445   1.087724   2.139197   3.412321
    36  H    8.102553   9.037951   2.672155   4.053619   4.880011
    37  H    9.100248   9.716198   5.278281   6.587125   7.102179
    38  H    9.227875   9.499354   7.157098   8.310693   8.477862
    39  H    8.491918   8.347033   8.586148   9.465151   9.212547
    40  H    7.119917   6.623726   9.119244   9.690318   9.082837
    41  H    4.902594   4.080652   8.839034   9.023062   8.073156
    42  H    3.427027   2.142625   9.095238   8.914790   7.713840
    43  H    2.163171   1.090002   8.804170   8.307141   6.978476
    44  H    2.105965   3.262735   4.993928   4.821328   3.817767
    45  H    1.133844   2.049713   6.975015   6.599752   5.434663
    46  H    1.106915   2.126365   6.853064   6.184742   4.856963
                   26         27         28         29         30
    26  C    0.000000
    27  C    1.459670   0.000000
    28  C    2.462417   1.412702   0.000000
    29  C    2.453788   2.818687   2.397562   0.000000
    30  C    2.841249   2.448477   1.388612   1.385468   0.000000
    31  H    3.927066   3.428734   2.150050   2.148772   1.086541
    32  H    3.459074   2.180137   1.086628   3.364098   2.118813
    33  H    3.442623   3.906219   3.374168   1.088357   2.129885
    34  H    3.446642   4.625503   4.807481   2.623964   4.007556
    35  H    3.962110   5.415968   6.142326   4.535229   5.789700
    36  H    4.716522   6.065845   7.154726   6.223857   7.229680
    37  H    6.503567   7.565598   8.824733   8.465024   9.225716
    38  H    7.549219   8.251047   9.558968   9.779963  10.251509
    39  H    8.005892   8.224336   9.467058  10.348168  10.449345
    40  H    7.734372   7.499734   8.589571   9.998634   9.769317
    41  H    6.695178   5.968958   6.805097   8.689433   8.127284
    42  H    6.457233   5.294453   5.721147   7.973688   7.093986
    43  H    5.968972   4.567726   4.553622   6.907298   5.833225
    44  H    2.598606   1.989412   3.143824   4.464598   4.223134
    45  H    4.396630   3.277908   3.767698   5.658188   4.974123
    46  H    4.077204   2.705089   2.551253   4.699256   3.721513
                   31         32         33         34         35
    31  H    0.000000
    32  H    2.430919   0.000000
    33  H    2.449998   4.241240   0.000000
    34  H    4.681576   5.863647   2.379303   0.000000
    35  H    6.675435   7.221806   4.659210   2.425218   0.000000
    36  H    8.241170   8.143297   6.643740   4.705181   2.442266
    37  H   10.274421   9.655119   9.057241   7.366171   5.214936
    38  H   11.291702  10.187284  10.542766   9.227622   7.349662
    39  H   11.420627   9.817079  11.273831  10.494892   9.078026
    40  H   10.634960   8.675488  11.021838  10.760807   9.847039
    41  H    8.849511   6.612201   9.762412  10.067225   9.772270
    42  H    7.607391   5.192222   9.027834   9.863645  10.140262
    43  H    6.147879   3.793030   7.879565   9.112004   9.885988
    44  H    5.145403   3.551918   5.502732   5.773851   6.019381
    45  H    5.594863   3.582180   6.651607   7.438387   8.007807
    46  H    4.148751   2.069985   5.639525   6.898458   7.918007
                   36         37         38         39         40
    36  H    0.000000
    37  H    2.785638   0.000000
    38  H    5.034915   2.492365   0.000000
    39  H    7.085807   5.065546   2.816195   0.000000
    40  H    8.293703   6.908124   5.066834   2.492828   0.000000
    41  H    8.844268   8.303880   7.099213   5.047591   2.797554
    42  H    9.783167   9.881732   9.127068   7.404846   5.270972
    43  H   10.086288  10.805690  10.557483   9.297476   7.435913
    44  H    6.173589   7.287896   7.727240   7.529002   6.744456
    45  H    8.256033   9.227272   9.369294   8.680111   7.369608
    46  H    8.540227   9.806493  10.122278   9.519995   8.188125
                   41         42         43         44         45
    41  H    0.000000
    42  H    2.481088   0.000000
    43  H    4.757109   2.445646   0.000000
    44  H    5.260105   4.736174   4.192118   0.000000
    45  H    5.261341   3.884964   2.604342   2.087500   0.000000
    46  H    5.933264   4.256294   2.446422   2.697148   1.686472
                   46
    46  H    0.000000
 Stoichiometry    C30H16
 Framework group  C1[X(C30H16)]
 Deg. of freedom   132
 Full point group                 C1      NOp   1
 Largest Abelian subgroup         C1      NOp   1
 Largest concise Abelian subgroup C1      NOp   1
                         Standard orientation:                         
 ---------------------------------------------------------------------
 Center     Atomic      Atomic             Coordinates (Angstroms)
 Number     Number       Type             X           Y           Z
 ---------------------------------------------------------------------
      1          6           0       -1.776169   -2.699535    0.264869
      2          6           0       -1.531160   -1.349033    0.173829
      3          6           0       -2.504786   -0.432158   -0.042881
      4          6           0       -3.853388   -0.709533   -0.163131
      5          6           0       -3.152852   -3.070907    0.179770
      6          6           0       -4.174033   -2.091591   -0.030506
      7          6           0       -1.951809    0.799139   -0.139410
      8          6           0       -2.680648    1.948393   -0.348980
      9          6           0       -4.086777    1.745805   -0.496800
     10          6           0       -4.663113    0.439296   -0.402368
     11          6           0       -0.587271    0.693839    0.049300
     12          6           0        0.195820    1.819847    0.157767
     13          6           0       -0.477998    3.064431   -0.070526
     14          6           0       -1.884030    3.117907   -0.354752
     15          6           0       -0.597015   -3.467862    0.379710
     16          6           0        0.699894   -2.858505    0.309366
     17          6           0        0.877228   -1.434513    0.227217
     18          6           0       -0.300715   -0.711772    0.206780
     19          6           0        0.270497    4.234133    0.029938
     20          6           0        1.557182    1.728561    0.631918
     21          6           0        2.176917    3.009212    0.985488
     22          6           0        1.587789    4.196321    0.487642
     23          6           0        1.828288   -3.664669    0.231597
     24          6           0        3.071285   -3.105972   -0.054147
     25          6           0        3.238848   -1.722588   -0.215699
     26          6           0        2.167578   -0.817507    0.019569
     27          6           0        2.467279    0.609731   -0.042150
     28          6           0        3.703609    1.004623   -0.600072
     29          6           0        4.486627   -1.260952   -0.648596
     30          6           0        4.701039    0.085158   -0.896656
     31          1           0        5.655162    0.424074   -1.290808
     32          1           0        3.921262    2.052323   -0.789048
     33          1           0        5.296486   -1.959290   -0.851016
     34          1           0        3.914923   -3.780844   -0.191994
     35          1           0        1.746582   -4.746847    0.304816
     36          1           0       -0.684427   -4.551174    0.433551
     37          1           0       -3.430266   -4.120296    0.247839
     38          1           0       -5.210225   -2.412114   -0.106769
     39          1           0       -5.738555    0.323985   -0.513688
     40          1           0       -4.736025    2.601035   -0.669155
     41          1           0       -2.366382    4.079864   -0.513704
     42          1           0       -0.170797    5.196780   -0.217551
     43          1           0        2.150373    5.127856    0.549654
     44          1           0        1.447132    1.127078    1.585552
     45          1           0        2.073270    3.047080    2.113950
     46          1           0        3.282796    2.994704    0.939858
 ---------------------------------------------------------------------
 Rotational constants (GHZ):           0.2402638           0.1809448           0.1061053
 Standard basis: 6-311+G(d,p) (5D, 7F)
 There are   786 symmetry adapted cartesian basis functions of A   symmetry.
 There are   756 symmetry adapted basis functions of A   symmetry.
   756 basis functions,  1208 primitive gaussians,   786 cartesian basis functions
    98 alpha electrons       98 beta electrons
       nuclear repulsion energy      2651.6493799842 Hartrees.
 NAtoms=   46 NActive=   46 NUniq=   46 SFac= 1.00D+00 NAtFMM=   60 NAOKFM=F Big=F
 Integral buffers will be    131072 words long.
 Raffenetti 2 integral format.
 Two-electron integral symmetry is turned on.
 One-electron integrals computed using PRISM.
 NBasis=   756 RedAO= T EigKep=  1.01D-06  NBF=   756
 NBsUse=   734 1.00D-06 EigRej=  8.09D-07 NBFU=   734
 ExpMin= 4.38D-02 ExpMax= 4.56D+03 ExpMxC= 6.82D+02 IAcc=2 IRadAn=         4 AccDes= 0.00D+00
 Harris functional with IExCor=  402 and IRadAn=       4 diagonalized for initial guess.
 HarFok:  IExCor=  402 AccDes= 0.00D+00 IRadAn=         4 IDoV= 1 UseB2=F ITyADJ=14
 ICtDFT=  3500011 ScaDFX=  1.000000  1.000000  1.000000  1.000000
 FoFCou: FMM=F IPFlag=           0 FMFlag=      100000 FMFlg1=           0
         NFxFlg=           0 DoJE=T BraDBF=F KetDBF=T FulRan=T
         wScrn=  0.000000 ICntrl=       500 IOpCl=  0 I1Cent=   200000004 NGrid=           0
         NMat0=    1 NMatS0=      1 NMatT0=    0 NMatD0=    1 NMtDS0=    0 NMtDT0=    0
 Petite list used in FoFCou.
 Requested convergence on RMS density matrix=1.00D-08 within 128 cycles.
 Requested convergence on MAX density matrix=1.00D-06.
 Requested convergence on             energy=1.00D-06.
 No special actions if energy rises.
 SCF Done:  E(RB3LYP) =  -1153.06308510     A.U. after   17 cycles
            NFock= 17  Conv=0.78D-08     -V/T= 2.0038

 **********************************************************************

            Population analysis using the SCF Density.

 **********************************************************************

 Orbital symmetries:
       Occupied  (A) (A) (A) (A) (A) (A) (A) (A) (A) (A) (A) (A)
                 (A) (A) (A) (A) (A) (A) (A) (A) (A) (A) (A) (A)
                 (A) (A) (A) (A) (A) (A) (A) (A) (A) (A) (A) (A)
                 (A) (A) (A) (A) (A) (A) (A) (A) (A) (A) (A) (A)
                 (A) (A) (A) (A) (A) (A) (A) (A) (A) (A) (A) (A)
                 (A) (A) (A) (A) (A) (A) (A) (A) (A) (A) (A) (A)
                 (A) (A) (A) (A) (A) (A) (A) (A) (A) (A) (A) (A)
                 (A) (A) (A) (A) (A) (A) (A) (A) (A) (A) (A) (A)
                 (A) (A)
       Virtual   (A) (A) (A) (A) (A) (A) (A) (A) (A) (A) (A) (A)
                 (A) (A) (A) (A) (A) (A) (A) (A) (A) (A) (A) (A)
                 (A) (A) (A) (A) (A) (A) (A) (A) (A) (A) (A) (A)
                 (A) (A) (A) (A) (A) (A) (A) (A) (A) (A) (A) (A)
                 (A) (A) (A) (A) (A) (A) (A) (A) (A) (A) (A) (A)
                 (A) (A) (A) (A) (A) (A) (A) (A) (A) (A) (A) (A)
                 (A) (A) (A) (A) (A) (A) (A) (A) (A) (A) (A) (A)
                 (A) (A) (A) (A) (A) (A) (A) (A) (A) (A) (A) (A)
                 (A) (A) (A) (A) (A) (A) (A) (A) (A) (A) (A) (A)
                 (A) (A) (A) (A) (A) (A) (A) (A) (A) (A) (A) (A)
                 (A) (A) (A) (A) (A) (A) (A) (A) (A) (A) (A) (A)
                 (A) (A) (A) (A) (A) (A) (A) (A) (A) (A) (A) (A)
                 (A) (A) (A) (A) (A) (A) (A) (A) (A) (A) (A) (A)
                 (A) (A) (A) (A) (A) (A) (A) (A) (A) (A) (A) (A)
                 (A) (A) (A) (A) (A) (A) (A) (A) (A) (A) (A) (A)
                 (A) (A) (A) (A) (A) (A) (A) (A) (A) (A) (A) (A)
                 (A) (A) (A) (A) (A) (A) (A) (A) (A) (A) (A) (A)
                 (A) (A) (A) (A) (A) (A) (A) (A) (A) (A) (A) (A)
                 (A) (A) (A) (A) (A) (A) (A) (A) (A) (A) (A) (A)
                 (A) (A) (A) (A) (A) (A) (A) (A) (A) (A) (A) (A)
                 (A) (A) (A) (A) (A) (A) (A) (A) (A) (A) (A) (A)
                 (A) (A) (A) (A) (A) (A) (A) (A) (A) (A) (A) (A)
                 (A) (A) (A) (A) (A) (A) (A) (A) (A) (A) (A) (A)
                 (A) (A) (A) (A) (A) (A) (A) (A) (A) (A) (A) (A)
                 (A) (A) (A) (A) (A) (A) (A) (A) (A) (A) (A) (A)
                 (A) (A) (A) (A) (A) (A) (A) (A) (A) (A) (A) (A)
                 (A) (A) (A) (A) (A) (A) (A) (A) (A) (A) (A) (A)
                 (A) (A) (A) (A) (A) (A) (A) (A) (A) (A) (A) (A)
                 (A) (A) (A) (A) (A) (A) (A) (A) (A) (A) (A) (A)
                 (A) (A) (A) (A) (A) (A) (A) (A) (A) (A) (A) (A)
                 (A) (A) (A) (A) (A) (A) (A) (A) (A) (A) (A) (A)
                 (A) (A) (A) (A) (A) (A) (A) (A) (A) (A) (A) (A)
                 (A) (A) (A) (A) (A) (A) (A) (A) (A) (A) (A) (A)
                 (A) (A) (A) (A) (A) (A) (A) (A) (A) (A) (A) (A)
                 (A) (A) (A) (A) (A) (A) (A) (A) (A) (A) (A) (A)
                 (A) (A) (A) (A) (A) (A) (A) (A) (A) (A) (A) (A)
                 (A) (A) (A) (A) (A) (A) (A) (A) (A) (A) (A) (A)
                 (A) (A) (A) (A) (A) (A) (A) (A) (A) (A) (A) (A)
                 (A) (A) (A) (A) (A) (A) (A) (A) (A) (A) (A) (A)
                 (A) (A) (A) (A) (A) (A) (A) (A) (A) (A) (A) (A)
                 (A) (A) (A) (A) (A) (A) (A) (A) (A) (A) (A) (A)
                 (A) (A) (A) (A) (A) (A) (A) (A) (A) (A) (A) (A)
                 (A) (A) (A) (A) (A) (A) (A) (A) (A) (A) (A) (A)
                 (A) (A) (A) (A) (A) (A) (A) (A) (A) (A) (A) (A)
                 (A) (A) (A) (A) (A) (A) (A) (A) (A) (A) (A) (A)
                 (A) (A) (A) (A) (A) (A) (A) (A) (A) (A) (A) (A)
                 (A) (A) (A) (A) (A) (A) (A) (A) (A) (A) (A) (A)
                 (A) (A) (A) (A) (A) (A) (A) (A) (A) (A) (A) (A)
                 (A) (A) (A) (A) (A) (A) (A) (A) (A) (A) (A) (A)
                 (A) (A) (A) (A) (A) (A) (A) (A) (A) (A) (A) (A)
                 (A) (A) (A) (A) (A) (A) (A) (A) (A) (A) (A) (A)
                 (A) (A) (A) (A) (A) (A) (A) (A) (A) (A) (A) (A)
                 (A) (A) (A) (A) (A) (A) (A) (A) (A) (A) (A) (A)
 The electronic state is 1-A.
 Alpha  occ. eigenvalues --  -10.20961 -10.20039 -10.20038 -10.19732 -10.19410
 Alpha  occ. eigenvalues --  -10.19398 -10.19286 -10.19242 -10.19160 -10.19097
 Alpha  occ. eigenvalues --  -10.19012 -10.18968 -10.18889 -10.18857 -10.18738
 Alpha  occ. eigenvalues --  -10.18628 -10.18414 -10.18304 -10.18221 -10.18191
 Alpha  occ. eigenvalues --  -10.18097 -10.18037 -10.18027 -10.17816 -10.17673
 Alpha  occ. eigenvalues --  -10.17574 -10.17160 -10.15690 -10.15516 -10.15405
 Alpha  occ. eigenvalues --   -0.93381  -0.89198  -0.88761  -0.85576  -0.84508
 Alpha  occ. eigenvalues --   -0.83591  -0.80770  -0.79767  -0.78628  -0.77510
 Alpha  occ. eigenvalues --   -0.75935  -0.74463  -0.72852  -0.70986  -0.70686
 Alpha  occ. eigenvalues --   -0.67227  -0.65867  -0.64410  -0.63572  -0.62713
 Alpha  occ. eigenvalues --   -0.60293  -0.59380  -0.59065  -0.56708  -0.56119
 Alpha  occ. eigenvalues --   -0.53074  -0.52201  -0.51263  -0.50982  -0.49725
 Alpha  occ. eigenvalues --   -0.49186  -0.48067  -0.47625  -0.46581  -0.45406
 Alpha  occ. eigenvalues --   -0.45103  -0.44451  -0.44185  -0.43601  -0.43224
 Alpha  occ. eigenvalues --   -0.42889  -0.42417  -0.40925  -0.40732  -0.40545
 Alpha  occ. eigenvalues --   -0.40142  -0.39823  -0.39279  -0.38644  -0.38085
 Alpha  occ. eigenvalues --   -0.36625  -0.36367  -0.35335  -0.35185  -0.34593
 Alpha  occ. eigenvalues --   -0.34307  -0.33348  -0.33029  -0.32885  -0.32510
 Alpha  occ. eigenvalues --   -0.29577  -0.29169  -0.26694  -0.24900  -0.24120
 Alpha  occ. eigenvalues --   -0.21831  -0.20368  -0.20143
 Alpha virt. eigenvalues --   -0.09364  -0.06111  -0.05035  -0.04475  -0.01696
 Alpha virt. eigenvalues --   -0.00294  -0.00040   0.00607   0.00815   0.01417
 Alpha virt. eigenvalues --    0.01711   0.01726   0.01823   0.02763   0.03020
 Alpha virt. eigenvalues --    0.03127   0.03504   0.04117   0.04449   0.04633
 Alpha virt. eigenvalues --    0.04861   0.05093   0.05553   0.06043   0.06429
 Alpha virt. eigenvalues --    0.06891   0.06916   0.07102   0.07490   0.08038
 Alpha virt. eigenvalues --    0.08660   0.08962   0.09146   0.09289   0.09493
 Alpha virt. eigenvalues --    0.09807   0.10214   0.10502   0.10843   0.11430
 Alpha virt. eigenvalues --    0.11724   0.12005   0.12441   0.12734   0.13062
 Alpha virt. eigenvalues --    0.13444   0.13664   0.14165   0.14383   0.14633
 Alpha virt. eigenvalues --    0.14749   0.15001   0.15294   0.15340   0.16031
 Alpha virt. eigenvalues --    0.16342   0.16616   0.16735   0.16777   0.17016
 Alpha virt. eigenvalues --    0.17382   0.17466   0.17801   0.18009   0.18252
 Alpha virt. eigenvalues --    0.18357   0.18483   0.18662   0.18924   0.19444
 Alpha virt. eigenvalues --    0.19632   0.19754   0.19838   0.20179   0.20375
 Alpha virt. eigenvalues --    0.20658   0.20730   0.20942   0.21047   0.21142
 Alpha virt. eigenvalues --    0.21410   0.21654   0.21927   0.22267   0.22628
 Alpha virt. eigenvalues --    0.22970   0.23162   0.23371   0.23545   0.23747
 Alpha virt. eigenvalues --    0.23905   0.24105   0.24203   0.24570   0.24655
 Alpha virt. eigenvalues --    0.24944   0.25153   0.25680   0.25828   0.25943
 Alpha virt. eigenvalues --    0.26236   0.26329   0.26712   0.26994   0.27044
 Alpha virt. eigenvalues --    0.27379   0.27802   0.28247   0.28350   0.28626
 Alpha virt. eigenvalues --    0.28998   0.29229   0.29432   0.29533   0.30131
 Alpha virt. eigenvalues --    0.30306   0.30388   0.30800   0.31349   0.31528
 Alpha virt. eigenvalues --    0.31726   0.32276   0.32633   0.32781   0.33117
 Alpha virt. eigenvalues --    0.33487   0.34112   0.34401   0.34544   0.34941
 Alpha virt. eigenvalues --    0.35118   0.35450   0.35699   0.36280   0.36568
 Alpha virt. eigenvalues --    0.36978   0.37264   0.37692   0.37942   0.39294
 Alpha virt. eigenvalues --    0.39680   0.40318   0.40621   0.41446   0.41581
 Alpha virt. eigenvalues --    0.42226   0.42326   0.42863   0.43290   0.44103
 Alpha virt. eigenvalues --    0.44575   0.45418   0.45921   0.46308   0.47036
 Alpha virt. eigenvalues --    0.47870   0.48131   0.48755   0.49603   0.50395
 Alpha virt. eigenvalues --    0.50964   0.51002   0.52546   0.52741   0.52946
 Alpha virt. eigenvalues --    0.53102   0.53892   0.54230   0.54445   0.55002
 Alpha virt. eigenvalues --    0.55168   0.55708   0.56098   0.56387   0.56605
 Alpha virt. eigenvalues --    0.57058   0.57806   0.58167   0.58353   0.58807
 Alpha virt. eigenvalues --    0.59211   0.59639   0.59810   0.60166   0.60496
 Alpha virt. eigenvalues --    0.60685   0.60825   0.61197   0.61464   0.62254
 Alpha virt. eigenvalues --    0.62824   0.63117   0.63567   0.64002   0.64555
 Alpha virt. eigenvalues --    0.64938   0.65267   0.65364   0.65882   0.66128
 Alpha virt. eigenvalues --    0.66854   0.67001   0.67592   0.68173   0.68456
 Alpha virt. eigenvalues --    0.68673   0.68833   0.68986   0.69794   0.70044
 Alpha virt. eigenvalues --    0.70831   0.71030   0.71268   0.71605   0.71864
 Alpha virt. eigenvalues --    0.72108   0.72402   0.72758   0.73206   0.73636
 Alpha virt. eigenvalues --    0.74119   0.74553   0.74896   0.75088   0.75406
 Alpha virt. eigenvalues --    0.75709   0.76372   0.76819   0.76945   0.77213
 Alpha virt. eigenvalues --    0.77888   0.78062   0.78596   0.78889   0.79633
 Alpha virt. eigenvalues --    0.81531   0.81606   0.82276   0.82676   0.83776
 Alpha virt. eigenvalues --    0.83821   0.84387   0.84538   0.85186   0.86889
 Alpha virt. eigenvalues --    0.87648   0.88249   0.88773   0.89106   0.89273
 Alpha virt. eigenvalues --    0.90588   0.90704   0.91166   0.92055   0.92342
 Alpha virt. eigenvalues --    0.92915   0.93593   0.93840   0.94196   0.94429
 Alpha virt. eigenvalues --    0.95002   0.95533   0.96019   0.96564   0.96780
 Alpha virt. eigenvalues --    0.96982   0.97418   0.98063   0.98661   0.98730
 Alpha virt. eigenvalues --    0.99080   1.00227   1.00502   1.00846   1.01140
 Alpha virt. eigenvalues --    1.02078   1.02345   1.03013   1.03466   1.03746
 Alpha virt. eigenvalues --    1.04188   1.04817   1.05168   1.05869   1.06603
 Alpha virt. eigenvalues --    1.06876   1.07415   1.07657   1.07739   1.08928
 Alpha virt. eigenvalues --    1.09522   1.11495   1.12111   1.12459   1.13349
 Alpha virt. eigenvalues --    1.13383   1.13696   1.15202   1.15795   1.16203
 Alpha virt. eigenvalues --    1.17021   1.17558   1.18300   1.19231   1.21663
 Alpha virt. eigenvalues --    1.22634   1.23253   1.24352   1.25262   1.26130
 Alpha virt. eigenvalues --    1.26929   1.29232   1.30859   1.31649   1.33795
 Alpha virt. eigenvalues --    1.34279   1.35948   1.37120   1.38729   1.39387
 Alpha virt. eigenvalues --    1.39759   1.40488   1.42001   1.42344   1.43206
 Alpha virt. eigenvalues --    1.44049   1.44460   1.46851   1.47669   1.48313
 Alpha virt. eigenvalues --    1.48634   1.48782   1.48959   1.49188   1.49850
 Alpha virt. eigenvalues --    1.50818   1.50992   1.51618   1.52032   1.52331
 Alpha virt. eigenvalues --    1.53244   1.54274   1.54469   1.55424   1.56417
 Alpha virt. eigenvalues --    1.56851   1.57622   1.58108   1.58728   1.59608
 Alpha virt. eigenvalues --    1.60401   1.60901   1.61428   1.61432   1.62603
 Alpha virt. eigenvalues --    1.63798   1.64665   1.65265   1.66693   1.67668
 Alpha virt. eigenvalues --    1.67934   1.68216   1.69187   1.69633   1.69821
 Alpha virt. eigenvalues --    1.71233   1.71763   1.72657   1.73305   1.74042
 Alpha virt. eigenvalues --    1.74229   1.75167   1.75821   1.76416   1.76767
 Alpha virt. eigenvalues --    1.77983   1.78634   1.79029   1.79537   1.80072
 Alpha virt. eigenvalues --    1.81952   1.82843   1.83326   1.83942   1.84623
 Alpha virt. eigenvalues --    1.84908   1.85337   1.85864   1.86429   1.87197
 Alpha virt. eigenvalues --    1.87547   1.88333   1.88755   1.88868   1.89695
 Alpha virt. eigenvalues --    1.90442   1.91654   1.92266   1.92579   1.93065
 Alpha virt. eigenvalues --    1.93727   1.93752   1.94094   1.95737   1.96089
 Alpha virt. eigenvalues --    1.96177   1.97166   1.97493   1.97869   1.98404
 Alpha virt. eigenvalues --    1.99272   2.00406   2.01641   2.02318   2.02603
 Alpha virt. eigenvalues --    2.02969   2.04368   2.04875   2.05125   2.05723
 Alpha virt. eigenvalues --    2.06648   2.07662   2.08196   2.08564   2.10488
 Alpha virt. eigenvalues --    2.11962   2.12575   2.12949   2.14350   2.14870
 Alpha virt. eigenvalues --    2.15749   2.17107   2.17481   2.17847   2.18565
 Alpha virt. eigenvalues --    2.20469   2.20611   2.21049   2.21643   2.22764
 Alpha virt. eigenvalues --    2.23105   2.24278   2.25586   2.26125   2.27334
 Alpha virt. eigenvalues --    2.28051   2.29711   2.29926   2.31304   2.33123
 Alpha virt. eigenvalues --    2.34285   2.34967   2.35940   2.37771   2.39240
 Alpha virt. eigenvalues --    2.41055   2.42101   2.43055   2.43671   2.45451
 Alpha virt. eigenvalues --    2.45709   2.46033   2.46934   2.48121   2.50372
 Alpha virt. eigenvalues --    2.51421   2.52320   2.54110   2.56407   2.57107
 Alpha virt. eigenvalues --    2.57251   2.59200   2.59516   2.60817   2.62411
 Alpha virt. eigenvalues --    2.63835   2.64467   2.65621   2.66287   2.67143
 Alpha virt. eigenvalues --    2.67750   2.68872   2.69815   2.70968   2.71471
 Alpha virt. eigenvalues --    2.71755   2.72340   2.73336   2.73643   2.73829
 Alpha virt. eigenvalues --    2.74101   2.74276   2.75067   2.75432   2.75988
 Alpha virt. eigenvalues --    2.76234   2.76943   2.77365   2.77659   2.77790
 Alpha virt. eigenvalues --    2.78221   2.78967   2.79260   2.79941   2.80116
 Alpha virt. eigenvalues --    2.81237   2.82916   2.83446   2.84311   2.84865
 Alpha virt. eigenvalues --    2.85317   2.85709   2.86848   2.88253   2.89158
 Alpha virt. eigenvalues --    2.89648   2.90357   2.91431   2.92038   2.92658
 Alpha virt. eigenvalues --    2.93134   2.95721   2.96044   2.98669   2.99200
 Alpha virt. eigenvalues --    3.00221   3.01609   3.03188   3.04004   3.06440
 Alpha virt. eigenvalues --    3.07823   3.08186   3.09521   3.11917   3.15006
 Alpha virt. eigenvalues --    3.15331   3.16174   3.17389   3.18441   3.20926
 Alpha virt. eigenvalues --    3.21976   3.22808   3.23270   3.23883   3.24851
 Alpha virt. eigenvalues --    3.25784   3.29816   3.31732   3.32586   3.36452
 Alpha virt. eigenvalues --    3.37155   3.38810   3.40032   3.40657   3.42397
 Alpha virt. eigenvalues --    3.43212   3.43967   3.44534   3.45437   3.46367
 Alpha virt. eigenvalues --    3.47532   3.48050   3.50201   3.50979   3.53422
 Alpha virt. eigenvalues --    3.54158   3.54746   3.55515   3.58153   3.61554
 Alpha virt. eigenvalues --    3.63272   3.63929   3.65480   3.68171   3.70329
 Alpha virt. eigenvalues --    3.72041   3.74516   3.82759   3.87700   3.88232
 Alpha virt. eigenvalues --    3.92572   3.97580   4.00675   4.04522   4.06353
 Alpha virt. eigenvalues --    4.06908   4.07541   4.10660   4.11474   4.15178
 Alpha virt. eigenvalues --    4.18652   4.21422   4.25047   4.30206   4.36210
 Alpha virt. eigenvalues --    4.45753   4.51893   4.66883   4.75411   4.77780
 Alpha virt. eigenvalues --    4.80725   4.81730   4.82896   4.86368   4.91399
 Alpha virt. eigenvalues --    4.94270  23.40697  23.62314  23.72860  23.79190
 Alpha virt. eigenvalues --   23.84716  23.87949  23.88510  23.92740  23.93497
 Alpha virt. eigenvalues --   23.95041  23.96545  23.98240  23.99300  23.99865
 Alpha virt. eigenvalues --   24.02773  24.03163  24.03494  24.04878  24.05581
 Alpha virt. eigenvalues --   24.07602  24.07881  24.08266  24.10599  24.13941
 Alpha virt. eigenvalues --   24.15707  24.16342  24.17135  24.18060  24.26813
 Alpha virt. eigenvalues --   24.35695
          Condensed to atoms (all electrons):
               1          2          3          4          5          6
     1  C    9.400187   0.526002   0.334456   1.125432  -1.100484  -1.753985
     2  C    0.526002   7.955097  -0.389142   0.120898  -0.010206   1.656098
     3  C    0.334456  -0.389142   8.051801   0.477358   0.486727  -1.306000
     4  C    1.125432   0.120898   0.477358  11.472323  -1.672078  -2.870953
     5  C   -1.100484  -0.010206   0.486727  -1.672078   9.209337   1.728983
     6  C   -1.753985   1.656098  -1.306000  -2.870953   1.728983  12.029233
     7  C    0.354297  -0.425552   0.145722   0.847251  -0.597414  -1.374536
     8  C   -0.154386   0.565488  -0.601800   0.629044  -0.166142   0.849714
     9  C    0.122966  -0.950104   2.038266  -1.794259   0.098629  -1.292499
    10  C    0.287621  -1.154294  -0.867306  -1.625796  -0.394153  -1.451020
    11  C   -0.223414   0.493518  -0.356160   0.502754  -0.183808   0.450847
    12  C   -0.151528  -0.188301  -0.096524   0.033578  -0.057483  -0.173325
    13  C    0.154591  -0.081585  -0.217826  -0.367977  -0.036173  -0.151815
    14  C   -0.028382  -0.141511  -0.575327  -0.243394  -0.113718   0.196549
    15  C    0.888516   0.259911   0.009010  -0.426894  -0.421943   0.210614
    16  C   -1.775097  -0.547828  -0.169867  -0.361337   0.151290  -0.178705
    17  C   -0.566723   0.494010  -0.111798  -0.219782  -0.351824   0.442600
    18  C    0.260482  -0.393821  -0.291009   0.636085  -0.591972  -0.840924
    19  C    0.061680   0.042163   0.117434  -0.137010   0.003123  -0.023492
    20  C    0.153812   0.140949  -0.662713   0.006803   0.136035   0.033538
    21  C   -0.003565   0.120440  -0.112561   0.000225   0.020865  -0.015545
    22  C   -0.009557  -0.083303  -0.022121  -0.015576  -0.006713   0.002298
    23  C   -0.984570  -0.863403   0.068057  -0.204334   0.060291  -0.075917
    24  C    0.181310  -0.264570   0.067852  -0.027962  -0.076076  -0.001941
    25  C   -0.261910  -0.575163   0.101638  -0.109270   0.020514   0.038711
    26  C   -0.778848   0.110139  -0.233287   0.050468  -0.081344  -0.159940
    27  C   -0.172795  -0.246241   0.042278  -0.011542  -0.077742  -0.012391
    28  C   -0.002473   0.110409   0.043961   0.006326  -0.002218  -0.006446
    29  C   -0.096650  -0.357968   0.002044  -0.027979   0.011330   0.006654
    30  C   -0.009038  -0.030448   0.020022   0.001581  -0.006853   0.000271
    31  H    0.000042   0.000044  -0.000015   0.000001   0.000002   0.000000
    32  H   -0.000071  -0.000855   0.000001   0.000055  -0.000013   0.000008
    33  H    0.000531   0.000203   0.000004  -0.000002   0.000040   0.000002
    34  H    0.001583  -0.000345   0.000156   0.000006   0.000093  -0.000003
    35  H    0.049202   0.003641   0.001602   0.000022   0.006697   0.000957
    36  H   -0.060744   0.026431  -0.013422   0.008643  -0.000859  -0.006917
    37  H   -0.113772   0.029595  -0.000501  -0.054186   0.384574   0.046195
    38  H    0.009389   0.005311   0.028341  -0.121931   0.023774   0.406578
    39  H    0.006673  -0.018245   0.047908  -0.083614   0.000104  -0.022255
    40  H    0.001157  -0.002785  -0.006668  -0.027159  -0.001039   0.001639
    41  H   -0.000147   0.004300  -0.010496   0.010620   0.000243   0.000175
    42  H    0.000047  -0.000033   0.001116  -0.000322   0.000007  -0.000036
    43  H    0.000008   0.000071   0.000040   0.000061   0.000002   0.000003
    44  H   -0.006987  -0.003801  -0.011519   0.001526  -0.001182  -0.000273
    45  H    0.000126  -0.000632  -0.000547  -0.000282  -0.000018  -0.000011
    46  H   -0.000239  -0.000675   0.000172   0.000123  -0.000017   0.000011
               7          8          9         10         11         12
     1  C    0.354297  -0.154386   0.122966   0.287621  -0.223414  -0.151528
     2  C   -0.425552   0.565488  -0.950104  -1.154294   0.493518  -0.188301
     3  C    0.145722  -0.601800   2.038266  -0.867306  -0.356160  -0.096524
     4  C    0.847251   0.629044  -1.794259  -1.625796   0.502754   0.033578
     5  C   -0.597414  -0.166142   0.098629  -0.394153  -0.183808  -0.057483
     6  C   -1.374536   0.849714  -1.292499  -1.451020   0.450847  -0.173325
     7  C    7.258612   0.059057   0.292040   0.926459  -0.340693   0.605752
     8  C    0.059057  10.453160  -2.193141  -1.680625   0.647820  -0.697177
     9  C    0.292040  -2.193141  12.685478   2.250889  -1.591946  -0.670269
    10  C    0.926459  -1.680625   2.250889  11.379730  -0.933541   0.022450
    11  C   -0.340693   0.647820  -1.591946  -0.933541  10.053421   2.036658
    12  C    0.605752  -0.697177  -0.670269   0.022450   2.036658  11.206571
    13  C   -0.690089  -0.997681  -0.327326  -0.338501  -0.082245   0.301739
    14  C    0.215048   1.040355  -1.769328   0.254128   1.279377   0.915948
    15  C   -0.156426  -0.008114  -0.105668  -0.074813   0.029700  -0.071465
    16  C   -0.329206   0.081418  -0.107095  -0.177871  -0.140395  -0.322476
    17  C   -0.277598  -0.209862  -0.375718  -0.171034   0.803537  -0.088574
    18  C    0.593769  -0.214591  -0.323659   0.374364  -0.893886   0.328107
    19  C   -0.408239  -0.354659   0.235941  -0.189265  -1.389754  -2.307165
    20  C   -0.241456  -1.312919  -0.291059  -0.398856  -3.108248  -1.883662
    21  C    0.124022   0.159573   0.089041  -0.015535  -1.284147  -2.181084
    22  C   -0.136099  -0.432393  -0.142253   0.006277  -0.038329   0.764683
    23  C   -0.098830   0.057304  -0.026444  -0.013671   0.290559  -0.006081
    24  C   -0.064787   0.024077  -0.007882   0.003696   0.240921  -0.151439
    25  C   -0.165776  -0.007606  -0.019341  -0.024999  -0.045671  -0.560405
    26  C    0.088569   0.103370   0.034360   0.034027   0.294493   0.326972
    27  C   -0.324012   0.044917  -0.018455   0.057037   0.266277  -0.594341
    28  C    0.003808   0.155560   0.056679  -0.000013   0.010989  -0.248647
    29  C    0.020870  -0.018744  -0.004187  -0.006641  -0.358859   0.070389
    30  C    0.003701   0.016205   0.003240   0.001191   0.145641   0.122298
    31  H    0.000066  -0.000013   0.000000  -0.000000  -0.001245  -0.000464
[...]
 .00000246,-0.00012182,0.00019586,0.00019777,0.00014511,-0.00055052,-0.
 00032865,-0.00028908,-0.00008741,0.00009889,-0.00003891,0.00001554,0.0
 0000186,0.00006672,0.00004773,0.00001613,-0.00003801,0.00003136,0.0000
 1770,-0.00011741,0.00000712,-0.00004389,0.00000092,0.00000530,0.000004
 89,-0.00001414,0.00000092,-0.00000429,-0.00000436,-0.00000162,-0.00000
 152,-0.00000254,-0.00000342,0.00000012,-0.00000220,-0.00000318,0.00000
 160,0.00000145,-0.00000191,-0.00000073,0.00000689,-0.00000256,-0.00000
 979,0.00000164,-0.00000348,-0.00000025,0.00006997,-0.00004745,-0.00020
 159,-0.00117229,0.00074955,0.00370425,0.14713241,-0.00000951,0.0000154
 3,-0.00000034,-0.00004082,-0.00004337,-0.00000485,0.00001729,0.0000542
 2,0.00002313,0.00005729,-0.00005069,0.00000678,-0.00001492,-0.00002056
 ,0.00000249,-0.00000592,0.00002460,-0.00001054,0.00001262,0.00000790,0
 .00003472,0.00031038,-0.00046424,-0.00011174,-0.00010031,0.00005442,-0
 .00011549,-0.00005646,-0.00007426,0.00003116,-0.00004314,0.00006389,-0
 .00016793,0.00045890,0.00004655,0.00007874,0.00229479,-0.00199225,0.00
 420891,-0.00117608,-0.00049713,-0.00029478,-0.00000667,-0.00001473,-0.
 00000142,-0.00000294,0.00000243,0.00000009,-0.00002709,-0.00003060,-0.
 00002633,0.00003632,0.00000424,0.00002090,-0.01927884,-0.02026257,-0.0
 0570328,0.00138559,0.00069777,0.00091076,0.00470532,0.00554365,0.00190
 018,-0.12840541,-0.22561182,-0.03506828,0.00001712,-0.00000625,-0.0000
 0257,-0.00000152,0.00000758,0.00000053,0.00000471,0.00001982,-0.000001
 34,0.00003636,-0.00003425,-0.00000890,-0.00003548,0.00009475,0.0000265
 6,0.00002848,-0.00001971,0.00000228,0.00000154,-0.00000305,0.00000441,
 0.00001259,-0.00000025,0.00000132,-0.00000069,0.00000814,-0.00000102,-
 0.00004378,-0.00000113,-0.00002748,-0.00000445,0.00000125,0.00000068,-
 0.00000134,0.00000403,0.00000294,-0.00000476,-0.00000158,0.00000068,-0
 .00000594,-0.00000011,0.00000155,-0.00000627,-0.00000178,-0.00000062,-
 0.00000317,-0.00000811,0.00000355,-0.00001808,-0.00001526,0.00001060,0
 .00001258,-0.00000591,0.00000879,0.00001102,0.00001061,0.00011641,0.00
 107027,0.00058241,-0.00119836,0.13932597,0.24056825,-0.00001722,-0.000
 03091,0.00000706,0.00003378,0.00008079,0.00000666,0.00008180,0.0000652
 6,0.00001856,0.00002811,-0.00008429,0.00001735,0.00000926,0.00005655,-
 0.00001484,0.00004221,-0.00002673,0.00000224,-0.00000341,-0.00019739,0
 .00016238,0.00001434,-0.00009465,-0.00088797,0.00016531,0.00009573,-0.
 00007929,-0.00010174,0.00001344,0.00003451,0.00030409,0.00011804,-0.00
 031025,-0.00014268,-0.00003633,-0.00046277,-0.00546374,0.00341874,0.00
 679771,0.00074985,0.00078604,0.00046389,-0.00000423,0.00000405,0.00000
 013,0.00000602,-0.00001853,-0.00000008,0.00001989,0.00005911,0.0000034
 4,-0.00000625,-0.00000323,-0.00001965,0.00620403,0.01086777,0.00716362
 ,-0.00078097,0.00200810,-0.00229515,-0.01146336,-0.01412281,0.00156130
 ,-0.03930885,-0.03741280,-0.05179352,-0.00003219,0.00000582,-0.0000043
 6,0.00001500,-0.00000020,-0.00000468,-0.00001479,-0.00005273,-0.000006
 85,-0.00004615,0.00014440,0.00010267,0.00001998,-0.00022002,-0.0001864
 0,0.00001448,0.00003390,0.00000769,-0.00002612,0.00001755,0.00000961,-
 0.00001614,-0.00000706,-0.00001472,-0.00000593,0.00001121,0.00000777,0
 .00001291,-0.00007156,0.00003225,-0.00001281,0.00000045,0.00000301,-0.
 00001153,-0.00000082,0.00000040,-0.00000279,-0.00000548,0.00000100,-0.
 00000167,-0.00000304,0.00000155,-0.00000210,-0.00000272,0.00000156,0.0
 0000196,-0.00000107,0.00000352,0.00000211,0.00001017,0.00001693,0.0000
 0026,-0.00000429,0.00000088,-0.00011800,0.00003486,0.00029986,0.003536
 55,-0.00136697,-0.00454782,0.04624969,0.03577896,0.04359051,0.00028621
 ,-0.00013486,0.00005528,0.00001759,-0.00034404,-0.00011459,-0.00013637
 ,-0.00014801,-0.00002748,-0.00017016,0.00006620,-0.00008741,-0.0000396
 9,0.00010795,-0.00000391,0.00011324,-0.00001116,0.00002415,-0.00030867
 ,0.00057942,0.00036019,0.00011728,-0.00005774,-0.00002808,0.00003474,-
 0.00007001,-0.00001971,0.00013731,0.00000805,0.00005107,0.00027386,-0.
 00208346,0.00124849,-0.00559915,0.00243502,-0.01301112,0.00016168,0.00
 117767,-0.00017709,-0.00043528,0.00006122,0.00018683,0.00001989,0.0002
 9644,-0.00000254,-0.00060062,-0.00023672,-0.00014371,0.00039974,0.0005
 5117,0.00014196,0.00076242,-0.00013027,-0.00050720,0.00038402,0.000046
 40,0.00016736,-0.07005784,-0.01755104,-0.07712583,-0.01382051,-0.00660
 972,-0.01844266,-0.00178305,-0.00411993,0.00075516,-0.00000936,-0.0000
 9745,-0.00005991,0.00025184,-0.00002080,0.00005480,0.00048626,0.000188
 09,-0.00047032,0.00000270,0.00006918,0.00106010,0.00358668,0.00778563,
 0.02735155,-0.00260707,0.00003989,0.00083910,-0.00012384,0.00054230,0.
 00038209,-0.00051585,0.00105180,-0.00098606,-0.00018478,0.00018310,0.0
 0002446,0.00006972,-0.00030630,0.00051989,-0.00000674,-0.00007359,0.00
 008987,0.00002148,0.00000511,0.00000396,0.00001061,-0.00002063,-0.0000
 0060,0.00000606,0.00001337,0.00001952,0.00000293,0.00000374,-0.0000011
 4,0.00000238,0.00000409,-0.00000603,0.00000435,0.00000870,-0.00000259,
 -0.00000632,-0.00000345,-0.00000056,-0.00007056,0.00011298,-0.00000508
 ,0.00004578,0.00004886,-0.00011991,-0.00086833,0.00013521,-0.00093315,
 0.09075823,0.00005748,0.00000425,0.00002802,0.00024113,-0.00062476,-0.
 00002244,-0.00028219,0.00006942,-0.00007760,0.00011878,-0.00001698,0.0
 0007617,-0.00006715,0.00001333,0.00000894,0.00006299,0.00007647,-0.000
 03840,0.00017909,0.00089034,-0.00045345,0.00041218,-0.00020597,0.00013
 383,-0.00015913,0.00014175,0.00000758,0.00001830,-0.00026926,0.0000697
 7,0.00114655,-0.00110953,0.00176412,0.01359463,-0.00227798,0.02947905,
 -0.00115974,-0.00290374,0.00073823,0.00084600,-0.00044116,-0.00061524,
 0.00002628,0.00007732,0.00000117,-0.00030196,0.00006763,-0.00010064,-0
 .00017244,0.00072297,-0.00011591,0.00068239,0.00032270,-0.00001757,-0.
 00030508,0.00034093,0.00023615,-0.01922325,-0.05096164,-0.04365870,-0.
 01185493,-0.00474193,-0.01926933,-0.00122894,-0.00342367,0.00130119,0.
 00006194,-0.00003870,0.00000366,-0.00000250,0.00004854,0.00000168,0.00
 013811,-0.00046676,0.00013763,-0.00107234,0.00009433,0.00064078,0.0002
 7265,-0.00254975,-0.01357494,0.00139551,0.00020850,-0.00034206,0.00008
 639,0.00008890,0.00000623,0.00010345,-0.00063934,0.00052044,0.00008988
 ,-0.00008467,-0.00005873,-0.00011109,0.00029987,-0.00031307,0.00002682
 ,0.00005583,-0.00008844,0.00000468,-0.00000479,-0.00000707,0.00000556,
 0.00000359,-0.00000113,-0.00000012,0.00001182,0.00001989,-0.00000577,0
 .00001078,0.00000261,-0.00000558,0.00000018,0.00000959,-0.00001398,0.0
 0000247,-0.00000405,0.00000551,-0.00001556,0.00000795,0.00014975,-0.00
 021526,-0.00001815,0.00003799,0.00008347,-0.00005112,-0.00082971,0.000
 23833,-0.00068291,0.01721558,0.06632404,0.00034083,-0.00006893,0.00005
 317,-0.00018596,-0.00012681,0.00002410,-0.00003478,-0.00031160,-0.0000
 4109,-0.00013784,0.00017672,-0.00013334,-0.00004238,-0.00000970,0.0000
 0526,0.00002161,0.00000969,0.00002387,-0.00014592,0.00046309,0.0003400
 8,-0.00001278,-0.00010431,-0.00008953,0.00004611,-0.00009726,-0.000001
 75,0.00013421,0.00003046,0.00006175,-0.00137219,-0.00093680,0.00212316
 ,-0.00702073,0.00258783,-0.01132758,0.00076285,0.00092682,-0.00043353,
 -0.00038427,0.00016100,0.00006945,-0.00010616,0.00028218,0.00001137,-0
 .00028917,-0.00013460,0.00006768,0.00054609,0.00111996,-0.00046352,0.0
 0117380,0.00025965,-0.00040259,0.00041100,0.00024961,0.00001803,-0.080
 67344,-0.04304261,-0.25991332,0.00343926,0.00132173,0.00275490,0.00073
 232,0.00046827,0.00094945,0.00001853,-0.00001690,-0.00002321,-0.000064
 54,0.00001445,-0.00001078,0.00040924,-0.00074738,0.00007356,-0.0013713
 3,-0.00107081,0.00153795,0.00108967,-0.00722486,-0.01990810,0.00235088
 ,0.00040590,-0.00069659,0.00011715,0.00020867,-0.00005292,-0.00002256,
 -0.00068414,0.00048341,0.00014572,-0.00013071,-0.00001191,-0.00010419,
 0.00029720,-0.00028587,0.00002768,0.00007270,-0.00007626,-0.00000999,-
 0.00000547,-0.00000906,-0.00000072,0.00000966,-0.00000211,-0.00000185,
 -0.00000002,-0.00000281,0.00000282,-0.00000559,-0.00000560,-0.00000241
 ,-0.00000178,-0.00000450,0.00000991,-0.00000032,-0.00000513,-0.0000026
 9,-0.00000578,-0.00000244,-0.00006269,0.00011605,0.00005381,0.00001588
 ,-0.00005051,-0.00004883,0.00021944,0.00005688,0.00018357,0.07966301,0
 .04472451,0.28250491,-0.00000568,-0.00004305,-0.00002715,0.00008990,0.
 00003430,0.00003058,-0.00004751,-0.00008856,-0.00012840,-0.00001076,0.
 00002190,0.00003515,0.00006976,0.00009256,-0.00001579,0.00002593,-0.00
 007542,0.00002793,0.00016768,-0.00004754,0.00005231,-0.00011121,-0.000
 26075,-0.00005886,0.00006845,0.00000690,0.00005200,0.00003067,0.000004
 18,-0.00000481,0.00000379,0.00005974,0.00041429,-0.00053427,0.00052385
 ,-0.00011299,0.00032835,-0.00133326,-0.00099322,0.00009043,0.00047687,
 0.00016743,-0.00000063,0.00003567,0.00000629,0.00001098,-0.00007817,-0
 .00002101,0.00004305,0.00014167,0.00007868,-0.00002092,-0.00001321,-0.
 00006609,-0.00126459,-0.00037622,-0.00147147,-0.01301621,0.00093673,0.
 02065465,-0.07013502,0.01064988,0.07603349,0.00721127,-0.00053824,-0.0
 2614052,-0.00010088,0.00003496,-0.00000389,-0.00000374,0.00005129,0.00
 000348,-0.00032633,-0.00003038,-0.00010198,-0.00033965,0.00085864,0.00
 065019,-0.00231884,-0.00370311,0.00065654,-0.00026103,-0.00009141,0.00
 022494,-0.00027230,-0.00009551,-0.00002636,0.00016907,-0.00026728,-0.0
 0003120,-0.00000720,0.00002312,0.00002972,-0.00013274,-0.00011736,-0.0
 0032899,-0.00003322,0.00001119,-0.00002198,-0.00005004,-0.00001359,-0.
 00001133,-0.00000360,-0.00001526,0.00000254,0.00000024,-0.00000727,0.0
 0000563,0.00000010,-0.00000435,0.00000696,0.00000874,0.00000521,-0.000
 00068,0.00000683,0.00000803,-0.00000136,0.00000087,-0.00000502,-0.0000
 0860,0.00002686,-0.00005470,0.00001093,-0.00106522,0.00051910,0.001742
 72,-0.00075160,-0.00036258,0.00087083,-0.00008034,0.00009524,0.0007147
 1,0.08638176,0.00001069,-0.00001119,0.00000752,0.00002537,-0.00000610,
 -0.00000948,-0.00005671,-0.00007371,-0.00006914,-0.00005761,0.00004542
 ,-0.00003021,0.00001549,0.00001683,-0.00000732,0.00000677,-0.00001820,
 0.00002728,-0.00009212,0.00012244,-0.00005973,0.00013301,0.00013621,0.
 00013283,0.00000588,-0.00011389,0.00002982,0.00008367,0.00003732,0.000
 00957,-0.00017431,-0.00025904,0.00022738,0.00001141,0.00026339,-0.0004
 0475,0.00034949,0.00067866,-0.00019396,0.00002626,-0.00045993,0.000002
 80,-0.00000045,0.00001547,0.00000287,-0.00002517,-0.00001738,-0.000007
 09,0.00010809,0.00008463,0.00009423,-0.00000871,0.00001420,-0.00003013
 ,0.00080975,-0.00013628,0.00064669,-0.01269607,0.00059395,0.01920997,0
 .01200450,-0.04842020,-0.02979733,-0.00073505,0.00094318,0.00753194,0.
 00001907,-0.00000737,0.00000743,-0.00003952,0.00008250,0.00004220,-0.0
 0013416,-0.00022991,-0.00020167,-0.00068229,0.00071651,0.00034310,-0.0
 0078276,-0.00332908,0.00000877,-0.00006549,-0.00037252,-0.00091177,0.0
 0010441,-0.00002071,0.00006846,0.00009053,0.00037863,0.00004550,-0.000
 02953,0.00001932,-0.00002827,0.00059189,0.00024329,0.00038158,0.000044
 18,0.00000788,0.00003486,-0.00002913,-0.00000956,-0.00000978,0.0000007
 0,-0.00000041,-0.00000547,0.00000270,-0.00000210,-0.00000053,0.0000037
 3,-0.00000052,-0.00000147,0.00000295,0.00000531,-0.00000124,0.00000347
 ,0.00000486,0.00000013,-0.00000410,0.00000273,-0.00000757,0.00000516,0
 .00000610,-0.00003819,0.00029080,-0.00019118,-0.00042788,-0.00032878,0
 .00009211,0.00029917,-0.00018377,0.00163477,0.00075761,-0.00912782,0.0
 5223978,-0.00002267,-0.00000490,-0.00001012,0.00005750,0.00004146,0.00
 002453,-0.00004538,-0.00000640,-0.00001996,-0.00002648,0.00003714,0.00
 000877,0.00002015,0.00004305,-0.00000443,0.00002441,-0.00003072,0.0000
 0364,0.00003395,0.00011280,0.00006364,0.00010155,0.00002250,-0.0000168
 3,0.00002070,-0.00007156,0.00004663,0.00007191,0.00001584,0.00001546,-
 0.00000014,0.00021221,-0.00004588,0.00040039,0.00003272,-0.00050030,0.
 00080507,0.00046732,-0.00073882,0.00009506,-0.00020514,0.00010003,-0.0
 0000184,-0.00000505,0.00000568,0.00000735,0.00000660,0.00000660,0.0000
 3079,-0.00001166,0.00003117,-0.00001547,-0.00000674,-0.00003683,-0.001
 80201,-0.00304890,0.00099937,0.00114080,-0.00110359,-0.00335374,0.0852
 6027,-0.02892232,-0.25774325,-0.00133661,0.00103339,-0.02369094,0.0000
 0224,0.00000049,0.00000242,0.00000651,-0.00001428,-0.00000070,0.000048
 25,0.00003150,-0.00002616,0.00002573,-0.00006742,-0.00014740,-0.000280
 31,0.00065693,0.00109666,-0.00034567,-0.00007002,-0.00002555,0.0000169
 3,0.00001155,0.00000195,0.00004889,0.00007700,0.00000889,-0.00000682,-
 0.00000421,-0.00000100,0.00013414,0.00013260,0.00005174,0.00001447,0.0
 0000217,-0.00000218,0.00000874,-0.00000109,-0.00000033,0.00000515,0.00
 000415,-0.00000257,0.00000694,0.00000098,-0.00000390,0.00000570,0.0000
 0149,0.00000153,0.00000468,0.00000861,-0.00000388,0.00000410,0.0000107
 3,-0.00000698,-0.00000684,-0.00000022,-0.00000857,-0.00001189,-0.00002
 213,0.00004518,-0.00077086,0.00047480,0.00105753,-0.00080051,0.0001003
 9,-0.00061949,-0.00072879,-0.00039650,0.00267751,-0.08371231,0.0322266
 9,0.28320576,-0.00003766,0.00002992,0.00000721,0.00001075,0.00001588,-
 0.00000271,0.00000153,-0.00017344,0.00001223,-0.00001321,0.00005924,0.
 00000922,0.00001718,0.00000471,0.00000030,-0.00002256,-0.00002888,0.00
 001031,-0.00023779,-0.00005416,-0.00018554,-0.00002451,-0.00010779,0.0
 0000045,0.00002709,0.00003348,0.00003743,0.00001812,-0.00003052,0.0000
 0599,0.00106397,-0.00119225,0.00029697,-0.00445959,-0.00206171,0.00006
 315,-0.00071232,-0.00049522,0.00037250,0.00018187,0.00019503,0.0000663
 6,-0.00002819,-0.00005214,-0.00000073,-0.00001084,0.00003794,0.0000207
 8,0.00004172,-0.00003256,-0.00002393,0.00013937,0.00005924,0.00007835,
 -0.00361014,-0.00087061,-0.00256664,0.00931420,-0.02198874,-0.00072792
 ,-0.07571900,0.08021798,0.00192149,-0.00867900,0.02470190,0.00226407,0
 .00005893,-0.00004974,-0.00000508,0.00000791,0.00005460,-0.00001487,0.
 00008036,-0.00007010,-0.00004382,0.00009421,-0.00022062,-0.00009186,0.
 00119719,0.00036663,0.00039018,-0.00118343,0.00004303,0.00155502,0.000
 13087,0.00020113,0.00000868,-0.00030110,0.00015901,0.00002547,-0.00000
 445,-0.00004224,0.00009262,-0.00087960,-0.00002423,0.00168369,0.000008
 87,0.00000025,0.00000473,0.00001260,0.00000044,-0.00000033,-0.00000038
 ,0.00000680,-0.00000105,0.00000183,0.00000080,-0.00000097,0.00000163,-
 0.00000293,0.00000066,-0.00000405,0.00000027,-0.00000080,0.00000366,0.
 00000348,-0.00000489,0.00000130,-0.00001290,0.00000162,0.00005043,-0.0
 0006303,0.00000442,0.00044497,0.00062485,-0.00136629,0.00085002,-0.000
 27817,0.00013337,-0.00053250,-0.00027898,-0.00034409,-0.00384120,0.010
 50362,0.00151224,0.08654095,-0.00008895,0.00003869,0.00000917,-0.00005
 332,0.00002222,0.00003862,0.00010970,-0.00013281,0.00005786,0.00007369
 ,-0.00004903,0.00001289,-0.00002133,-0.00006706,0.00000724,-0.00003444
 ,0.00003498,-0.00002076,-0.00038534,-0.00013640,-0.00010279,-0.0000397
 0,-0.00015898,-0.00000695,-0.00001101,0.00014330,-0.00002696,-0.000103
 02,-0.00008244,-0.00000781,0.00112352,-0.00091504,0.00040573,-0.004139
 19,-0.00101865,-0.00118690,-0.00030327,0.00004234,-0.00033891,0.000087
 04,0.00021465,-0.00000884,-0.00002269,-0.00008583,-0.00000225,0.000044
 15,0.00007028,0.00000852,0.00000036,-0.00007654,-0.00008044,0.00020686
 ,0.00010558,0.00007782,0.00103683,0.00168355,-0.00062955,0.00549286,-0
 .01795555,0.00042564,0.07964428,-0.28082983,-0.01162757,0.00092177,-0.
 00254966,0.00108042,0.00014077,-0.00005349,0.00000175,-0.00008088,0.00
 009752,0.00004984,0.00014143,-0.00029652,-0.00015875,-0.00055365,0.000
 04066,-0.00000833,0.00225322,0.00018200,-0.00102113,0.00053197,0.00041
 468,-0.00166817,0.00032910,0.00010856,0.00020566,-0.00009837,0.0007076
 5,0.00017674,-0.00004292,0.00002894,-0.00007336,0.00137518,0.00119417,
 0.00011257,0.00006768,0.00000653,0.00004995,-0.00000275,0.00000461,0.0
 0000910,-0.00001004,0.00000945,-0.00000102,-0.00000740,-0.00000251,-0.
 00000163,-0.00000571,-0.00000229,-0.00000052,-0.00001126,-0.00000896,0
 .00000662,-0.00000453,-0.00000896,-0.00000008,0.00000827,-0.00000960,0
 .00001167,0.00002824,-0.00002851,0.00000964,-0.00006447,-0.00021099,0.
 00011986,0.00003174,0.00101722,0.00053642,-0.00053420,-0.00084110,0.00
 005625,0.00215903,-0.00470618,-0.00177225,-0.08918924,0.30405935,0.000
 00846,-0.00002604,-0.00000226,0.00003629,-0.00000043,0.00000168,-0.000
 04831,0.00001517,-0.00004285,-0.00001987,-0.00000027,-0.00000904,0.000
 01426,0.00004257,-0.00001181,0.00002666,-0.00001504,0.00001207,0.00012
 370,0.00012485,0.00006476,0.00003449,0.00005018,0.00003175,0.00000884,
 -0.00004842,0.00001356,0.00003532,0.00002900,0.00000483,-0.00037064,0.
 00032146,0.00004663,0.00121524,0.00106444,-0.00027024,-0.00001684,0.00
 007271,0.00033199,0.00002853,-0.00005773,0.00000606,0.00000348,0.00002
 858,-0.00000260,-0.00000639,-0.00005815,-0.00001115,-0.00003761,0.0000
 5722,0.00006474,-0.00005359,-0.00003498,-0.00005402,-0.00336722,-0.001
 29886,-0.00136922,-0.00209914,0.00490967,-0.00076200,0.00377526,-0.014
 76124,-0.04346641,-0.00862498,0.02400763,-0.00054759,-0.00007422,0.000
 02369,-0.00000989,0.00003220,-0.00004120,-0.00000533,-0.00008985,0.000
 04424,0.00003146,-0.00002131,0.00006396,-0.00004074,-0.00034648,-0.000
 60692,0.00019143,0.00172116,0.00097124,-0.00056929,-0.00018090,-0.0000
 4604,0.00000570,-0.00004841,-0.00028330,-0.00010800,0.00002802,0.00001
 380,-0.00000936,0.00171917,-0.00002803,-0.00221814,-0.00005689,-0.0000
 1082,-0.00001720,-0.00001489,0.00000277,0.00000475,-0.00000163,-0.0000
 1006,0.00000165,-0.00000148,-0.00000344,0.00000363,-0.00000182,-0.0000
 0156,0.00000207,0.00000476,-0.00000017,0.00000011,0.00000307,-0.000000
 08,0.00000037,0.00000048,0.00000052,-0.00000167,0.00002242,-0.00002067
 ,-0.00001555,0.00008929,0.00073101,-0.00102518,0.00092566,-0.00058911,
 0.00074622,0.00000669,-0.00001175,-0.00006459,0.01081705,-0.02989542,-
 0.00244489,-0.00519800,0.01527500,0.05151355\\0.00000197,0.00000028,0.
 00000234,0.00000084,0.,0.00000372,-0.00000222,0.00000167,0.00000436,-0
 .00000055,0.00000250,-0.00000008,-0.00000249,0.00000132,0.00000188,0.0
 0000085,-0.00000129,0.00000396,-0.00000302,-0.00000058,-0.00000180,-0.
 00000019,0.00000129,0.00000023,0.00000082,0.00000090,0.00000177,-0.000
 00129,-0.00000135,0.00000267,0.00000262,-0.00000222,-0.00000281,0.0000
 0196,-0.00000121,0.00000162,-0.00000397,0.00000209,-0.00000348,0.00000
 105,-0.00000381,0.00000068,-0.00000258,-0.00000262,0.00000193,0.000002
 90,0.00000407,0.00000074,-0.00000104,-0.00000240,0.00000002,-0.0000016
 0,-0.00000147,0.00000165,0.00000072,0.00000076,-0.00000165,0.00000037,
 0.00000079,-0.00000099,-0.00000347,-0.00000175,-0.00000523,0.00000353,
 -0.00000235,-0.00000168,-0.00000076,-0.00000065,0.00000108,0.00000015,
 0.00000159,0.00000036,0.00000193,-0.00000095,-0.00000155,-0.00000269,0
 .00000128,0.00000060,0.00000181,0.00000031,-0.00000100,0.00000033,-0.0
 0000056,-0.00000274,0.00000076,0.00000142,-0.00000123,0.00000056,0.000
 00146,-0.00000174,0.00000136,0.00000108,-0.00000283,0.00000055,0.00000
 027,-0.00000249,0.00000114,0.00000123,-0.00000128,0.00000053,0.0000008
 8,0.00000001,0.00000010,0.00000075,0.00000149,-0.00000018,0.00000058,0
 .00000262,-0.00000071,0.00000044,0.00000404,-0.00000090,0.00000049,0.0
 0000388,-0.00000058,0.00000038,0.00000260,-0.00000032,0.00000002,0.000
 00107,0.00000004,0.00000008,-0.00000097,0.00000041,-0.00000013,-0.0000
 0238,-0.00000010,-0.00000033,-0.00000305,0.00000022,-0.00000200,-0.000
 00140,-0.00000080,-0.00000136,-0.00000239,0.00000193,-0.00000089,-0.00
 000254\\\@


 LAWS OF PROGRAMMING DEFINITION:  A WORKING PROGRAM
                                  IS ONE THAT HAS
                                  ONLY UNOBSERVED
                                  BUGS.
 Job cpu time:       1 days  0 hours 48 minutes 20.0 seconds.
 Elapsed time:       0 days  1 hours 14 minutes 37.9 seconds.
 File lengths (MBytes):  RWF=   2287 Int=      0 D2E=      0 Chk=     57 Scr=      1
 Normal termination of Gaussian 16 at Wed Jun 12 19:15:20 2019.
