 Entering Gaussian System, Link 0=/share/apps/gaussian16/g16/g16
 Initial command:
 /share/apps/gaussian16/g16/l1.exe "/home/amen01//scratch/468/Gau-9483.inp" -scrdir="/home/amen01//scratch/468/"
 Entering Link 1 = /share/apps/gaussian16/g16/l1.exe PID=      9484.
  
 Copyright (c) 1988-2017, Gaussian, Inc.  All Rights Reserved.
  
 This is part of the Gaussian(R) 16 program.  It is based on
 the Gaussian(R) 09 system (copyright 2009, Gaussian, Inc.),
 the Gaussian(R) 03 system (copyright 2003, Gaussian, Inc.),
 the Gaussian(R) 98 system (copyright 1998, Gaussian, Inc.),
 the Gaussian(R) 94 system (copyright 1995, Gaussian, Inc.),
 the Gaussian 92(TM) system (copyright 1992, Gaussian, Inc.),
 the Gaussian 90(TM) system (copyright 1990, Gaussian, Inc.),
 the Gaussian 88(TM) system (copyright 1988, Gaussian, Inc.),
 the Gaussian 86(TM) system (copyright 1986, Carnegie Mellon
 University), and the Gaussian 82(TM) system (copyright 1983,
 Carnegie Mellon University). Gaussian is a federally registered
 trademark of Gaussian, Inc.
  
 This software contains proprietary and confidential information,
 including trade secrets, belonging to Gaussian, Inc.
  
 This software is provided under written license and may be
 used, copied, transmitted, or stored only in accord with that
 written license.
  
 The following legend is applicable only to US Government
 contracts under FAR:
  
                    RESTRICTED RIGHTS LEGEND
  
 Use, reproduction and disclosure by the US Government is
 subject to restrictions as set forth in subparagraphs (a)
 and (c) of the Commercial Computer Software - Restricted
 Rights clause in FAR 52.227-19.
  
 Gaussian, Inc.
 340 Quinnipiac St., Bldg. 40, Wallingford CT 06492
  
  
 ---------------------------------------------------------------
 Warning -- This program may not be used in any manner that
 competes with the business of Gaussian, Inc. or will provide
 assistance to any competitor of Gaussian, Inc.  The licensee
 of this program is prohibited from giving any competitor of
 Gaussian, Inc. access to this program.  By using this program,
 the user acknowledges that Gaussian, Inc. is engaged in the
 business of creating and licensing software in the field of
 computational chemistry and represents and warrants to the
 licensee that it is not a competitor of Gaussian, Inc. and that
 it will not use this program in any manner prohibited above.
 ---------------------------------------------------------------
  

 Cite this work as:
 Gaussian 16, Revision B.01,
 M. J. Frisch, G. W. Trucks, H. B. Schlegel, G. E. Scuseria, 
 M. A. Robb, J. R. Cheeseman, G. Scalmani, V. Barone, 
 G. A. Petersson, H. Nakatsuji, X. Li, M. Caricato, A. V. Marenich, 
 J. Bloino, B. G. Janesko, R. Gomperts, B. Mennucci, H. P. Hratchian, 
 J. V. Ortiz, A. F. Izmaylov, J. L. Sonnenberg, D. Williams-Young, 
 F. Ding, F. Lipparini, F. Egidi, J. Goings, B. Peng, A. Petrone, 
 T. Henderson, D. Ranasinghe, V. G. Zakrzewski, J. Gao, N. Rega, 
 G. Zheng, W. Liang, M. Hada, M. Ehara, K. Toyota, R. Fukuda, 
 J. Hasegawa, M. Ishida, T. Nakajima, Y. Honda, O. Kitao, H. Nakai, 
 T. Vreven, K. Throssell, J. A. Montgomery, Jr., J. E. Peralta, 
 F. Ogliaro, M. J. Bearpark, J. J. Heyd, E. N. Brothers, K. N. Kudin, 
 V. N. Staroverov, T. A. Keith, R. Kobayashi, J. Normand, 
 K. Raghavachari, A. P. Rendell, J. C. Burant, S. S. Iyengar, 
 J. Tomasi, M. Cossi, J. M. Millam, M. Klene, C. Adamo, R. Cammi, 
 J. W. Ochterski, R. L. Martin, K. Morokuma, O. Farkas, 
 J. B. Foresman, and D. J. Fox, Gaussian, Inc., Wallingford CT, 2016.
 
 ******************************************
 Gaussian 16:  ES64L-G16RevB.01 20-Dec-2017
                12-Jun-2019 
 ******************************************
 %nprocshared=20
 Will use up to   20 processors via shared memory.
 %mem=100GB
 %chk=7-memb-hadd-3b.chk
 -------------------------------------------
 # opt freq b3lyp/6-311+g(d,p) int=grid=fine
 -------------------------------------------
 1/18=20,19=15,26=3,38=1/1,3;
 2/9=110,12=2,17=6,18=5,40=1/2;
 3/5=4,6=6,7=111,11=2,25=1,30=1,71=1,74=-5,75=-4/1,2,3;
 4//1;
 5/5=2,38=5/2;
 6/7=2,8=2,9=2,10=2,28=1/1;
 7//1,2,3,16;
 1/18=20,19=15,26=3/3(2);
 2/9=110/2;
 99//99;
 2/9=110/2;
 3/5=4,6=6,7=111,11=2,25=1,30=1,71=1,74=-5,75=-4/1,2,3;
 4/5=5,16=3,69=1/1;
 5/5=2,38=5/2;
 7//1,2,3,16;
 1/18=20,19=15,26=3/3(-5);
 2/9=110/2;
 6/7=2,8=2,9=2,10=2,19=2,28=1/1;
 99/9=1/99;
 --------------
 7-memb-hadd-3b
 --------------
 Symbolic Z-matrix:
 Charge =  0 Multiplicity = 1
 C                    -6.9944    0.00847  -0.03745 
 C                    -5.77357   0.61139   0.16796 
 C                    -4.61905  -0.08542   0.28434 
 C                    -4.51205  -1.46458   0.24751 
 C                    -6.97821  -1.41882  -0.02882 
 C                    -5.75641  -2.14384   0.12085 
 C                    -3.57728   0.77718   0.32032 
 C                    -2.26312   0.3656    0.26804 
 C                    -2.06592  -1.04735   0.29883 
 C                    -3.17441  -1.9485    0.29838 
 C                    -4.05616   2.07649   0.27753 
 C                    -3.18627   3.13821   0.12911 
 C                    -1.80076   2.78531  -0.01767 
 C                    -1.35053   1.43073   0.10753 
 C                    -8.03462   0.93069  -0.2794 
 C                    -7.79345   2.34379  -0.29348 
 C                    -6.50043   2.90105  -0.01121 
 C                    -5.49677   1.97004   0.18385 
 C                    -0.89256   3.79425  -0.34147 
 C                    -3.63007   4.4896    0.0612 
 C                    -2.67651   5.43196  -0.3743 
 C                    -1.33297   5.09548  -0.56431 
 C                    -8.83152   3.21657  -0.59911 
 C                    -8.62334   4.59354  -0.5915 
 C                    -7.39045   5.14726  -0.21897 
 C                    -6.27336   4.32033   0.08435 
 C                    -5.04893   4.96474   0.59814 
 C                    -5.1408    6.37441   0.97186 
 C                    -7.30507   6.53915  -0.11188 
 C                    -6.19076   7.1502    0.44579 
 H                    -6.16791   8.23342   0.55144 
 H                    -5.32691   6.38663   2.09361 
 H                    -4.89349   4.39985   1.57195 
 H                    -8.13987   7.16939  -0.41309 
 H                    -9.46675   5.2399   -0.82945 
 H                    -9.8207    2.83889  -0.84786 
 H                    -9.03233   0.5499   -0.48816 
 H                    -7.90594  -1.96691  -0.17603 
 H                    -5.77556  -3.23051   0.08818 
 H                    -2.98867  -3.01973   0.2814 
 H                    -1.0557   -1.44926   0.27238 
 H                    -0.29204   1.20102   0.00377 
 H                     0.16219   3.56716  -0.47934 
 H                    -0.62486   5.86129  -0.87164 
 H                    -2.95849   6.46553  -0.55718 
 H                    -4.19243   6.94218   1.04988 
 

 GradGradGradGradGradGradGradGradGradGradGradGradGradGradGradGradGradGrad
 Berny optimization.
 Initialization pass.
                           ----------------------------
                           !    Initial Parameters    !
                           ! (Angstroms and Degrees)  !
 --------------------------                            --------------------------
 ! Name  Definition              Value          Derivative Info.                !
 --------------------------------------------------------------------------------
 ! R1    R(1,2)                  1.377          estimate D2E/DX2                !
 ! R2    R(1,5)                  1.4274         estimate D2E/DX2                !
 ! R3    R(1,15)                 1.4111         estimate D2E/DX2                !
 ! R4    R(2,3)                  1.3535         estimate D2E/DX2                !
 ! R5    R(2,18)                 1.3867         estimate D2E/DX2                !
 ! R6    R(3,4)                  1.3838         estimate D2E/DX2                !
 ! R7    R(3,7)                  1.353          estimate D2E/DX2                !
 ! R8    R(4,6)                  1.4233         estimate D2E/DX2                !
 ! R9    R(4,10)                 1.4234         estimate D2E/DX2                !
 ! R10   R(5,6)                  1.4286         estimate D2E/DX2                !
 ! R11   R(5,38)                 1.0875         estimate D2E/DX2                !
 ! R12   R(6,39)                 1.0873         estimate D2E/DX2                !
 ! R13   R(7,8)                  1.3781         estimate D2E/DX2                !
 ! R14   R(7,11)                 1.3854         estimate D2E/DX2                !
 ! R15   R(8,9)                  1.427          estimate D2E/DX2                !
 ! R16   R(8,14)                 1.4118         estimate D2E/DX2                !
 ! R17   R(9,10)                 1.4286         estimate D2E/DX2                !
 ! R18   R(9,41)                 1.0876         estimate D2E/DX2                !
 ! R19   R(10,40)                1.0873         estimate D2E/DX2                !
 ! R20   R(11,12)                1.3806         estimate D2E/DX2                !
 ! R21   R(11,18)                1.4476         estimate D2E/DX2                !
 ! R22   R(12,13)                1.4373         estimate D2E/DX2                !
 ! R23   R(12,20)                1.424          estimate D2E/DX2                !
 ! R24   R(13,14)                1.4329         estimate D2E/DX2                !
 ! R25   R(13,19)                1.3956         estimate D2E/DX2                !
 ! R26   R(14,42)                1.0881         estimate D2E/DX2                !
 ! R27   R(15,16)                1.4336         estimate D2E/DX2                !
 ! R28   R(15,37)                1.0881         estimate D2E/DX2                !
 ! R29   R(16,17)                1.436          estimate D2E/DX2                !
 ! R30   R(16,23)                1.3902         estimate D2E/DX2                !
 ! R31   R(17,18)                1.3828         estimate D2E/DX2                !
 ! R32   R(17,26)                1.4405         estimate D2E/DX2                !
 ! R33   R(19,22)                1.3917         estimate D2E/DX2                !
 ! R34   R(19,43)                1.0877         estimate D2E/DX2                !
 ! R35   R(20,21)                1.4096         estimate D2E/DX2                !
 ! R36   R(20,27)                1.5897         estimate D2E/DX2                !
 ! R37   R(21,22)                1.398          estimate D2E/DX2                !
 ! R38   R(21,45)                1.0868         estimate D2E/DX2                !
 ! R39   R(22,44)                1.0874         estimate D2E/DX2                !
 ! R40   R(23,24)                1.3926         estimate D2E/DX2                !
 ! R41   R(23,36)                1.0877         estimate D2E/DX2                !
 ! R42   R(24,25)                1.4019         estimate D2E/DX2                !
 ! R43   R(24,35)                1.0889         estimate D2E/DX2                !
 ! R44   R(25,26)                1.4226         estimate D2E/DX2                !
 ! R45   R(25,29)                1.3986         estimate D2E/DX2                !
 ! R46   R(26,27)                1.476          estimate D2E/DX2                !
 ! R47   R(27,28)                1.4613         estimate D2E/DX2                !
 ! R48   R(27,33)                1.1365         estimate D2E/DX2                !
 ! R49   R(28,30)                1.4075         estimate D2E/DX2                !
 ! R50   R(28,32)                1.1371         estimate D2E/DX2                !
 ! R51   R(28,46)                1.1081         estimate D2E/DX2                !
 ! R52   R(29,30)                1.3878         estimate D2E/DX2                !
 ! R53   R(29,34)                1.0885         estimate D2E/DX2                !
 ! R54   R(30,31)                1.0886         estimate D2E/DX2                !
 ! A1    A(2,1,5)              115.2682         estimate D2E/DX2                !
 ! A2    A(2,1,15)             113.1411         estimate D2E/DX2                !
 ! A3    A(5,1,15)             131.5222         estimate D2E/DX2                !
 ! A4    A(1,2,3)              122.9327         estimate D2E/DX2                !
 ! A5    A(1,2,18)             127.4231         estimate D2E/DX2                !
 ! A6    A(3,2,18)             109.4609         estimate D2E/DX2                !
 ! A7    A(2,3,4)              125.2228         estimate D2E/DX2                !
 ! A8    A(2,3,7)              109.3193         estimate D2E/DX2                !
 ! A9    A(4,3,7)              125.2099         estimate D2E/DX2                !
 ! A10   A(3,4,6)              114.2301         estimate D2E/DX2                !
 ! A11   A(3,4,10)             114.2395         estimate D2E/DX2                !
 ! A12   A(6,4,10)             131.4925         estimate D2E/DX2                !
 ! A13   A(1,5,6)              121.1849         estimate D2E/DX2                !
 ! A14   A(1,5,38)             119.5665         estimate D2E/DX2                !
 ! A15   A(6,5,38)             119.2082         estimate D2E/DX2                !
 ! A16   A(4,6,5)              120.9865         estimate D2E/DX2                !
 ! A17   A(4,6,39)             119.6707         estimate D2E/DX2                !
 ! A18   A(5,6,39)             119.2743         estimate D2E/DX2                !
 ! A19   A(3,7,8)              122.8761         estimate D2E/DX2                !
 ! A20   A(3,7,11)             109.3265         estimate D2E/DX2                !
 ! A21   A(8,7,11)             127.4846         estimate D2E/DX2                !
 ! A22   A(7,8,9)              115.2575         estimate D2E/DX2                !
 ! A23   A(7,8,14)             113.2917         estimate D2E/DX2                !
 ! A24   A(9,8,14)             131.313          estimate D2E/DX2                !
 ! A25   A(8,9,10)             121.1557         estimate D2E/DX2                !
 ! A26   A(8,9,41)             119.5883         estimate D2E/DX2                !
 ! A27   A(10,9,41)            119.1857         estimate D2E/DX2                !
 ! A28   A(4,10,9)             120.9806         estimate D2E/DX2                !
 ! A29   A(4,10,40)            119.6637         estimate D2E/DX2                !
 ! A30   A(9,10,40)            119.2692         estimate D2E/DX2                !
 ! A31   A(7,11,12)            120.449          estimate D2E/DX2                !
 ! A32   A(7,11,18)            106.083          estimate D2E/DX2                !
 ! A33   A(12,11,18)           132.583          estimate D2E/DX2                !
 ! A34   A(11,12,13)           115.4394         estimate D2E/DX2                !
 ! A35   A(11,12,20)           122.5867         estimate D2E/DX2                !
 ! A36   A(13,12,20)           121.9092         estimate D2E/DX2                !
 ! A37   A(12,13,14)           121.7409         estimate D2E/DX2                !
 ! A38   A(12,13,19)           118.2631         estimate D2E/DX2                !
 ! A39   A(14,13,19)           119.9489         estimate D2E/DX2                !
 ! A40   A(8,14,13)            121.3352         estimate D2E/DX2                !
 ! A41   A(8,14,42)            118.7114         estimate D2E/DX2                !
 ! A42   A(13,14,42)           119.7949         estimate D2E/DX2                !
 ! A43   A(1,15,16)            121.459          estimate D2E/DX2                !
 ! A44   A(1,15,37)            118.6931         estimate D2E/DX2                !
 ! A45   A(16,15,37)           119.8223         estimate D2E/DX2                !
 ! A46   A(15,16,17)           122.1446         estimate D2E/DX2                !
 ! A47   A(15,16,23)           119.6937         estimate D2E/DX2                !
 ! A48   A(17,16,23)           118.1596         estimate D2E/DX2                !
 ! A49   A(16,17,18)           114.8344         estimate D2E/DX2                !
 ! A50   A(16,17,26)           122.5015         estimate D2E/DX2                !
 ! A51   A(18,17,26)           122.6554         estimate D2E/DX2                !
 ! A52   A(2,18,11)            105.7506         estimate D2E/DX2                !
 ! A53   A(2,18,17)            120.8757         estimate D2E/DX2                !
 ! A54   A(11,18,17)           132.9954         estimate D2E/DX2                !
 ! A55   A(13,19,22)           120.4756         estimate D2E/DX2                !
 ! A56   A(13,19,43)           120.6326         estimate D2E/DX2                !
 ! A57   A(22,19,43)           118.802          estimate D2E/DX2                !
 ! A58   A(12,20,21)           115.9981         estimate D2E/DX2                !
 ! A59   A(12,20,27)           123.0717         estimate D2E/DX2                !
 ! A60   A(21,20,27)           120.551          estimate D2E/DX2                !
 ! A61   A(20,21,22)           122.0869         estimate D2E/DX2                !
 ! A62   A(20,21,45)           120.8129         estimate D2E/DX2                !
 ! A63   A(22,21,45)           117.088          estimate D2E/DX2                !
 ! A64   A(19,22,21)           120.491          estimate D2E/DX2                !
 ! A65   A(19,22,44)           119.8466         estimate D2E/DX2                !
 ! A66   A(21,22,44)           119.6536         estimate D2E/DX2                !
 ! A67   A(16,23,24)           120.5247         estimate D2E/DX2                !
 ! A68   A(16,23,36)           120.7548         estimate D2E/DX2                !
 ! A69   A(24,23,36)           118.7204         estimate D2E/DX2                !
 ! A70   A(23,24,25)           121.5633         estimate D2E/DX2                !
 ! A71   A(23,24,35)           118.0294         estimate D2E/DX2                !
 ! A72   A(25,24,35)           120.316          estimate D2E/DX2                !
 ! A73   A(24,25,26)           121.1743         estimate D2E/DX2                !
 ! A74   A(24,25,29)           117.8465         estimate D2E/DX2                !
 ! A75   A(26,25,29)           120.9464         estimate D2E/DX2                !
 ! A76   A(17,26,25)           115.7727         estimate D2E/DX2                !
 ! A77   A(17,26,27)           125.7346         estimate D2E/DX2                !
 ! A78   A(25,26,27)           118.1555         estimate D2E/DX2                !
 ! A79   A(20,27,26)           119.495          estimate D2E/DX2                !
 ! A80   A(20,27,28)           115.5199         estimate D2E/DX2                !
 ! A81   A(20,27,33)            91.076          estimate D2E/DX2                !
 ! A82   A(26,27,28)           117.2621         estimate D2E/DX2                !
 ! A83   A(26,27,33)           101.2289         estimate D2E/DX2                !
 ! A84   A(28,27,33)           105.6024         estimate D2E/DX2                !
 ! A85   A(27,28,30)           118.884          estimate D2E/DX2                !
 ! A86   A(27,28,32)           105.8396         estimate D2E/DX2                !
 ! A87   A(27,28,46)           117.2902         estimate D2E/DX2                !
 ! A88   A(30,28,32)           103.9273         estimate D2E/DX2                !
 ! A89   A(30,28,46)           112.4795         estimate D2E/DX2                !
 ! A90   A(32,28,46)            93.7332         estimate D2E/DX2                !
 ! A91   A(25,29,30)           121.1954         estimate D2E/DX2                !
 ! A92   A(25,29,34)           120.5448         estimate D2E/DX2                !
 ! A93   A(30,29,34)           118.1672         estimate D2E/DX2                !
 ! A94   A(28,30,29)           120.4289         estimate D2E/DX2                !
 ! A95   A(28,30,31)           119.7708         estimate D2E/DX2                !
 ! A96   A(29,30,31)           119.6017         estimate D2E/DX2                !
 ! D1    D(5,1,2,3)              4.1346         estimate D2E/DX2                !
 ! D2    D(5,1,2,18)           178.6841         estimate D2E/DX2                !
 ! D3    D(15,1,2,3)          -173.2082         estimate D2E/DX2                !
 ! D4    D(15,1,2,18)            1.3412         estimate D2E/DX2                !
 ! D5    D(2,1,5,6)             -2.8374         estimate D2E/DX2                !
 ! D6    D(2,1,5,38)           179.4916         estimate D2E/DX2                !
 ! D7    D(15,1,5,6)           173.8985         estimate D2E/DX2                !
 ! D8    D(15,1,5,38)           -3.7725         estimate D2E/DX2                !
 ! D9    D(2,1,15,16)           -0.2599         estimate D2E/DX2                !
 ! D10   D(2,1,15,37)          177.8985         estimate D2E/DX2                !
 ! D11   D(5,1,15,16)         -177.0499         estimate D2E/DX2                !
 ! D12   D(5,1,15,37)            1.1085         estimate D2E/DX2                !
 ! D13   D(1,2,3,4)             -1.6632         estimate D2E/DX2                !
 ! D14   D(1,2,3,7)            172.8512         estimate D2E/DX2                !
 ! D15   D(18,2,3,4)          -177.0743         estimate D2E/DX2                !
 ! D16   D(18,2,3,7)            -2.5599         estimate D2E/DX2                !
 ! D17   D(1,2,18,11)         -173.3541         estimate D2E/DX2                !
 ! D18   D(1,2,18,17)            0.4575         estimate D2E/DX2                !
 ! D19   D(3,2,18,11)            1.7955         estimate D2E/DX2                !
 ! D20   D(3,2,18,17)          175.6072         estimate D2E/DX2                !
 ! D21   D(2,3,4,6)             -2.2154         estimate D2E/DX2                !
 ! D22   D(2,3,4,10)           175.8064         estimate D2E/DX2                !
 ! D23   D(7,3,4,6)           -175.8763         estimate D2E/DX2                !
 ! D24   D(7,3,4,10)             2.1456         estimate D2E/DX2                !
 ! D25   D(2,3,7,8)           -171.7303         estimate D2E/DX2                !
 ! D26   D(2,3,7,11)             2.282          estimate D2E/DX2                !
 ! D27   D(4,3,7,8)              2.7849         estimate D2E/DX2                !
 ! D28   D(4,3,7,11)           176.7972         estimate D2E/DX2                !
 ! D29   D(3,4,6,5)              3.3341         estimate D2E/DX2                !
 ! D30   D(3,4,6,39)          -179.6977         estimate D2E/DX2                !
 ! D31   D(10,4,6,5)          -174.2577         estimate D2E/DX2                !
 ! D32   D(10,4,6,39)            2.7106         estimate D2E/DX2                !
 ! D33   D(3,4,10,9)            -3.8061         estimate D2E/DX2                !
 ! D34   D(3,4,10,40)          179.601          estimate D2E/DX2                !
 ! D35   D(6,4,10,9)           173.7854         estimate D2E/DX2                !
 ! D36   D(6,4,10,40)           -2.8075         estimate D2E/DX2                !
 ! D37   D(1,5,6,4)             -0.8918         estimate D2E/DX2                !
 ! D38   D(1,5,6,39)          -177.8719         estimate D2E/DX2                !
 ! D39   D(38,5,6,4)           176.7875         estimate D2E/DX2                !
 ! D40   D(38,5,6,39)           -0.1926         estimate D2E/DX2                !
 ! D41   D(3,7,8,9)             -5.6179         estimate D2E/DX2                !
 ! D42   D(3,7,8,14)           170.6041         estimate D2E/DX2                !
 ! D43   D(11,7,8,9)          -178.492          estimate D2E/DX2                !
 ! D44   D(11,7,8,14)           -2.27           estimate D2E/DX2                !
 ! D45   D(3,7,11,12)         -171.6438         estimate D2E/DX2                !
 ! D46   D(3,7,11,18)           -1.1153         estimate D2E/DX2                !
 ! D47   D(8,7,11,12)            2.0175         estimate D2E/DX2                !
 ! D48   D(8,7,11,18)          172.546          estimate D2E/DX2                !
 ! D49   D(7,8,9,10)             3.7574         estimate D2E/DX2                !
 ! D50   D(7,8,9,41)          -179.3169         estimate D2E/DX2                !
 ! D51   D(14,8,9,10)         -171.621          estimate D2E/DX2                !
 ! D52   D(14,8,9,41)            5.3047         estimate D2E/DX2                !
 ! D53   D(7,8,14,13)           -1.4668         estimate D2E/DX2                !
 ! D54   D(7,8,14,42)         -176.8793         estimate D2E/DX2                !
 ! D55   D(9,8,14,13)          173.9827         estimate D2E/DX2                !
 ! D56   D(9,8,14,42)           -1.4298         estimate D2E/DX2                !
 ! D57   D(8,9,10,4)             0.9225         estimate D2E/DX2                !
 ! D58   D(8,9,10,40)          177.5287         estimate D2E/DX2                !
 ! D59   D(41,9,10,4)         -176.0154         estimate D2E/DX2                !
 ! D60   D(41,9,10,40)           0.5908         estimate D2E/DX2                !
 ! D61   D(7,11,12,13)           1.9951         estimate D2E/DX2                !
 ! D62   D(7,11,12,20)         179.1209         estimate D2E/DX2                !
 ! D63   D(18,11,12,13)       -165.6042         estimate D2E/DX2                !
 ! D64   D(18,11,12,20)         11.5216         estimate D2E/DX2                !
 ! D65   D(7,11,18,2)           -0.41           estimate D2E/DX2                !
 ! D66   D(7,11,18,17)        -173.1428         estimate D2E/DX2                !
 ! D67   D(12,11,18,2)         168.4814         estimate D2E/DX2                !
 ! D68   D(12,11,18,17)         -4.2515         estimate D2E/DX2                !
 ! D69   D(11,12,13,14)         -5.5387         estimate D2E/DX2                !
 ! D70   D(11,12,13,19)        171.9624         estimate D2E/DX2                !
 ! D71   D(20,12,13,14)        177.314          estimate D2E/DX2                !
 ! D72   D(20,12,13,19)         -5.1848         estimate D2E/DX2                !
 ! D73   D(11,12,20,21)       -166.8652         estimate D2E/DX2                !
 ! D74   D(11,12,20,27)         20.1811         estimate D2E/DX2                !
 ! D75   D(13,12,20,21)         10.0771         estimate D2E/DX2                !
 ! D76   D(13,12,20,27)       -162.8766         estimate D2E/DX2                !
 ! D77   D(12,13,14,8)           5.4661         estimate D2E/DX2                !
 ! D78   D(12,13,14,42)       -179.1704         estimate D2E/DX2                !
 ! D79   D(19,13,14,8)        -171.9938         estimate D2E/DX2                !
 ! D80   D(19,13,14,42)          3.3697         estimate D2E/DX2                !
 ! D81   D(12,13,19,22)         -2.3847         estimate D2E/DX2                !
 ! D82   D(12,13,19,43)       -178.8981         estimate D2E/DX2                !
 ! D83   D(14,13,19,22)        175.1628         estimate D2E/DX2                !
 ! D84   D(14,13,19,43)         -1.3506         estimate D2E/DX2                !
 ! D85   D(1,15,16,17)          -2.5428         estimate D2E/DX2                !
 ! D86   D(1,15,16,23)         176.9168         estimate D2E/DX2                !
 ! D87   D(37,15,16,17)        179.3192         estimate D2E/DX2                !
 ! D88   D(37,15,16,23)         -1.2212         estimate D2E/DX2                !
 ! D89   D(15,16,17,18)          4.1512         estimate D2E/DX2                !
 ! D90   D(15,16,17,26)       -174.8018         estimate D2E/DX2                !
 ! D91   D(23,16,17,18)       -175.3164         estimate D2E/DX2                !
 ! D92   D(23,16,17,26)          5.7306         estimate D2E/DX2                !
 ! D93   D(15,16,23,24)        178.7024         estimate D2E/DX2                !
 ! D94   D(15,16,23,36)         -1.2588         estimate D2E/DX2                !
 ! D95   D(17,16,23,24)         -1.8165         estimate D2E/DX2                !
 ! D96   D(17,16,23,36)        178.2223         estimate D2E/DX2                !
 ! D97   D(16,17,18,2)          -3.1285         estimate D2E/DX2                !
 ! D98   D(16,17,18,11)        168.7167         estimate D2E/DX2                !
 ! D99   D(26,17,18,2)         175.8227         estimate D2E/DX2                !
 ! D100  D(26,17,18,11)        -12.3322         estimate D2E/DX2                !
 ! D101  D(16,17,26,25)         -4.6039         estimate D2E/DX2                !
 ! D102  D(16,17,26,27)        168.5696         estimate D2E/DX2                !
 ! D103  D(18,17,26,25)        176.5247         estimate D2E/DX2                !
 ! D104  D(18,17,26,27)        -10.3017         estimate D2E/DX2                !
 ! D105  D(13,19,22,21)          4.5808         estimate D2E/DX2                !
 ! D106  D(13,19,22,44)       -176.4987         estimate D2E/DX2                !
 ! D107  D(43,19,22,21)       -178.8427         estimate D2E/DX2                !
 ! D108  D(43,19,22,44)          0.0779         estimate D2E/DX2                !
 ! D109  D(12,20,21,22)         -7.8967         estimate D2E/DX2                !
 ! D110  D(12,20,21,45)        173.4068         estimate D2E/DX2                !
 ! D111  D(27,20,21,22)        165.2477         estimate D2E/DX2                !
 ! D112  D(27,20,21,45)        -13.4488         estimate D2E/DX2                !
 ! D113  D(12,20,27,26)        -56.0005         estimate D2E/DX2                !
 ! D114  D(12,20,27,28)        155.4371         estimate D2E/DX2                !
 ! D115  D(12,20,27,33)         47.5551         estimate D2E/DX2                !
 ! D116  D(21,20,27,26)        131.3554         estimate D2E/DX2                !
 ! D117  D(21,20,27,28)        -17.207          estimate D2E/DX2                !
 ! D118  D(21,20,27,33)       -125.089          estimate D2E/DX2                !
 ! D119  D(20,21,22,19)          0.8175         estimate D2E/DX2                !
 ! D120  D(20,21,22,44)       -178.1051         estimate D2E/DX2                !
 ! D121  D(45,21,22,19)        179.5601         estimate D2E/DX2                !
 ! D122  D(45,21,22,44)          0.6375         estimate D2E/DX2                !
 ! D123  D(16,23,24,25)         -2.9922         estimate D2E/DX2                !
 ! D124  D(16,23,24,35)       -179.528          estimate D2E/DX2                !
 ! D125  D(36,23,24,25)        176.9698         estimate D2E/DX2                !
 ! D126  D(36,23,24,35)          0.434          estimate D2E/DX2                !
 ! D127  D(23,24,25,26)          4.0988         estimate D2E/DX2                !
 ! D128  D(23,24,25,29)       -173.8357         estimate D2E/DX2                !
 ! D129  D(35,24,25,26)       -179.4436         estimate D2E/DX2                !
 ! D130  D(35,24,25,29)          2.6219         estimate D2E/DX2                !
 ! D131  D(24,25,26,17)         -0.2959         estimate D2E/DX2                !
 ! D132  D(24,25,26,27)       -174.0133         estimate D2E/DX2                !
 ! D133  D(29,25,26,17)        177.5746         estimate D2E/DX2                !
 ! D134  D(29,25,26,27)          3.8572         estimate D2E/DX2                !
 ! D135  D(24,25,29,30)        169.9925         estimate D2E/DX2                !
 ! D136  D(24,25,29,34)         -6.4458         estimate D2E/DX2                !
 ! D137  D(26,25,29,30)         -7.9469         estimate D2E/DX2                !
 ! D138  D(26,25,29,34)        175.6148         estimate D2E/DX2                !
 ! D139  D(17,26,27,20)         48.9768         estimate D2E/DX2                !
 ! D140  D(17,26,27,28)       -162.9949         estimate D2E/DX2                !
 ! D141  D(17,26,27,33)        -48.7412         estimate D2E/DX2                !
 ! D142  D(25,26,27,20)       -137.9964         estimate D2E/DX2                !
 ! D143  D(25,26,27,28)         10.032          estimate D2E/DX2                !
 ! D144  D(25,26,27,33)        124.2856         estimate D2E/DX2                !
 ! D145  D(20,27,28,30)        128.8999         estimate D2E/DX2                !
 ! D146  D(20,27,28,32)       -114.8524         estimate D2E/DX2                !
 ! D147  D(20,27,28,46)        -11.9944         estimate D2E/DX2                !
 ! D148  D(26,27,28,30)        -20.3896         estimate D2E/DX2                !
 ! D149  D(26,27,28,32)         95.8582         estimate D2E/DX2                !
 ! D150  D(26,27,28,46)       -161.2839         estimate D2E/DX2                !
 ! D151  D(33,27,28,30)       -132.188          estimate D2E/DX2                !
 ! D152  D(33,27,28,32)        -15.9402         estimate D2E/DX2                !
 ! D153  D(33,27,28,46)         86.9177         estimate D2E/DX2                !
 ! D154  D(27,28,30,29)         17.0836         estimate D2E/DX2                !
 ! D155  D(27,28,30,31)       -168.0575         estimate D2E/DX2                !
 ! D156  D(32,28,30,29)       -100.1725         estimate D2E/DX2                !
 ! D157  D(32,28,30,31)         74.6865         estimate D2E/DX2                !
 ! D158  D(46,28,30,29)        159.7364         estimate D2E/DX2                !
 ! D159  D(46,28,30,31)        -25.4046         estimate D2E/DX2                !
 ! D160  D(25,29,30,28)         -2.783          estimate D2E/DX2                !
 ! D161  D(25,29,30,31)       -177.6506         estimate D2E/DX2                !
 ! D162  D(34,29,30,28)        173.7376         estimate D2E/DX2                !
 ! D163  D(34,29,30,31)         -1.1301         estimate D2E/DX2                !
 --------------------------------------------------------------------------------
 Trust Radius=3.00D-01 FncErr=1.00D-07 GrdErr=1.00D-06 EigMax=2.50D+02 EigMin=1.00D-04
 Number of steps in this run=    276 maximum allowed number of steps=    276.
 GradGradGradGradGradGradGradGradGradGradGradGradGradGradGradGradGradGrad

                          Input orientation:                          
 ---------------------------------------------------------------------
 Center     Atomic      Atomic             Coordinates (Angstroms)
 Number     Number       Type             X           Y           Z
 ---------------------------------------------------------------------
      1          6           0       -6.994400    0.008470   -0.037450
      2          6           0       -5.773570    0.611390    0.167960
      3          6           0       -4.619050   -0.085420    0.284340
      4          6           0       -4.512050   -1.464580    0.247510
      5          6           0       -6.978210   -1.418820   -0.028820
      6          6           0       -5.756410   -2.143840    0.120850
      7          6           0       -3.577280    0.777180    0.320320
      8          6           0       -2.263120    0.365600    0.268040
      9          6           0       -2.065920   -1.047350    0.298830
     10          6           0       -3.174410   -1.948500    0.298380
     11          6           0       -4.056160    2.076490    0.277530
     12          6           0       -3.186270    3.138210    0.129110
     13          6           0       -1.800760    2.785310   -0.017670
     14          6           0       -1.350530    1.430730    0.107530
     15          6           0       -8.034620    0.930690   -0.279400
     16          6           0       -7.793450    2.343790   -0.293480
     17          6           0       -6.500430    2.901050   -0.011210
     18          6           0       -5.496770    1.970040    0.183850
     19          6           0       -0.892560    3.794250   -0.341470
     20          6           0       -3.630070    4.489600    0.061200
     21          6           0       -2.676510    5.431960   -0.374300
     22          6           0       -1.332970    5.095480   -0.564310
     23          6           0       -8.831520    3.216570   -0.599110
     24          6           0       -8.623340    4.593540   -0.591500
     25          6           0       -7.390450    5.147260   -0.218970
     26          6           0       -6.273360    4.320330    0.084350
     27          6           0       -5.048930    4.964740    0.598140
     28          6           0       -5.140800    6.374410    0.971860
     29          6           0       -7.305070    6.539150   -0.111880
     30          6           0       -6.190760    7.150200    0.445790
     31          1           0       -6.167910    8.233420    0.551440
     32          1           0       -5.326910    6.386630    2.093610
     33          1           0       -4.893490    4.399850    1.571950
     34          1           0       -8.139870    7.169390   -0.413090
     35          1           0       -9.466750    5.239900   -0.829450
     36          1           0       -9.820700    2.838890   -0.847860
     37          1           0       -9.032330    0.549900   -0.488160
     38          1           0       -7.905940   -1.966910   -0.176030
     39          1           0       -5.775560   -3.230510    0.088180
     40          1           0       -2.988670   -3.019730    0.281400
     41          1           0       -1.055700   -1.449260    0.272380
     42          1           0       -0.292040    1.201020    0.003770
     43          1           0        0.162190    3.567160   -0.479340
     44          1           0       -0.624860    5.861290   -0.871640
     45          1           0       -2.958490    6.465530   -0.557180
     46          1           0       -4.192430    6.942180    1.049880
 ---------------------------------------------------------------------
                    Distance matrix (angstroms):
                    1          2          3          4          5
     1  C    0.000000
     2  C    1.377001   0.000000
     3  C    2.398886   1.353516   0.000000
     4  C    2.900541   2.430517   1.383795   0.000000
     5  C    1.427408   2.368888   2.727941   2.482015   0.000000
     6  C    2.487994   2.755686   2.357416   1.423330   1.428583
     7  C    3.520742   2.207802   1.353018   2.429935   4.063329
     8  C    4.754564   3.520467   2.398769   2.899598   5.050184
     9  C    5.051510   4.063891   2.728368   2.481988   4.937199
    10  C    4.305210   3.650435   2.357594   1.423393   3.854415
    11  C    3.606823   2.260093   2.233998   3.570422   4.566116
    12  C    4.932025   3.616690   3.531111   4.791387   5.930453
    13  C    5.889408   4.532505   4.034236   5.048067   6.669394
    14  C    5.822123   4.498695   3.607381   4.289245   6.309462
    15  C    1.411059   2.326893   3.607825   4.292255   2.588241
    16  C    2.481482   2.700750   4.038781   5.056079   3.859002
    17  C    2.934572   2.408936   3.542025   4.804094   4.346247
    18  C    2.477827   1.386651   2.237277   3.573561   3.704628
    19  C    7.187281   5.849306   5.415737   6.411154   8.019288
    20  C    5.604371   4.432438   4.686009   6.022031   6.791728
    21  C    6.940597   5.755321   5.886319   7.163667   8.096738
    22  C    7.629354   6.353126   6.193565   7.334848   8.636642
    23  C    3.739302   4.089794   5.424806   6.425555   5.024622
    24  C    4.897273   4.955349   6.220458   7.369360   6.258717
    25  C    5.157225   4.830956   5.942636   7.226287   6.581755
    26  C    4.373428   3.743396   4.710347   6.049299   5.783378
    27  C    5.362223   4.434164   5.078128   6.461218   6.698137
    28  C    6.706693   5.853123   6.517232   7.897454   8.069193
    29  C    6.538489   6.128796   7.159373   8.484681   7.965113
    30  C    7.203032   6.557993   7.406115   8.779056   8.618204
    31  H    8.287320   7.641852   8.466015   9.843041   9.703557
    32  H    6.928410   6.104181   6.757363   8.106391   8.255698
    33  H    5.127203   4.134992   4.674495   6.024216   6.384782
    34  H    7.261679   6.996024   8.094124   9.388445   8.674933
    35  H    5.840175   6.004791   7.286958   8.405888   7.153488
    36  H    4.081178   4.730001   6.073766   6.921088   5.184464
    37  H    2.156257   3.324724   4.525199   5.003226   2.882058
    38  H    2.179962   3.363475   3.815179   3.456908   1.087546
    39  H    3.462997   3.842729   3.356722   2.177235   2.177677
    40  H    5.031653   4.577507   3.356832   2.177229   4.309940
    41  H    6.122837   5.149318   3.815451   3.456473   5.930242
    42  H    6.807753   5.515595   4.522904   4.997331   7.181190
    43  H    8.004769   6.662494   6.065048   6.906174   8.720566
    44  H    8.690363   7.426401   7.256253   8.368459   9.699248
    45  H    7.632320   6.536165   6.810328   8.120820   8.865680
    46  H    7.557093   6.584580   7.082035   8.451010   8.878653
                    6          7          8          9         10
     6  C    0.000000
     7  C    3.649761   0.000000
     8  C    4.303723   1.378096   0.000000
     9  C    3.854048   2.369300   1.426977   0.000000
    10  C    2.595457   2.755380   2.487253   1.428573   0.000000
    11  C    4.552646   1.385411   2.478352   3.704036   4.120493
    12  C    5.874159   2.400815   2.925555   4.336231   5.089539
    13  C    6.321620   2.702378   2.480001   3.854837   4.939206
    14  C    5.673580   2.330413   1.411767   2.586360   3.844757
    15  C    3.847490   4.500123   5.824880   6.314457   5.678486
    16  C    4.945708   4.539505   5.900262   6.682459   6.333213
    17  C    5.101169   3.628435   4.945835   5.945659   5.888666
    18  C    4.122547   2.264063   3.610790   4.570404   4.556471
    19  C    7.689713   4.092481   3.742403   5.022733   6.212522
    20  C    6.966162   3.721826   4.349564   5.758546   6.458561
    21  C    8.192906   4.791749   5.123621   6.542735   7.427758
    22  C    8.511405   4.946434   4.891804   6.246326   7.331629
    23  C    6.221627   5.865408   7.212757   8.047400   7.712738
    24  C    7.356563   6.392084   7.685485   8.695521   8.560433
    25  C    7.479686   5.824835   7.027871   8.184860   8.269973
    26  C    6.484910   4.458525   5.635216   6.823529   6.996251
    27  C    7.159626   4.447313   5.387188   6.718122   7.169140
    28  C    8.582760   5.847913   6.699418   8.061661   8.578525
    29  C    8.823085   6.876301   7.979870   9.228887   9.448326
    30  C    9.309856   6.889224   7.841476   9.178002   9.586785
    31  H   10.394338   7.896853   8.788077  10.150016  10.615864
    32  H    8.766138   6.137727   6.998022   8.313805   8.793776
    33  H    6.757973   4.052496   4.989409   6.268012   6.699161
    34  H    9.628200   7.887678   9.016190  10.242779  10.406628
    35  H    8.318011   7.478215   8.766731   9.776237   9.619701
    36  H    6.502650   6.677993   8.029907   8.749536   8.270800
    37  H    4.284715   5.519318   6.813810   7.190371   6.416843
    38  H    2.177136   5.149145   6.122027   5.931013   4.755290
    39  H    1.087330   4.576888   5.030069   4.309523   2.907527
    40  H    2.907464   3.842460   3.462233   2.177626   1.087346
    41  H    4.754164   3.364179   2.179816   1.087555   2.176890
    42  H    6.407896   3.327559   2.157063   2.879041   4.279524
    43  H    8.246549   4.733612   4.085424   5.183023   6.493093
    44  H    9.560332   5.998810   5.846826   7.153738   8.298311
    45  H    9.077959   5.788802   6.194649   7.613987   8.460172
    46  H    9.266331   6.238421   6.898182   8.301729   8.980273
                   11         12         13         14         15
    11  C    0.000000
    12  C    1.380575   0.000000
    13  C    2.382519   1.437262   0.000000
    14  C    2.786815   2.507169   1.432923   0.000000
    15  C    4.177460   5.342895   6.509157   6.713927   0.000000
    16  C    3.790097   4.694230   6.015259   6.519640   1.433601
    17  C    2.595713   3.325596   4.701099   5.356996   2.511570
    18  C    1.447572   2.589600   3.790220   4.181864   2.781282
    19  C    3.652701   2.431654   1.395576   2.448993   7.694989
    20  C    2.459970   1.424017   2.501440   3.815119   5.672910
    21  C    3.686122   2.403033   2.810494   4.242667   6.998556
    22  C    4.151958   2.783246   2.419613   3.725865   7.895490
    23  C    4.987218   5.692565   7.067931   7.723586   2.441825
    24  C    5.286765   5.674416   7.081425   7.961518   3.722965
    25  C    4.560003   4.672534   6.071570   7.099284   4.265920
    26  C    3.160397   3.305985   4.729783   5.708291   3.837188
    27  C    3.070891   2.650604   3.959766   5.138880   5.094898
    28  C    4.486720   3.873423   5.001667   6.289132   6.290782
    29  C    5.533750   5.346867   6.663154   7.848608   5.658191
    30  C    5.507028   5.022281   6.207992   7.500306   6.527482
    31  H    6.514776   5.918590   7.005554   8.347502   7.583190
    32  H    4.846675   4.358191   5.464498   6.657106   6.536830
    33  H    2.788305   2.566734   3.833877   4.848996   5.032819
    34  H    6.564394   6.409567   7.717566   8.904965   6.241020
    35  H    6.364515   6.691813   8.090204   9.014474   4.574149
    36  H    5.922641   6.712654   8.062972   8.639413   2.674781
    37  H    5.261086   6.423145   7.583800   7.755047   1.088121
    38  H    5.601393   6.959213   7.738339   7.389030   2.902297
    39  H    5.581795   6.875078   7.211125   6.427163   4.749111
    40  H    5.206823   6.162991   5.932880   4.745559   6.432879
    41  H    4.629654   5.060112   4.309388   2.899731   7.394183
    42  H    3.874273   3.484965   2.187846   1.088087   7.752471
    43  H    4.537557   3.430218   2.162776   2.682736   8.612702
    44  H    5.236327   3.870076   3.402008   4.595131   8.919984
    45  H    4.600575   3.404987   3.895565   5.326968   7.515232
    46  H    4.928492   4.041084   4.913178   6.272201   7.257232
                   16         17         18         19         20
    16  C    0.000000
    17  C    1.436007   0.000000
    18  C    2.375347   1.382809   0.000000
    19  C    7.051838   5.688153   4.980206   0.000000
    20  C    4.697237   3.281418   3.138120   2.853001   0.000000
    21  C    5.977157   4.599968   4.500032   2.421910   1.409603
    22  C    7.027300   5.641284   5.259786   1.391696   2.456628
    23  C    1.390232   2.424698   3.645191   7.964118   5.395526
    24  C    2.416383   2.776330   4.154439   7.776010   5.036821
    25  C    2.833268   2.425028   3.720620   6.638390   3.827724
    26  C    2.521932   1.440503   2.477268   5.423199   2.648805
    27  C    3.898302   2.595569   3.056211   4.419086   1.589725
    28  C    4.988340   3.857363   4.488446   5.140973   2.581495
    29  C    4.227593   3.727379   4.922821   6.979074   4.211441
    30  C    5.120226   4.284859   5.233000   6.320847   3.712659
    31  H    6.167983   5.372273   6.309951   6.952182   4.549413
    32  H    5.303449   4.237533   4.814800   5.684497   3.257097
    33  H    4.014596   2.708330   2.862647   4.476089   1.971459
    34  H    4.839497   4.589989   5.863067   7.995011   5.267307
    35  H    3.387425   3.865073   5.242090   8.708890   5.951726
    36  H    2.159214   3.424623   4.529426   8.993377   6.471100
    37  H    2.188782   3.487966   3.868925   8.763742   6.708759
    38  H    4.313767   5.069483   4.629599   9.077766   7.747636
    39  H    5.940569   6.175058   5.208896   8.565952   8.012737
    40  H    7.223832   6.890117   5.585507   7.156254   7.539889
    41  H    7.752722   6.975006   5.605582   5.281839   6.476267
    42  H    7.593776   6.436958   5.264317   2.684149   4.686203
    43  H    8.051297   6.712179   5.917300   1.087693   3.940091
    44  H    8.005983   6.635185   6.323875   2.150674   3.432639
    45  H    6.358861   5.054596   5.215498   3.383834   2.176629
    46  H    5.993092   4.773207   5.212819   4.768067   2.703495
                   21         22         23         24         25
    21  C    0.000000
    22  C    1.398007   0.000000
    23  C    6.545429   7.730444   0.000000
    24  C    6.009568   7.307679   1.392639   0.000000
    25  C    4.725083   6.067537   2.439007   1.401928   0.000000
    26  C    3.792547   5.042725   2.868726   2.460452   1.422570
    27  C    2.606206   3.895734   4.335608   3.785425   2.486704
    28  C    2.961939   4.300587   5.105028   4.212324   2.825756
    29  C    4.766372   6.160751   3.688764   2.398597   1.398612
    30  C    3.996855   5.370317   4.851688   3.678305   2.427536
    31  H    4.571110   5.870963   5.795461   4.536979   3.407715
    32  H    3.745210   4.968215   5.438962   4.614265   3.338003
    33  H    3.125402   4.210084   4.649918   4.316227   3.162408
    34  H    5.733103   7.117433   4.017184   2.626895   2.165253
    35  H    6.808187   8.139382   2.133176   1.088918   2.166169
    36  H    7.614967   8.787159   1.087656   2.139670   3.410306
    37  H    8.015231   8.941378   2.676521   4.065584   4.889167
    38  H    9.062534   9.655674   5.282439   6.612623   7.132951
    39  H    9.211753   9.459623   7.167712   8.353896   8.537520
    40  H    8.482833   8.325455   8.591020   9.511748   9.291166
    41  H    7.099043   6.603828   9.110041   9.722700   9.158851
    42  H    4.871292   4.071003   8.794807   9.015215   8.124644
    43  H    3.398048   2.139740   9.001338   8.845992   7.720549
    44  H    2.154284   1.087353   8.626592   8.103169   6.834400
    45  H    1.086842   2.125889   6.711928   5.966243   4.636215
    46  H    2.570421   3.767283   6.174180   5.276666   3.880599
                   26         27         28         29         30
    26  C    0.000000
    27  C    1.475965   0.000000
    28  C    2.507910   1.461258   0.000000
    29  C    2.454810   2.841314   2.426045   0.000000
    30  C    2.854054   2.470470   1.407486   1.387827   0.000000
    31  H    3.942279   3.455223   2.165093   2.145618   1.088600
    32  H    3.033560   2.082180   1.137150   2.966575   2.011116
    33  H    2.030596   1.136472   2.078499   3.636978   3.242772
    34  H    3.442158   3.928992   3.397720   1.088495   2.130041
    35  H    3.446502   4.650899   4.821377   2.622178   4.000949
    36  H    3.955667   5.420327   6.141070   4.534532   5.782507
    37  H    4.706998   6.044695   7.155458   6.244688   7.246430
    38  H    6.500962   7.537215   8.862351   8.527498   9.297860
    39  H    7.567232   8.243189   9.666349   9.890687  10.395163
    40  H    8.043911   8.252076   9.662208  10.495626  10.663390
    41  H    7.781227   7.562500   8.853650  10.149728  10.017466
    42  H    6.746316   6.094823   7.156231   8.814284   8.389459
    43  H    6.503946   5.501815   6.173195   8.045354   7.352144
    44  H    5.932455   4.747257   4.904641   6.757362   5.863118
    45  H    4.000226   2.820829   2.666223   4.369951   3.452867
    46  H    3.483765   2.201802   1.108086   3.346737   2.097980
                   31         32         33         34         35
    31  H    0.000000
    32  H    2.548765   0.000000
    33  H    4.166755   2.099352   0.000000
    34  H    2.439489   3.848247   4.706349   0.000000
    35  H    4.663729   5.195916   5.233270   2.378423   0.000000
    36  H    6.663473   6.436836   5.706967   4.665559   2.427029
    37  H    8.265721   7.379911   6.016325   6.679803   4.722425
    38  H   10.372883   9.032402   7.257129   9.142368   7.402783
    39  H   11.479993   9.834247   7.823172  10.677039   9.285191
    40  H   11.696746   9.860582   7.768142  11.438328  10.555614
    41  H   10.952938   9.108309   7.115448  11.177498  10.802993
    42  H    9.180438   7.523822   5.819368   9.868315  10.058932
    43  H    7.931372   6.685784   5.519154   9.050119   9.779423
    44  H    6.194963   5.583723   5.131096   7.641778   8.863799
    45  H    3.828165   3.555605   3.541815   5.230954   6.628254
    46  H    2.412108   1.638613   2.688398   4.215945   5.852187
                   36         37         38         39         40
    36  H    0.000000
    37  H    2.447527   0.000000
    38  H    5.216644   2.774980   0.000000
    39  H    7.353703   5.022969   2.490986   0.000000
    40  H    9.070573   7.061183   5.049477   2.801521   0.000000
    41  H    9.821832   8.258431   6.884390   5.048154   2.490548
    42  H    9.705836   8.778304   8.248611   7.050856   5.016336
    43  H   10.016201   9.676938   9.788394   9.043632   7.341237
    44  H    9.679821   9.952059  10.713483  10.493417   9.262268
    45  H    7.767042   8.478855   9.784098  10.117587   9.522305
    46  H    7.219129   8.164033   9.729589  10.339961  10.063759
                   41         42         43         44         45
    41  H    0.000000
    42  H    2.771157   0.000000
    43  H    5.216590   2.457303   0.000000
    44  H    7.412054   4.753444   2.456904   0.000000
    45  H    8.182462   5.927874   4.259724   2.431012   0.000000
    46  H    8.992210   7.019139   5.717691   4.193819   2.081453
                   46
    46  H    0.000000
 Stoichiometry    C30H16
 Framework group  C1[X(C30H16)]
 Deg. of freedom   132
 Full point group                 C1      NOp   1
 Largest Abelian subgroup         C1      NOp   1
 Largest concise Abelian subgroup C1      NOp   1
                         Standard orientation:                         
 ---------------------------------------------------------------------
 Center     Atomic      Atomic             Coordinates (Angstroms)
 Number     Number       Type             X           Y           Z
 ---------------------------------------------------------------------
      1          6           0        1.717064   -2.728758   -0.036284
      2          6           0        1.511444   -1.377814    0.133428
      3          6           0        2.524190   -0.482839    0.206716
      4          6           0        3.871161   -0.795895    0.156191
      5          6           0        3.083488   -3.141522   -0.038752
      6          6           0        4.143875   -2.189900    0.065392
      7          6           0        2.014327    0.770409    0.214888
      8          6           0        2.800014    1.898309    0.116487
      9          6           0        4.207401    1.663077    0.130334
     10          6           0        4.734633    0.335676    0.159575
     11          6           0        0.630686    0.702615    0.197446
     12          6           0       -0.123755    1.846399    0.028434
     13          6           0        0.625754    3.057195   -0.166321
     14          6           0        2.054919    3.083477   -0.065984
     15          6           0        0.521456   -3.450741   -0.237152
     16          6           0       -0.754369   -2.797019   -0.248677
     17          6           0       -0.893495   -1.388718   -0.004855
     18          6           0        0.298745   -0.705595    0.150284
     19          6           0       -0.069820    4.216564   -0.512261
     20          6           0       -1.546980    1.826955   -0.014880
     21          6           0       -2.167337    3.006338   -0.474438
     22          6           0       -1.446803    4.180791   -0.710899
     23          6           0       -1.903251   -3.533643   -0.513626
     24          6           0       -3.154136   -2.921590   -0.502659
     25          6           0       -3.306387   -1.569059   -0.166681
     26          6           0       -2.177588   -0.743397    0.093706
     27          6           0       -2.416492    0.632398    0.571812
     28          6           0       -3.782335    0.978830    0.958766
     29          6           0       -4.606638   -1.066718   -0.052152
     30          6           0       -4.845994    0.195346    0.473175
     31          1           0       -5.870589    0.545369    0.586032
     32          1           0       -3.830827    0.837662    2.086077
     33          1           0       -1.814610    0.639336    1.535793
     34          1           0       -5.463157   -1.682215   -0.321145
     35          1           0       -4.027544   -3.538619   -0.708026
     36          1           0       -1.843760   -4.597370   -0.732584
     37          1           0        0.582031   -4.522371   -0.415886
     38          1           0        3.325664   -4.194862   -0.159505
     39          1           0        5.174105   -2.535310    0.025327
     40          1           0        5.811826    0.190707    0.128585
     41          1           0        4.893181    2.504843    0.067789
     42          1           0        2.589609    4.020710   -0.206105
     43          1           0        0.460673    5.150026   -0.686330
     44          1           0       -1.970176    5.076881   -1.035615
     45          1           0       -3.240838    3.042434   -0.640316
     46          1           0       -4.038264    2.055746    1.009837
 ---------------------------------------------------------------------
 Rotational constants (GHZ):           0.2480593           0.1758684           0.1051612
 Standard basis: 6-311+G(d,p) (5D, 7F)
 There are   786 symmetry adapted cartesian basis functions of A   symmetry.
 There are   756 symmetry adapted basis functions of A   symmetry.
   756 basis functions,  1208 primitive gaussians,   786 cartesian basis functions
    98 alpha electrons       98 beta electrons
       nuclear repulsion energy      2649.3212476084 Hartrees.
 NAtoms=   46 NActive=   46 NUniq=   46 SFac= 1.00D+00 NAtFMM=   60 NAOKFM=F Big=F
 Integral buffers will be    131072 words long.
 Raffenetti 2 integral format.
 Two-electron integral symmetry is turned on.
 One-electron integrals computed using PRISM.
 NBasis=   756 RedAO= T EigKep=  1.02D-06  NBF=   756
 NBsUse=   734 1.00D-06 EigRej=  9.95D-07 NBFU=   734
 ExpMin= 4.38D-02 ExpMax= 4.56D+03 ExpMxC= 6.82D+02 IAcc=2 IRadAn=         4 AccDes= 0.00D+00
 Harris functional with IExCor=  402 and IRadAn=       4 diagonalized for initial guess.
 HarFok:  IExCor=  402 AccDes= 0.00D+00 IRadAn=         4 IDoV= 1 UseB2=F ITyADJ=14
 ICtDFT=  3500011 ScaDFX=  1.000000  1.000000  1.000000  1.000000
 FoFCou: FMM=F IPFlag=           0 FMFlag=      100000 FMFlg1=           0
         NFxFlg=           0 DoJE=T BraDBF=F KetDBF=T FulRan=T
         wScrn=  0.000000 ICntrl=       500 IOpCl=  0 I1Cent=   200000004 NGrid=           0
         NMat0=    1 NMatS0=      1 NMatT0=    0 NMatD0=    1 NMtDS0=    0 NMtDT0=    0
 Petite list used in FoFCou.
 Requested convergence on RMS density matrix=1.00D-08 within 128 cycles.
 Requested convergence on MAX density matrix=1.00D-06.
 Requested convergence on             energy=1.00D-06.
 No special actions if energy rises.
 SCF Done:  E(RB3LYP) =  -1153.05387643     A.U. after   17 cycles
            NFock= 17  Conv=0.32D-08     -V/T= 2.0037

 **********************************************************************

            Population analysis using the SCF Density.

 **********************************************************************

 Orbital symmetries:
       Occupied  (A) (A) (A) (A) (A) (A) (A) (A) (A) (A) (A) (A)
                 (A) (A) (A) (A) (A) (A) (A) (A) (A) (A) (A) (A)
                 (A) (A) (A) (A) (A) (A) (A) (A) (A) (A) (A) (A)
                 (A) (A) (A) (A) (A) (A) (A) (A) (A) (A) (A) (A)
                 (A) (A) (A) (A) (A) (A) (A) (A) (A) (A) (A) (A)
                 (A) (A) (A) (A) (A) (A) (A) (A) (A) (A) (A) (A)
                 (A) (A) (A) (A) (A) (A) (A) (A) (A) (A) (A) (A)
                 (A) (A) (A) (A) (A) (A) (A) (A) (A) (A) (A) (A)
                 (A) (A)
       Virtual   (A) (A) (A) (A) (A) (A) (A) (A) (A) (A) (A) (A)
                 (A) (A) (A) (A) (A) (A) (A) (A) (A) (A) (A) (A)
                 (A) (A) (A) (A) (A) (A) (A) (A) (A) (A) (A) (A)
                 (A) (A) (A) (A) (A) (A) (A) (A) (A) (A) (A) (A)
                 (A) (A) (A) (A) (A) (A) (A) (A) (A) (A) (A) (A)
                 (A) (A) (A) (A) (A) (A) (A) (A) (A) (A) (A) (A)
                 (A) (A) (A) (A) (A) (A) (A) (A) (A) (A) (A) (A)
                 (A) (A) (A) (A) (A) (A) (A) (A) (A) (A) (A) (A)
                 (A) (A) (A) (A) (A) (A) (A) (A) (A) (A) (A) (A)
                 (A) (A) (A) (A) (A) (A) (A) (A) (A) (A) (A) (A)
                 (A) (A) (A) (A) (A) (A) (A) (A) (A) (A) (A) (A)
                 (A) (A) (A) (A) (A) (A) (A) (A) (A) (A) (A) (A)
                 (A) (A) (A) (A) (A) (A) (A) (A) (A) (A) (A) (A)
                 (A) (A) (A) (A) (A) (A) (A) (A) (A) (A) (A) (A)
                 (A) (A) (A) (A) (A) (A) (A) (A) (A) (A) (A) (A)
                 (A) (A) (A) (A) (A) (A) (A) (A) (A) (A) (A) (A)
                 (A) (A) (A) (A) (A) (A) (A) (A) (A) (A) (A) (A)
                 (A) (A) (A) (A) (A) (A) (A) (A) (A) (A) (A) (A)
                 (A) (A) (A) (A) (A) (A) (A) (A) (A) (A) (A) (A)
                 (A) (A) (A) (A) (A) (A) (A) (A) (A) (A) (A) (A)
                 (A) (A) (A) (A) (A) (A) (A) (A) (A) (A) (A) (A)
                 (A) (A) (A) (A) (A) (A) (A) (A) (A) (A) (A) (A)
                 (A) (A) (A) (A) (A) (A) (A) (A) (A) (A) (A) (A)
                 (A) (A) (A) (A) (A) (A) (A) (A) (A) (A) (A) (A)
                 (A) (A) (A) (A) (A) (A) (A) (A) (A) (A) (A) (A)
                 (A) (A) (A) (A) (A) (A) (A) (A) (A) (A) (A) (A)
                 (A) (A) (A) (A) (A) (A) (A) (A) (A) (A) (A) (A)
                 (A) (A) (A) (A) (A) (A) (A) (A) (A) (A) (A) (A)
                 (A) (A) (A) (A) (A) (A) (A) (A) (A) (A) (A) (A)
                 (A) (A) (A) (A) (A) (A) (A) (A) (A) (A) (A) (A)
                 (A) (A) (A) (A) (A) (A) (A) (A) (A) (A) (A) (A)
                 (A) (A) (A) (A) (A) (A) (A) (A) (A) (A) (A) (A)
                 (A) (A) (A) (A) (A) (A) (A) (A) (A) (A) (A) (A)
                 (A) (A) (A) (A) (A) (A) (A) (A) (A) (A) (A) (A)
                 (A) (A) (A) (A) (A) (A) (A) (A) (A) (A) (A) (A)
                 (A) (A) (A) (A) (A) (A) (A) (A) (A) (A) (A) (A)
                 (A) (A) (A) (A) (A) (A) (A) (A) (A) (A) (A) (A)
                 (A) (A) (A) (A) (A) (A) (A) (A) (A) (A) (A) (A)
                 (A) (A) (A) (A) (A) (A) (A) (A) (A) (A) (A) (A)
                 (A) (A) (A) (A) (A) (A) (A) (A) (A) (A) (A) (A)
                 (A) (A) (A) (A) (A) (A) (A) (A) (A) (A) (A) (A)
                 (A) (A) (A) (A) (A) (A) (A) (A) (A) (A) (A) (A)
                 (A) (A) (A) (A) (A) (A) (A) (A) (A) (A) (A) (A)
                 (A) (A) (A) (A) (A) (A) (A) (A) (A) (A) (A) (A)
                 (A) (A) (A) (A) (A) (A) (A) (A) (A) (A) (A) (A)
                 (A) (A) (A) (A) (A) (A) (A) (A) (A) (A) (A) (A)
                 (A) (A) (A) (A) (A) (A) (A) (A) (A) (A) (A) (A)
                 (A) (A) (A) (A) (A) (A) (A) (A) (A) (A) (A) (A)
                 (A) (A) (A) (A) (A) (A) (A) (A) (A) (A) (A) (A)
                 (A) (A) (A) (A) (A) (A) (A) (A) (A) (A) (A) (A)
                 (A) (A) (A) (A) (A) (A) (A) (A) (A) (A) (A) (A)
                 (A) (A) (A) (A) (A) (A) (A) (A) (A) (A) (A) (A)
                 (A) (A) (A) (A) (A) (A) (A) (A) (A) (A) (A) (A)
 The electronic state is 1-A.
 Alpha  occ. eigenvalues --  -10.20350 -10.19879 -10.19477 -10.19431 -10.19417
 Alpha  occ. eigenvalues --  -10.19334 -10.19294 -10.19249 -10.19207 -10.19165
 Alpha  occ. eigenvalues --  -10.19161 -10.19055 -10.19016 -10.18958 -10.18656
 Alpha  occ. eigenvalues --  -10.18533 -10.18509 -10.18411 -10.18338 -10.18120
 Alpha  occ. eigenvalues --  -10.17940 -10.17914 -10.17867 -10.17756 -10.17373
 Alpha  occ. eigenvalues --  -10.17195 -10.17090 -10.15447 -10.15289 -10.15255
 Alpha  occ. eigenvalues --   -0.93123  -0.89185  -0.88288  -0.85678  -0.84330
 Alpha  occ. eigenvalues --   -0.83731  -0.80462  -0.80160  -0.78348  -0.77012
 Alpha  occ. eigenvalues --   -0.75907  -0.74934  -0.72660  -0.71109  -0.70414
 Alpha  occ. eigenvalues --   -0.67078  -0.66068  -0.64123  -0.63560  -0.62846
 Alpha  occ. eigenvalues --   -0.60408  -0.59464  -0.58304  -0.56698  -0.56067
 Alpha  occ. eigenvalues --   -0.53026  -0.52118  -0.51396  -0.51296  -0.49943
 Alpha  occ. eigenvalues --   -0.48730  -0.47732  -0.47377  -0.46292  -0.45440
 Alpha  occ. eigenvalues --   -0.45095  -0.44631  -0.44035  -0.43597  -0.43262
 Alpha  occ. eigenvalues --   -0.42673  -0.42305  -0.40981  -0.40754  -0.40147
 Alpha  occ. eigenvalues --   -0.39881  -0.39788  -0.39310  -0.38896  -0.38125
 Alpha  occ. eigenvalues --   -0.36265  -0.36054  -0.35389  -0.34907  -0.34558
 Alpha  occ. eigenvalues --   -0.34309  -0.33931  -0.33307  -0.32559  -0.31965
 Alpha  occ. eigenvalues --   -0.29591  -0.27842  -0.27175  -0.26419  -0.23314
 Alpha  occ. eigenvalues --   -0.21924  -0.20189  -0.19048
 Alpha virt. eigenvalues --   -0.10544  -0.06421  -0.03658  -0.03522  -0.01737
 Alpha virt. eigenvalues --   -0.00384  -0.00178   0.00616   0.00744   0.01373
 Alpha virt. eigenvalues --    0.01721   0.01757   0.01858   0.02821   0.02990
 Alpha virt. eigenvalues --    0.03035   0.03425   0.04000   0.04472   0.04661
 Alpha virt. eigenvalues --    0.04764   0.05044   0.05482   0.06004   0.06341
 Alpha virt. eigenvalues --    0.06817   0.06993   0.07517   0.07627   0.08260
 Alpha virt. eigenvalues --    0.08680   0.08826   0.09016   0.09431   0.09940
 Alpha virt. eigenvalues --    0.10094   0.10155   0.10760   0.10876   0.11373
 Alpha virt. eigenvalues --    0.11557   0.11794   0.12560   0.12749   0.12896
 Alpha virt. eigenvalues --    0.13222   0.13885   0.14218   0.14476   0.14629
 Alpha virt. eigenvalues --    0.15025   0.15169   0.15392   0.15848   0.16153
 Alpha virt. eigenvalues --    0.16351   0.16462   0.16552   0.16674   0.17052
 Alpha virt. eigenvalues --    0.17258   0.17386   0.17674   0.17777   0.18218
 Alpha virt. eigenvalues --    0.18414   0.18457   0.18713   0.18980   0.19528
 Alpha virt. eigenvalues --    0.19618   0.19925   0.20203   0.20323   0.20433
 Alpha virt. eigenvalues --    0.20597   0.20809   0.21015   0.21231   0.21478
 Alpha virt. eigenvalues --    0.21626   0.22059   0.22127   0.22260   0.22464
 Alpha virt. eigenvalues --    0.22749   0.22932   0.23159   0.23482   0.23845
 Alpha virt. eigenvalues --    0.24088   0.24345   0.24373   0.24576   0.24898
 Alpha virt. eigenvalues --    0.24992   0.25342   0.25715   0.25981   0.26010
 Alpha virt. eigenvalues --    0.26231   0.26408   0.26958   0.27168   0.27288
 Alpha virt. eigenvalues --    0.27675   0.27871   0.27929   0.28317   0.28802
 Alpha virt. eigenvalues --    0.28897   0.29433   0.29650   0.29943   0.30170
 Alpha virt. eigenvalues --    0.30500   0.30624   0.30984   0.31283   0.31527
 Alpha virt. eigenvalues --    0.31925   0.32275   0.32690   0.32989   0.33367
 Alpha virt. eigenvalues --    0.33641   0.33969   0.34394   0.34703   0.34793
 Alpha virt. eigenvalues --    0.35258   0.35570   0.35904   0.36615   0.36920
 Alpha virt. eigenvalues --    0.37456   0.37586   0.37868   0.38574   0.39065
 Alpha virt. eigenvalues --    0.39210   0.40243   0.40378   0.40653   0.40828
 Alpha virt. eigenvalues --    0.41766   0.42600   0.43514   0.43802   0.44384
 Alpha virt. eigenvalues --    0.44570   0.45322   0.46105   0.46279   0.46915
 Alpha virt. eigenvalues --    0.48196   0.48695   0.48929   0.50401   0.50515
 Alpha virt. eigenvalues --    0.50881   0.51908   0.52225   0.52486   0.52921
 Alpha virt. eigenvalues --    0.53674   0.54047   0.54346   0.54755   0.55289
 Alpha virt. eigenvalues --    0.55324   0.55570   0.55973   0.56753   0.57030
 Alpha virt. eigenvalues --    0.57282   0.57842   0.57932   0.58636   0.58779
 Alpha virt. eigenvalues --    0.59047   0.59508   0.59963   0.60070   0.60368
 Alpha virt. eigenvalues --    0.60421   0.61205   0.61340   0.61659   0.62309
 Alpha virt. eigenvalues --    0.62605   0.63027   0.63277   0.64217   0.64566
 Alpha virt. eigenvalues --    0.64918   0.65114   0.65649   0.66001   0.66697
 Alpha virt. eigenvalues --    0.67051   0.67174   0.67431   0.68141   0.68392
 Alpha virt. eigenvalues --    0.68604   0.69318   0.69660   0.69984   0.70071
 Alpha virt. eigenvalues --    0.70442   0.70823   0.71181   0.71508   0.71733
 Alpha virt. eigenvalues --    0.72183   0.72426   0.72638   0.73247   0.73595
 Alpha virt. eigenvalues --    0.73791   0.74429   0.74828   0.75428   0.76054
 Alpha virt. eigenvalues --    0.76148   0.76636   0.76866   0.77429   0.77735
 Alpha virt. eigenvalues --    0.77984   0.78284   0.79000   0.79713   0.79870
 Alpha virt. eigenvalues --    0.80542   0.81482   0.82373   0.82992   0.83522
 Alpha virt. eigenvalues --    0.83893   0.84159   0.84638   0.85828   0.87073
 Alpha virt. eigenvalues --    0.87373   0.88125   0.89291   0.89481   0.89588
 Alpha virt. eigenvalues --    0.90207   0.90677   0.91471   0.92383   0.92686
 Alpha virt. eigenvalues --    0.92956   0.93600   0.93884   0.94014   0.94754
 Alpha virt. eigenvalues --    0.95248   0.95705   0.95916   0.96281   0.96473
 Alpha virt. eigenvalues --    0.97304   0.97730   0.98210   0.98512   0.98742
 Alpha virt. eigenvalues --    0.99136   0.99440   1.00127   1.00316   1.00716
 Alpha virt. eigenvalues --    1.01604   1.01683   1.03310   1.03756   1.03941
 Alpha virt. eigenvalues --    1.04618   1.04997   1.05348   1.05762   1.06360
 Alpha virt. eigenvalues --    1.06996   1.07476   1.07631   1.08071   1.08560
 Alpha virt. eigenvalues --    1.09731   1.10122   1.11029   1.11626   1.12335
 Alpha virt. eigenvalues --    1.13894   1.14059   1.14818   1.15610   1.16480
 Alpha virt. eigenvalues --    1.17793   1.18645   1.19225   1.19545   1.20620
 Alpha virt. eigenvalues --    1.21628   1.22451   1.24447   1.25497   1.26211
 Alpha virt. eigenvalues --    1.27133   1.29111   1.30924   1.32098   1.33422
 Alpha virt. eigenvalues --    1.34422   1.35250   1.35945   1.38809   1.39237
 Alpha virt. eigenvalues --    1.39922   1.41554   1.42033   1.43474   1.44181
 Alpha virt. eigenvalues --    1.45019   1.45600   1.46258   1.46618   1.47422
 Alpha virt. eigenvalues --    1.48038   1.48723   1.49488   1.49735   1.50568
 Alpha virt. eigenvalues --    1.51033   1.51250   1.51887   1.52100   1.53088
 Alpha virt. eigenvalues --    1.53654   1.53939   1.54436   1.55930   1.56717
 Alpha virt. eigenvalues --    1.57234   1.57728   1.58200   1.58685   1.59423
 Alpha virt. eigenvalues --    1.59726   1.60587   1.61467   1.62120   1.62888
 Alpha virt. eigenvalues --    1.63929   1.64786   1.65809   1.66456   1.67515
 Alpha virt. eigenvalues --    1.68256   1.68772   1.69100   1.69792   1.70066
 Alpha virt. eigenvalues --    1.70711   1.72044   1.72887   1.73554   1.74218
 Alpha virt. eigenvalues --    1.74446   1.75242   1.76247   1.76592   1.76948
 Alpha virt. eigenvalues --    1.77760   1.78348   1.79438   1.80137   1.81172
 Alpha virt. eigenvalues --    1.81637   1.81936   1.83290   1.83727   1.84379
 Alpha virt. eigenvalues --    1.85160   1.85867   1.86268   1.86785   1.86961
 Alpha virt. eigenvalues --    1.88016   1.88300   1.88837   1.89161   1.89786
 Alpha virt. eigenvalues --    1.90394   1.90860   1.91339   1.91812   1.92599
 Alpha virt. eigenvalues --    1.93220   1.93531   1.94849   1.95254   1.95905
 Alpha virt. eigenvalues --    1.96390   1.96921   1.97113   1.97782   1.98116
 Alpha virt. eigenvalues --    1.99750   2.00414   2.01412   2.01786   2.02964
 Alpha virt. eigenvalues --    2.03790   2.04301   2.05046   2.05410   2.05941
 Alpha virt. eigenvalues --    2.07363   2.07413   2.08230   2.09188   2.10936
 Alpha virt. eigenvalues --    2.11259   2.12298   2.12974   2.13640   2.14199
 Alpha virt. eigenvalues --    2.15495   2.16214   2.17944   2.19159   2.19838
 Alpha virt. eigenvalues --    2.20147   2.21047   2.21411   2.22063   2.22783
 Alpha virt. eigenvalues --    2.23649   2.24964   2.25819   2.26354   2.27000
 Alpha virt. eigenvalues --    2.27824   2.28763   2.30214   2.31454   2.32104
 Alpha virt. eigenvalues --    2.34999   2.35516   2.37614   2.37940   2.38543
 Alpha virt. eigenvalues --    2.40713   2.41449   2.42415   2.43672   2.44403
 Alpha virt. eigenvalues --    2.45572   2.46696   2.47446   2.49212   2.50380
 Alpha virt. eigenvalues --    2.50892   2.52791   2.54533   2.56222   2.57510
 Alpha virt. eigenvalues --    2.59019   2.59216   2.60321   2.60967   2.62934
 Alpha virt. eigenvalues --    2.63175   2.64136   2.64314   2.66294   2.67172
 Alpha virt. eigenvalues --    2.67316   2.68753   2.70000   2.70164   2.71788
 Alpha virt. eigenvalues --    2.72402   2.72893   2.73146   2.73392   2.73922
 Alpha virt. eigenvalues --    2.74460   2.75001   2.75264   2.75782   2.76426
 Alpha virt. eigenvalues --    2.76784   2.76988   2.77357   2.77732   2.78014
 Alpha virt. eigenvalues --    2.78461   2.78733   2.79358   2.80340   2.80395
 Alpha virt. eigenvalues --    2.81582   2.82661   2.83333   2.83701   2.85519
 Alpha virt. eigenvalues --    2.85808   2.86468   2.87434   2.88097   2.88381
 Alpha virt. eigenvalues --    2.89356   2.90585   2.91265   2.91866   2.93422
 Alpha virt. eigenvalues --    2.94530   2.94971   2.95725   2.97254   2.99786
 Alpha virt. eigenvalues --    3.01124   3.02009   3.02412   3.04519   3.05638
 Alpha virt. eigenvalues --    3.06528   3.08453   3.09158   3.13103   3.14328
 Alpha virt. eigenvalues --    3.15747   3.17022   3.19001   3.19277   3.19993
 Alpha virt. eigenvalues --    3.21653   3.22839   3.23512   3.23850   3.24468
 Alpha virt. eigenvalues --    3.26911   3.29548   3.31824   3.34327   3.36414
 Alpha virt. eigenvalues --    3.37591   3.40068   3.40322   3.41240   3.42511
 Alpha virt. eigenvalues --    3.42836   3.43883   3.45114   3.45592   3.46923
 Alpha virt. eigenvalues --    3.47669   3.48565   3.49067   3.50949   3.52264
 Alpha virt. eigenvalues --    3.53838   3.55178   3.56694   3.57391   3.60833
 Alpha virt. eigenvalues --    3.61742   3.64245   3.65498   3.67531   3.68919
 Alpha virt. eigenvalues --    3.71547   3.76063   3.82657   3.86488   3.87838
 Alpha virt. eigenvalues --    3.91995   3.97990   4.00407   4.04372   4.06953
 Alpha virt. eigenvalues --    4.07037   4.07652   4.10337   4.11855   4.15725
 Alpha virt. eigenvalues --    4.18656   4.21708   4.25299   4.29623   4.36772
 Alpha virt. eigenvalues --    4.44017   4.55831   4.66118   4.76750   4.77514
 Alpha virt. eigenvalues --    4.80623   4.82583   4.84215   4.86909   4.91651
 Alpha virt. eigenvalues --    4.92911  23.40214  23.65548  23.69264  23.81006
 Alpha virt. eigenvalues --   23.85100  23.87484  23.88464  23.91892  23.93945
 Alpha virt. eigenvalues --   23.94360  23.97575  23.99002  23.99342  24.00576
 Alpha virt. eigenvalues --   24.01797  24.03472  24.04319  24.04365  24.06718
 Alpha virt. eigenvalues --   24.07206  24.08156  24.08226  24.10247  24.15012
 Alpha virt. eigenvalues --   24.15643  24.16094  24.16743  24.17079  24.26329
 Alpha virt. eigenvalues --   24.35647
          Condensed to atoms (all electrons):
               1          2          3          4          5          6
     1  C   10.044246   0.738431  -0.108037   0.295188  -1.787120  -0.826618
     2  C    0.738431   7.444257  -0.234283   0.319329  -0.399356   0.458789
     3  C   -0.108037  -0.234283   8.355208   1.221595   1.282826  -1.205059
     4  C    0.295188   0.319329   1.221595  10.370310  -1.017631  -1.682789
     5  C   -1.787120  -0.399356   1.282826  -1.017631  11.184366   1.048824
     6  C   -0.826618   0.458789  -1.205059  -1.682789   1.048824   8.709706
     7  C    0.334350   0.027427  -0.465617   0.518224  -0.637124  -0.135648
     8  C   -0.051260   0.262968   0.097062   0.140599  -0.065648   0.143344
     9  C    0.099286  -0.565352   1.632927  -0.797223   0.098900  -0.712774
    10  C    0.320708  -0.399251  -1.572111  -2.140541  -0.796174   0.634834
    11  C   -0.411775   0.073375  -0.398355   0.399427  -0.335711  -0.053226
    12  C   -0.105714  -0.143424  -0.252257   0.019571  -0.210022  -0.029587
    13  C    0.157723  -0.122864  -0.199304  -0.214988  -0.044570  -0.196448
    14  C   -0.069344  -0.226697  -0.540915  -0.324414  -0.118968   0.147742
    15  C    1.056169   0.473012  -0.276147  -0.352898  -0.859981   0.061101
    16  C   -1.116803  -0.570719  -0.170478  -0.504577   0.078902  -0.195110
    17  C   -1.097002   0.534322  -0.114577  -0.149008  -0.572371   0.095699
    18  C    0.107723   0.129774  -0.624531   0.303668  -1.153348   0.065824
    19  C    0.070239   0.070429   0.236152  -0.184799  -0.019868  -0.023500
    20  C    0.088783  -0.118885  -0.397340  -0.027825   0.180987  -0.142153
    21  C    0.034167   0.055861  -0.141611  -0.023478   0.049373  -0.040359
    22  C   -0.009011  -0.043167  -0.075905   0.008045  -0.002105   0.007381
    23  C   -0.742811  -0.955904   0.083197  -0.188897   0.045807  -0.078864
    24  C   -0.038949  -0.204255   0.035902   0.002779  -0.235821  -0.006748
    25  C   -0.084693  -0.388633   0.036455  -0.091801   0.155213  -0.019892
    26  C   -0.709373   0.067763  -0.242496  -0.086486   0.038434  -0.031153
    27  C   -0.476123  -0.179765   0.038913   0.115363  -0.092703   0.044506
    28  C    0.005237  -0.004527   0.013195   0.030110   0.006941   0.002981
    29  C    0.037220  -0.147509   0.001419  -0.008905   0.022150  -0.001019
    30  C   -0.054573  -0.037986   0.002591   0.002154  -0.010869  -0.000418
    31  H    0.000051   0.000076   0.000010   0.000001   0.000002   0.000000
    32  H   -0.000485  -0.000727   0.000088  -0.000043  -0.000030   0.000008
    33  H   -0.008665  -0.007846  -0.002385   0.001527  -0.002313   0.000532
    34  H    0.000437  -0.000196   0.000014  -0.000004   0.000038   0.000001
    35  H    0.004790   0.001244   0.000112   0.000027   0.000412   0.000017
    36  H    0.051366   0.008053   0.001506   0.000419   0.008047   0.000718
    37  H   -0.061720   0.013343  -0.009878   0.005988   0.010589  -0.000489
    38  H   -0.101879   0.021867  -0.005456  -0.033554   0.377544  -0.000748
    39  H   -0.001565   0.005901   0.038617  -0.099750   0.035506   0.378289
    40  H    0.006395  -0.019330   0.031761  -0.102297   0.000961  -0.003686
    41  H    0.001850  -0.003116  -0.010906  -0.034103  -0.001703   0.006723
    42  H    0.000132   0.004681  -0.007407   0.007998   0.000345  -0.000604
    43  H    0.000005  -0.000199   0.002105   0.000295   0.000001   0.000036
    44  H   -0.000010   0.000029   0.000085   0.000024   0.000001   0.000001
    45  H   -0.000076  -0.000680  -0.000565   0.000072  -0.000007   0.000005
    46  H   -0.000079   0.000281  -0.000242   0.000017  -0.000001  -0.000009
               7          8          9         10         11         12
     1  C    0.334350  -0.051260   0.099286   0.320708  -0.411775  -0.105714
     2  C    0.027427   0.262968  -0.565352  -0.399251   0.073375  -0.143424
     3  C   -0.465617   0.097062   1.632927  -1.572111  -0.398355  -0.252257
     4  C    0.518224   0.140599  -0.797223  -2.140541   0.399427   0.019571
     5  C   -0.637124  -0.065648   0.098900  -0.796174  -0.335711  -0.210022
     6  C   -0.135648   0.143344  -0.712774   0.634834  -0.053226  -0.029587
     7  C    7.440418   0.058727  -0.688499   0.364766   0.126876   0.252497
     8  C    0.058727  10.411345  -1.412000  -0.847280   0.027266  -1.312108
     9  C   -0.688499  -1.412000  11.873676   1.137748  -1.618747  -0.786128
    10  C    0.364766  -0.847280   1.137748   9.502708  -0.146206   0.084149
    11  C    0.126876   0.027266  -1.618747  -0.146206   9.260892   1.276677
    12  C    0.252497  -1.312108  -0.786128   0.084149   1.276677   9.568399
    13  C   -0.303900  -1.241504  -0.176501  -0.261877  -0.317521   0.216300
    14  C    0.367554   1.055465  -1.755531   0.293610   1.235368   0.731819
    15  C   -0.053684  -0.047983  -0.131496   0.102303   0.093780  -0.056756
    16  C   -0.267902   0.184512  -0.038324  -0.205208  -0.606226  -0.234140
    17  C   -0.190407  -0.153472  -0.241698  -0.005712   1.309738   0.269213
    18  C    0.123591  -0.246144  -0.637629   0.132756   0.020496   0.851967
    19  C   -1.388960   0.071906   0.660184  -0.050423  -0.894729  -1.585787
    20  C   -0.164077  -0.713292   0.077667  -0.116715  -0.188241   1.226085
    21  C    0.435016   0.171502   0.127529  -0.019694  -1.631232  -2.217429
    22  C    0.068769  -0.579614  -0.207108  -0.006418  -0.181762   0.719668
    23  C   -0.062405   0.051810  -0.017094  -0.006906  -0.047346  -0.044724
    24  C   -0.035748   0.000403  -0.008738   0.009140   0.081427  -0.016917
    25  C    0.114166  -0.066517  -0.008621  -0.029556  -0.788396  -0.574597
    26  C   -0.382260   0.163278   0.026285  -0.075465   0.077577  -0.003272
    27  C   -0.056966  -0.284110  -0.094948   0.047428   0.472331  -0.788775
    28  C    0.208910  -0.108930  -0.011523  -0.003004  -0.335733  -0.633115
    29  C    0.045427  -0.015537  -0.003174  -0.000658  -0.308131  -0.107271
    30  C    0.013006   0.007573   0.000798   0.001011   0.042810   0.078844
    31  H   -0.000006   0.000013   0.000001   0.000000   0.000343  -0.001288
[...]
 58,-0.00000446,-0.00000551,-0.00000004,-0.00000497,-0.00001009,-0.0000
 0017,-0.00000147,-0.00001111,-0.00000647,0.00001703,-0.00002154,-0.000
 00043,0.00056766,-0.00090341,-0.00011395,0.31706210,0.00005680,-0.0000
 3477,-0.00001627,-0.00015698,0.00000769,-0.00002623,0.00008367,-0.0000
 6205,0.00000888,-0.00009574,0.00003317,0.00002033,-0.00002983,-0.00000
 219,-0.00000774,0.00002079,-0.00000536,-0.00000480,-0.00016684,0.00018
 687,0.00000587,0.00039904,0.00018002,-0.00022561,-0.00000643,-0.000107
 79,0.00003553,0.00006965,0.00004501,-0.00001247,-0.00107285,0.00044898
 ,0.00019560,-0.00150372,-0.00334753,0.00199370,-0.02136339,0.00767901,
 0.00606375,-0.00153997,0.00099265,0.00002558,-0.00000678,0.00001114,-0
 .00000199,0.00000250,0.00001509,-0.00001573,0.00002604,-0.00005126,0.0
 0003001,-0.00006197,-0.00023616,0.00016526,0.05473370,-0.06890208,-0.0
 1077288,-0.00023569,-0.00072338,0.00005811,0.00127366,-0.00449009,0.00
 250337,0.02933547,-0.00188853,-0.00824916,-0.00000024,-0.00000071,-0.0
 0000045,-0.00001394,0.00000748,-0.00000036,0.00000227,-0.00001956,0.00
 001167,-0.00004477,0.00000872,-0.00001184,-0.00008627,0.00010389,-0.00
 022887,-0.00004581,-0.00000578,-0.00000502,0.00001591,-0.00000372,-0.0
 0001111,-0.00000658,0.00003821,-0.00004338,-0.00001097,0.00000542,0.00
 000780,0.00003051,0.00001573,0.00000002,0.00006906,0.00000998,-0.00006
 286,0.00000441,0.00000220,0.00000449,0.00000244,-0.00000200,0.00000036
 ,0.00000132,0.00000363,-0.00000205,-0.00000191,0.00000179,0.00000556,0
 .00000226,-0.00000400,0.00000214,-0.00000219,0.00000075,0.00000032,0.0
 0000807,0.00000535,-0.00000215,-0.00000493,-0.00001715,0.00000444,0.00
 052549,-0.00030328,-0.00010939,-0.06078421,0.06997121,-0.00000689,0.00
 002569,-0.00004363,0.00011384,-0.00004517,0.00002060,-0.00009807,0.000
 00206,0.00005982,-0.00005397,0.00003267,-0.00000076,0.00000126,0.00002
 690,0.00000167,0.00002586,-0.00001166,0.00000995,-0.00016833,0.0000961
 8,-0.00009695,0.00007891,0.00024400,-0.00018216,0.00004811,-0.00008545
 ,0.00008672,0.00007032,0.00002573,-0.00000716,0.00066391,-0.00029398,0
 .00007560,0.00243564,0.00161971,0.00348144,0.00923278,-0.00276085,0.00
 017618,-0.00079405,-0.00132950,-0.00206508,0.00000005,-0.00002650,0.00
 000186,-0.00000478,0.00000206,-0.00002341,0.00000837,0.00001336,0.0000
 2224,-0.00008068,0.00023675,0.00019810,0.07476724,-0.01101524,-0.05738
 350,-0.00012305,0.00046652,-0.00097549,0.00200688,0.00225931,0.0074186
 1,-0.00287028,0.00125799,0.00494136,-0.00000659,-0.00001031,0.00000363
 ,0.00002902,0.00000391,-0.00000834,-0.00003528,-0.00002776,-0.00002285
 ,-0.00018065,0.00004785,0.00010472,-0.00047448,-0.00011090,-0.00080924
 ,-0.00001510,0.00002389,0.00001655,0.00001926,0.00001725,0.00000014,-0
 .00003150,-0.00001887,0.00002057,0.00000175,-0.00000422,0.00000527,-0.
 00002236,-0.00000612,-0.00001079,0.00013232,0.00001755,-0.00006678,-0.
 00000233,0.00000008,0.00000095,-0.00000175,-0.00000043,0.00000312,0.00
 000468,-0.00000139,-0.00000072,-0.00000021,0.00000143,0.00000971,0.000
 00287,0.00000406,-0.00000468,0.00000216,0.00000314,0.00000304,-0.00000
 132,0.00000703,-0.00001503,-0.00000147,0.00001151,0.00001856,-0.000090
 69,0.00037133,0.00032137,-0.08268735,0.01014791,0.04898108,-0.00000964
 ,-0.00002182,0.00000182,0.00002846,-0.00002030,0.00001014,-0.00007697,
 -0.00005810,-0.00000226,-0.00006026,0.00002252,0.00000664,-0.00001312,
 0.00004638,0.00000595,0.00004653,-0.00000464,-0.00000006,-0.00012407,0
 .00018833,0.00005529,0.00007489,0.00025001,-0.00026543,0.00001571,-0.0
 0004440,-0.00004834,0.00006877,0.00001504,0.00001552,0.00000303,-0.000
 31783,-0.00009084,-0.00026659,0.00097733,-0.00037046,0.00053729,0.0032
 6095,0.00210672,0.00048742,-0.00001379,-0.00005187,-0.00001771,0.00000
 439,-0.00000258,0.00000941,-0.00001683,-0.00000794,-0.00006257,-0.0000
 0289,-0.00006850,0.00005933,0.00001718,0.00000337,0.01013746,0.0097007
 4,-0.00426653,-0.00385997,0.00290889,0.00268858,-0.01299154,-0.0226421
 3,0.00983353,-0.15239991,-0.11698684,0.06473406,-0.00004867,0.00000875
 ,-0.00001757,0.00001760,-0.00002153,-0.00002455,-0.00007555,-0.0000714
 3,-0.00001740,0.00003894,0.00016850,0.00026258,-0.00019595,-0.00113774
 ,0.00023055,-0.00002730,-0.00009149,-0.00005649,-0.00000180,-0.0000258
 9,-0.00000154,0.00007104,0.00000143,0.00003231,-0.00002313,0.00004211,
 -0.00001673,-0.00000526,0.00004656,0.00001219,-0.00029881,0.00003459,0
 .00018823,-0.00001789,0.00000883,-0.00000883,-0.00001860,0.00000116,-0
 .00000508,-0.00000456,-0.00000353,0.00000237,-0.00000301,-0.00000375,-
 0.00000208,-0.00000302,-0.00000189,-0.00000294,0.00000120,-0.00000390,
 -0.00000090,0.00000725,-0.00000066,0.00000649,0.00000196,-0.00000288,0
 .00000057,0.00000399,-0.00000142,0.00006213,0.00028235,-0.00071371,-0.
 00168750,0.15807592,-0.00006122,0.00004035,-0.00002374,-0.00000771,-0.
 00000325,0.00000095,-0.00000138,0.00002933,0.00000757,0.00012312,-0.00
 006016,-0.00000924,0.00001725,-0.00003370,0.00000248,-0.00004118,0.000
 02327,-0.00000023,0.00014260,-0.00004307,-0.00003799,0.00006834,-0.000
 62133,-0.00018825,-0.00012360,0.00012329,0.00003194,-0.00010017,-0.000
 09728,0.00001470,0.00001893,0.00023830,-0.00009514,0.00043693,-0.00029
 914,-0.00027776,0.00414901,-0.00339825,0.00144210,-0.00117488,-0.00015
 889,0.00053290,0.00000717,-0.00004681,0.00001092,-0.00001171,0.0000125
 4,0.00000426,-0.00002945,-0.00003238,0.00001651,-0.00001121,-0.0000181
 7,-0.00000477,-0.01964402,-0.01740508,0.01111796,0.00213955,0.00084250
 ,0.00002080,0.00643227,0.00816368,-0.00335606,-0.11636580,-0.20234599,
 0.07565891,0.00001761,-0.00000662,0.00000830,0.00000863,0.00000291,-0.
 00000010,0.00001421,0.00000226,0.00001843,-0.00002438,-0.00001320,-0.0
 0006587,0.00029607,0.00026002,-0.00011475,-0.00003315,-0.00000290,0.00
 001226,0.00000364,-0.00000636,0.00001368,0.00000295,0.00000717,0.00000
 657,0.00000849,-0.00000081,-0.00000024,-0.00001369,-0.00000145,0.00000
 324,0.00001372,-0.00000313,-0.00002334,-0.00000345,0.00000413,-0.00000
 337,-0.00000315,0.00000498,-0.00000142,-0.00000399,-0.00000272,-0.0000
 0115,-0.00000188,-0.00000096,-0.00000485,-0.00000556,-0.00000127,-0.00
 000116,-0.00000135,-0.00000690,-0.00000105,-0.00001630,-0.00001719,-0.
 00000269,0.00001345,-0.00000393,-0.00000860,0.00008077,-0.00000951,0.0
 0005125,-0.00010481,0.00071057,-0.00126450,0.12441031,0.21349497,-0.00
 006252,-0.00003715,-0.00001451,0.00004258,0.00009607,-0.00001384,-0.00
 001020,-0.00004964,0.00000861,-0.00003750,0.00001352,0.00000245,-0.000
 01669,0.00001397,0.00000413,0.00002105,0.00001812,-0.00000074,0.000046
 67,0.00006669,0.00010980,-0.00019326,0.00010762,-0.00071956,-0.0000526
 3,-0.00004280,-0.00008594,0.00004001,0.00001623,0.00005796,-0.00004001
 ,-0.00006779,-0.00050358,-0.00043777,-0.00039471,-0.00053703,0.0015821
 6,0.00150392,0.00817310,0.00033901,0.00011844,0.00021290,0.00002014,-0
 .00000634,0.00000760,-0.00002533,0.00000160,0.00000384,0.00000710,-0.0
 0002136,0.00000988,-0.00009371,-0.00006182,0.00005932,0.00235838,0.001
 34039,0.00280523,0.00257061,-0.00046874,0.00367976,0.00435553,0.006470
 49,-0.00033559,0.06423332,0.07574656,-0.07400816,0.00001611,0.00000036
 ,0.00000418,-0.00001148,-0.00001508,0.00000274,0.00005123,0.00000214,0
 .00005116,0.00001950,-0.00004740,-0.00010274,0.00000321,0.00038056,0.0
 0013521,0.00001353,-0.00002047,-0.00004464,0.00001270,0.00000690,-0.00
 001693,-0.00002105,-0.00000760,-0.00000618,0.00000653,-0.00000935,0.00
 001233,0.00002296,-0.00000010,-0.00000150,0.00001029,0.00002389,0.0000
 0394,-0.00000266,-0.00000042,0.00000287,0.00000433,-0.00000079,0.00000
 291,0.00000142,0.00000076,0.00000183,0.00000275,0.00000028,0.00000134,
 0.00000247,0.00000438,-0.00000356,-0.00000050,0.00000230,0.00000134,0.
 00000426,-0.00000144,0.00001526,-0.00000294,0.00000405,-0.00000021,0.0
 0006128,0.00001934,0.00019941,-0.00180476,-0.00106418,-0.00442469,-0.0
 7204844,-0.08305277,0.06727264,-0.00009290,0.00011806,-0.00003796,0.00
 001097,-0.00001703,-0.00000523,-0.00000855,-0.00009083,0.00000721,0.00
 009773,-0.00001008,0.00001575,0.00002976,-0.00008983,-0.00000356,-0.00
 008997,0.00001682,-0.00000803,-0.00026365,-0.00006099,-0.00034227,-0.0
 0005056,-0.00015134,0.00007593,0.00006403,0.00011697,0.00004655,-0.000
 10553,-0.00002454,0.00000520,0.00090822,-0.00069850,-0.00001905,-0.001
 48995,-0.00198607,0.00423254,-0.00041464,-0.00066099,0.00007231,-0.000
 00504,0.00024209,-0.00029546,0.00001908,-0.00015419,0.00002232,-0.0000
 6137,0.00013617,-0.00004411,0.00001372,-0.00009536,0.00003080,-0.00002
 092,0.00000667,0.00006899,-0.00440796,0.00012929,0.00327783,0.00979518
 ,-0.01916764,0.00137876,-0.07737375,0.07875097,0.00112596,-0.00549629,
 0.02897883,-0.00222724,0.00002415,-0.00009861,0.00004752,0.00009227,0.
 00014747,-0.00001738,-0.00016304,-0.00035775,-0.00003918,-0.00039143,0
 .00011567,0.00002992,-0.00009904,0.00000953,-0.00149967,-0.00129282,-0
 .00001553,0.00133339,0.00000876,-0.00000483,0.00002968,-0.00027391,0.0
 0035642,-0.00002818,-0.00008791,0.00013879,0.00006439,-0.00003278,-0.0
 0011020,-0.00010078,0.00034518,0.00006212,-0.00019418,0.00000962,0.000
 02562,0.00001957,-0.00000827,-0.00000460,-0.00000564,0.00000753,0.0000
 0775,0.00000127,0.00000867,0.00000479,-0.00000482,0.00000167,0.0000008
 1,0.00000370,-0.00000610,-0.00000212,0.00000474,-0.00000171,0.00000381
 ,-0.00000768,0.00000039,-0.00000618,-0.00000522,0.00004839,-0.00006309
 ,0.00000736,-0.00045395,0.00127708,-0.00018979,0.00059240,-0.00062482,
 -0.00103353,0.08103770,0.00001391,0.00013037,-0.00000531,-0.00012806,-
 0.00013980,-0.00001005,0.00003400,-0.00016968,-0.00003770,0.00005183,0
 .00002674,0.00004193,0.00002400,-0.00013679,-0.00001700,-0.00011334,0.
 00003145,-0.00000804,-0.00043498,-0.00006589,-0.00009210,-0.00002914,-
 0.00005710,0.00003826,0.00001188,0.00008572,0.00003906,-0.00007009,-0.
 00002882,-0.00000646,0.00110092,-0.00075746,-0.00001694,-0.00304948,-0
 .00041336,0.00274314,-0.00039754,0.00028085,-0.00008976,0.00001074,0.0
 0009026,-0.00012676,-0.00000577,-0.00008512,0.00001437,0.00003497,0.00
 007341,-0.00001553,-0.00000745,-0.00029842,0.00002080,0.00003537,0.000
 10239,0.00003676,0.00134408,0.00163801,0.00002197,0.00795722,-0.018507
 16,0.00126363,0.07774488,-0.30998034,0.02137075,-0.00035221,-0.0033381
 1,0.00155089,0.00000300,0.00003347,0.00001896,-0.00003597,0.00001760,-
 0.00006831,-0.00012006,-0.00009123,0.00000321,-0.00019497,0.00030824,0
 .00036779,0.00061531,-0.00052744,-0.00175371,0.00020228,0.00014344,-0.
 00090921,0.00001316,-0.00029738,-0.00001359,0.00028057,0.00062502,-0.0
 0045316,0.00000493,-0.00005907,0.00004188,0.00039238,0.00031626,0.0000
 4734,0.00015788,0.00001329,-0.00007493,0.00002729,0.00003144,0.0000051
 9,-0.00001218,0.00000002,-0.00000999,0.00000049,0.00000692,-0.00000254
 ,-0.00000029,0.00000314,-0.00000444,-0.00000397,-0.00000265,0.00000442
 ,-0.00000958,-0.00000881,-0.00000311,-0.00000307,-0.00000726,-0.000005
 37,0.00000594,-0.00000511,-0.00000732,0.00002624,-0.00001118,0.0000004
 1,-0.00005126,-0.00030223,0.00007244,0.00009880,0.00069568,-0.00057946
 ,-0.08623538,0.33016264,-0.00011059,0.00003408,-0.00002243,0.00011567,
 -0.00009311,0.00004562,-0.00033119,0.00000223,-0.00010740,-0.00008053,
 0.00006059,0.00010034,-0.00000369,0.00005706,0.00000418,0.00003013,-0.
 00002291,0.00002336,-0.00028636,0.00076474,-0.00084813,0.00054707,0.00
 017055,-0.00003073,0.00006271,-0.00009644,0.00010319,0.00011279,0.0000
 4152,-0.00003110,-0.00063705,0.00002083,0.00043077,0.00505794,0.003564
 22,0.00630311,0.00024908,0.00055030,-0.00093813,-0.00033208,-0.0007689
 2,-0.00050169,0.00002024,-0.00016488,0.00000800,-0.00008229,0.00006907
 ,-0.00006767,-0.00007939,-0.00007317,-0.00001719,-0.00014864,-0.000152
 87,0.00015303,0.00320795,-0.00038357,0.00381176,-0.00417657,0.00838541
 ,0.00445586,0.00375433,0.02164658,-0.04205509,0.00151818,-0.00881431,0
 .00399619,-0.00001392,-0.00011197,0.00003854,0.00018076,0.00006965,-0.
 00002921,-0.00018715,-0.00031010,-0.00004927,-0.00064939,0.00019394,0.
 00058069,-0.00255889,-0.00046292,-0.00373327,0.00118081,0.00047737,-0.
 00024129,0.00003147,0.00029143,-0.00016736,0.00005159,-0.00029848,0.00
 036626,-0.00000870,0.00003758,0.00007977,-0.00040855,-0.00000591,-0.00
 003672,0.00061173,-0.00008606,-0.00024061,-0.00004169,-0.00000954,-0.0
 0005596,-0.00002215,0.00000285,0.00000713,0.00000059,-0.00000723,0.000
 00804,0.00000426,-0.00000240,-0.00000479,-0.00000045,-0.00000107,-0.00
 000090,0.00000411,-0.00000017,0.00000394,0.00000126,0.00000569,-0.0000
 1768,-0.00000294,0.00000454,0.00000090,0.00000999,0.00003077,0.0000196
 0,0.00023508,-0.00046911,0.00017618,-0.00119401,-0.00041235,-0.0020234
 6,-0.00658087,-0.02313922,0.03204879,-0.00004175,-0.00013063,0.0000054
 9,0.00000829,0.00017514,0.00000558,0.00009800,-0.00003928,-0.00001438,
 -0.00011459,0.00000415,0.00000561,-0.00003300,0.00009537,0.00000536,0.
 00007830,-0.00002242,0.00000983,-0.00000392,-0.00005788,0.00000670,0.0
 0007513,0.00014827,-0.00001753,-0.00003511,-0.00010386,-0.00000013,0.0
 0010257,0.00003552,-0.00000746,0.00006479,0.00002507,-0.00006198,0.000
 49509,-0.00033405,0.00002679,-0.00010014,0.00002672,0.00005506,0.00002
 300,-0.00016292,-0.00001245,0.00004478,0.00004798,-0.00000526,0.000019
 23,0.00002567,0.00004624,0.00026009,0.00025614,-0.00003026,-0.00012856
 ,-0.00013155,0.00004519,-0.00008750,-0.00002117,-0.00003817,-0.0000397
 4,0.00082014,0.00076426,-0.00071485,0.00041852,0.00166530,0.00002170,0
 .00029848,-0.00004786,-0.00000840,0.00001731,-0.00000612,-0.00001710,-
 0.00011688,0.00000538,0.00029897,0.00041045,0.00061864,0.00006625,0.00
 104120,0.00073143,0.00490116,0.00169570,0.00112294,-0.24874563,-0.0983
 9917,-0.04985585,-0.00067532,0.00300042,-0.00129721,-0.01298793,-0.006
 61410,-0.00228634,0.00094774,0.00024019,-0.00030675,-0.01654664,-0.007
 56019,-0.00234346,-0.00015922,-0.00032712,-0.00023842,0.00004143,-0.00
 051050,-0.00081975,0.00001723,0.00001098,-0.00000023,-0.00001497,-0.00
 001238,0.00000894,0.00000422,-0.00000182,-0.00002200,-0.00000421,-0.00
 000186,-0.00000529,0.00000250,-0.00000382,-0.00000259,0.00000244,-0.00
 000535,0.00000033,0.00000417,-0.00000214,0.00000031,0.00000155,-0.0000
 1274,-0.00001852,-0.00001000,0.00001558,-0.00001677,0.00004494,0.00000
 386,0.00004583,-0.00042337,0.00106274,0.00094933,0.27326837,-0.0000589
 9,-0.00000078,-0.00002206,0.00008388,0.00021843,0.00001292,0.00006741,
 -0.00007603,-0.00000967,-0.00006665,0.00004841,0.00001263,0.00001220,0
 .00004668,0.00000778,0.00002839,-0.00002035,0.00000200,0.00014451,-0.0
 0013563,-0.00002374,-0.00006420,0.00009922,-0.00000772,0.00001827,-0.0
 0012978,-0.00001792,0.00009156,0.00007069,0.00000088,-0.00005784,0.000
 27850,-0.00006850,0.00014701,-0.00049661,0.00023381,-0.00020380,-0.000
 04738,0.00002337,0.00003973,-0.00002496,0.00000272,-0.00015009,-0.0000
 2895,-0.00005877,0.00005547,-0.00037081,0.00012958,-0.00173480,-0.0000
 2402,-0.00073115,-0.00024326,-0.00002544,-0.00001119,-0.00009814,0.000
 23540,-0.00006474,-0.00173187,0.00148606,0.00053651,0.00030274,0.00025
 789,0.00008023,0.00049548,0.00012382,-0.00000626,-0.00010104,-0.000086
 16,-0.00005436,0.00004437,0.00015191,0.00005490,0.00028407,-0.00081908
 ,-0.00009275,0.00268389,-0.00540158,0.00015752,-0.02623907,-0.01336818
 ,-0.00764978,-0.09782003,-0.09581899,-0.02266044,0.00154078,-0.0015908
 6,0.00290421,0.01771759,0.00861476,0.00257569,-0.00022107,0.00087783,-
 0.00047905,0.00042219,0.00034454,0.00062980,0.00000007,-0.00047080,0.0
 0028072,-0.00004826,0.00044599,0.00101663,-0.00008800,-0.00001193,-0.0
 0001918,0.00000052,0.00000184,-0.00002753,-0.00002415,-0.00005880,0.00
 002443,0.00000066,-0.00000115,-0.00000214,0.00000423,-0.00000091,-0.00
 000107,0.00000675,-0.00000063,-0.00000025,-0.00000081,0.00000108,0.000
 00609,0.00000010,0.00000526,0.00000474,-0.00001740,0.00002508,-0.00002
 547,-0.00000338,-0.00001553,-0.00000916,0.00008477,0.00047405,-0.00059
 428,0.10469623,0.10521791,0.00002382,-0.00009309,0.00000724,0.00003391
 ,0.00011449,-0.00000681,0.00005815,-0.00000461,0.00000844,-0.00009618,
 0.00000312,0.00000381,-0.00001846,0.00008059,0.00001533,0.00007552,-0.
 00002860,-0.00000294,0.00007358,-0.00009957,-0.00002719,-0.00002745,0.
 00010957,-0.00000160,0.00000125,-0.00010266,-0.00001549,0.00007709,0.0
 0005190,-0.00000304,-0.00012914,0.00016776,-0.00005472,0.00009031,-0.0
 0022394,-0.00002170,-0.00009762,0.00002922,0.00002225,0.00003214,-0.00
 004449,0.00000081,-0.00004388,0.00008000,-0.00004182,0.00000897,-0.000
 23879,0.00002307,-0.00050676,0.00011769,-0.00012075,-0.00011435,-0.000
 01695,0.00002322,-0.00016695,0.00012302,0.00000344,-0.00052810,0.00055
 341,0.00051280,0.00035111,-0.00127237,-0.00012348,0.00028257,0.0003173
 6,-0.00006485,-0.00001975,-0.00001682,-0.00000621,-0.00000982,-0.00006
 488,0.00002050,-0.00003593,-0.00002727,0.00057312,0.00046936,-0.001899
 51,-0.00000398,-0.00679523,-0.00372777,-0.00276630,-0.04633267,-0.0211
 9245,-0.05482257,-0.00112530,0.00406894,-0.00171407,-0.02330095,-0.011
 46826,-0.00716201,0.00107811,-0.00018228,0.00085605,0.02489987,0.01191
 077,0.00570526,0.00008564,-0.00011954,-0.00012512,-0.00038360,-0.00061
 758,-0.00117232,0.00002367,0.00001054,-0.00000973,-0.00000878,-0.00000
 652,0.00000221,-0.00000891,-0.00001981,0.00000973,0.00000186,0.0000002
 1,-0.00000211,0.00000358,0.00000340,0.00000054,0.00000427,0.00000280,0
 .00000205,-0.00000360,0.00000243,0.00000622,-0.00000900,0.00000519,0.0
 0000398,-0.00003053,0.00005292,-0.00001779,-0.00000017,-0.00002433,0.0
 0000110,0.00078810,-0.00025321,-0.00154517,0.05133024,0.02394000,0.062
 03059\\-0.00000377,0.00003369,0.00000859,-0.00003095,0.00005678,-0.000
 01430,0.00001275,-0.00008424,-0.00001895,0.00000176,0.00005097,0.00002
 137,0.00001185,-0.00003244,0.00000439,-0.00003072,-0.00001394,0.000009
 50,0.00002524,0.00004290,0.00000768,-0.00000268,0.00003440,-0.00000777
 ,0.00000080,-0.00002816,0.00000460,0.00002837,-0.00000717,-0.00000914,
 -0.00001138,-0.00003323,0.00000858,-0.00000234,0.00003688,-0.00001192,
 0.00001411,0.00000842,-0.00001029,-0.00000369,-0.00001935,-0.00000450,
 0.00000142,-0.00002747,0.00002061,-0.00000922,0.00001081,0.00000085,-0
 .00000122,0.00003513,0.00000392,0.00001901,-0.00003722,0.00000158,-0.0
 0000811,-0.00001739,-0.00000123,0.00000132,-0.00001849,-0.00000219,0.0
 0001158,0.00000798,-0.00001841,-0.00001539,0.00001194,-0.00000679,0.00
 000681,-0.00001516,0.00001802,0.00001073,0.00001036,-0.00000074,-0.000
 01265,0.00002036,-0.00000276,-0.00000925,-0.00002795,0.00000537,0.0000
 0037,0.00000195,0.00001180,0.00003912,-0.00002818,0.00002997,-0.000003
 61,-0.00001425,0.00000274,-0.00001693,0.00003139,-0.00003807,-0.000006
 65,0.00000029,0.00000230,-0.00000911,0.00000560,-0.00001101,0.00000712
 ,0.00000056,0.00000214,-0.00000900,-0.00000274,0.00000479,-0.00000632,
 -0.00000585,0.00000397,-0.00000344,-0.00000341,0.00000673,-0.00000081,
 0.00000206,0.00000908,-0.00000318,0.00000380,0.00001265,0.00000622,-0.
 00000023,0.00000961,-0.00000177,-0.00000096,0.00000275,0.00000326,0.00
 000652,-0.00000137,0.00000051,0.00000295,-0.00000886,0.00000057,0.0000
 0475,-0.00001199,-0.00000122,-0.00000139,-0.00001521,0.00000134,-0.000
 00099,-0.00000755,-0.00000085,-0.00000027,-0.00001057\\\@


 CHARLIE BROWN.."I CAN'T GET THAT STUPID KITE IN THE
 AIR... I CAN'T... I C A N N O T..."
 LUCY.."OH COME NOW CHARLIE BROWN...THAT'S NO WAY TO TALK...
 THE TROUBLE WITH YOU IS YOU DON'T BELIEVE IN YOURSELF... YOU
 DON'T BELIEVE IN YOUR OWN ABILITIES...  YOU'VE GOT TO SAY TO
 YOURSELF...'I BELIEVE I CAN FLY THIS KITE.'... GO AHEAD SAY
 IT...."
 CHARLIE BROWN.."I BELIEVE THAT I CAN FLY THIS STUPID
 KITE.....I BELIEVE THAT I CAN FLY THIS KITE........
 I  A C T U A L L Y  B E L I E V E  T H A T  I  C A N ******"
 LUCY.."I'LL BET YOU TEN-TO-ONE YOU'RE WRONG......."    SCHULZ
 Job cpu time:       1 days  0 hours 23 minutes 14.7 seconds.
 Elapsed time:       0 days  1 hours 13 minutes 22.3 seconds.
 File lengths (MBytes):  RWF=   2287 Int=      0 D2E=      0 Chk=     57 Scr=      1
 Normal termination of Gaussian 16 at Wed Jun 12 17:48:10 2019.
