 Entering Gaussian System, Link 0=/share/apps/gaussian16/g16/g16
 Initial command:
 /share/apps/gaussian16/g16/l1.exe "/home/amen01//scratch/540/Gau-1683.inp" -scrdir="/home/amen01//scratch/540/"
 Entering Link 1 = /share/apps/gaussian16/g16/l1.exe PID=      1684.
  
 Copyright (c) 1988-2017, Gaussian, Inc.  All Rights Reserved.
  
 This is part of the Gaussian(R) 16 program.  It is based on
 the Gaussian(R) 09 system (copyright 2009, Gaussian, Inc.),
 the Gaussian(R) 03 system (copyright 2003, Gaussian, Inc.),
 the Gaussian(R) 98 system (copyright 1998, Gaussian, Inc.),
 the Gaussian(R) 94 system (copyright 1995, Gaussian, Inc.),
 the Gaussian 92(TM) system (copyright 1992, Gaussian, Inc.),
 the Gaussian 90(TM) system (copyright 1990, Gaussian, Inc.),
 the Gaussian 88(TM) system (copyright 1988, Gaussian, Inc.),
 the Gaussian 86(TM) system (copyright 1986, Carnegie Mellon
 University), and the Gaussian 82(TM) system (copyright 1983,
 Carnegie Mellon University). Gaussian is a federally registered
 trademark of Gaussian, Inc.
  
 This software contains proprietary and confidential information,
 including trade secrets, belonging to Gaussian, Inc.
  
 This software is provided under written license and may be
 used, copied, transmitted, or stored only in accord with that
 written license.
  
 The following legend is applicable only to US Government
 contracts under FAR:
  
                    RESTRICTED RIGHTS LEGEND
  
 Use, reproduction and disclosure by the US Government is
 subject to restrictions as set forth in subparagraphs (a)
 and (c) of the Commercial Computer Software - Restricted
 Rights clause in FAR 52.227-19.
  
 Gaussian, Inc.
 340 Quinnipiac St., Bldg. 40, Wallingford CT 06492
  
  
 ---------------------------------------------------------------
 Warning -- This program may not be used in any manner that
 competes with the business of Gaussian, Inc. or will provide
 assistance to any competitor of Gaussian, Inc.  The licensee
 of this program is prohibited from giving any competitor of
 Gaussian, Inc. access to this program.  By using this program,
 the user acknowledges that Gaussian, Inc. is engaged in the
 business of creating and licensing software in the field of
 computational chemistry and represents and warrants to the
 licensee that it is not a competitor of Gaussian, Inc. and that
 it will not use this program in any manner prohibited above.
 ---------------------------------------------------------------
  

 Cite this work as:
 Gaussian 16, Revision B.01,
 M. J. Frisch, G. W. Trucks, H. B. Schlegel, G. E. Scuseria, 
 M. A. Robb, J. R. Cheeseman, G. Scalmani, V. Barone, 
 G. A. Petersson, H. Nakatsuji, X. Li, M. Caricato, A. V. Marenich, 
 J. Bloino, B. G. Janesko, R. Gomperts, B. Mennucci, H. P. Hratchian, 
 J. V. Ortiz, A. F. Izmaylov, J. L. Sonnenberg, D. Williams-Young, 
 F. Ding, F. Lipparini, F. Egidi, J. Goings, B. Peng, A. Petrone, 
 T. Henderson, D. Ranasinghe, V. G. Zakrzewski, J. Gao, N. Rega, 
 G. Zheng, W. Liang, M. Hada, M. Ehara, K. Toyota, R. Fukuda, 
 J. Hasegawa, M. Ishida, T. Nakajima, Y. Honda, O. Kitao, H. Nakai, 
 T. Vreven, K. Throssell, J. A. Montgomery, Jr., J. E. Peralta, 
 F. Ogliaro, M. J. Bearpark, J. J. Heyd, E. N. Brothers, K. N. Kudin, 
 V. N. Staroverov, T. A. Keith, R. Kobayashi, J. Normand, 
 K. Raghavachari, A. P. Rendell, J. C. Burant, S. S. Iyengar, 
 J. Tomasi, M. Cossi, J. M. Millam, M. Klene, C. Adamo, R. Cammi, 
 J. W. Ochterski, R. L. Martin, K. Morokuma, O. Farkas, 
 J. B. Foresman, and D. J. Fox, Gaussian, Inc., Wallingford CT, 2016.
 
 ******************************************
 Gaussian 16:  ES64L-G16RevB.01 20-Dec-2017
                18-Jun-2019 
 ******************************************
 %nprocshared=20
 Will use up to   20 processors via shared memory.
 %mem=100GB
 %chk=7-memb-carb-4a.chk
 -------------------------------------------
 # opt freq b3lyp/6-311+g(d,p) int=grid=fine
 -------------------------------------------
 1/18=20,19=15,26=3,38=1/1,3;
 2/9=110,12=2,17=6,18=5,40=1/2;
 3/5=4,6=6,7=111,11=2,25=1,30=1,71=1,74=-5,75=-4/1,2,3;
 4//1;
 5/5=2,38=5/2;
 6/7=2,8=2,9=2,10=2,28=1/1;
 7//1,2,3,16;
 1/18=20,19=15,26=3/3(2);
 2/9=110/2;
 99//99;
 2/9=110/2;
 3/5=4,6=6,7=111,11=2,25=1,30=1,71=1,74=-5,75=-4/1,2,3;
 4/5=5,16=3,69=1/1;
 5/5=2,38=5/2;
 7//1,2,3,16;
 1/18=20,19=15,26=3/3(-5);
 2/9=110/2;
 6/7=2,8=2,9=2,10=2,19=2,28=1/1;
 99/9=1/99;
 --------------
 7-memb-carb-4a
 --------------
 Symbolic Z-matrix:
 Charge =  0 Multiplicity = 1
 C                     1.52389  -2.76509  -0.32003 
 C                     1.37386  -1.46173   0.16523 
 C                     2.45353  -0.63332   0.5379 
 C                     3.7766   -0.97507   0.26976 
 C                     2.90766  -3.19593  -0.42805 
 C                     3.96283  -2.34725  -0.1677 
 C                     1.97078   0.64513   0.81152 
 C                     2.79724   1.72261   0.55911 
 C                     4.18911   1.42786   0.39725 
 C                     4.67678   0.12553   0.29367 
 C                     0.45765   0.6397    0.75235 
 C                    -0.07483   1.82804   0.00621 
 C                     0.82252   2.97494  -0.2209 
 C                     2.14248   2.95945   0.14661 
 C                     0.31449  -3.40684  -0.65025 
 C                    -0.92529  -2.73668  -0.51887 
 C                    -0.99553  -1.34143  -0.15122 
 C                     0.1947   -0.73623   0.18601 
 C                     0.21383   4.146    -0.83373 
 C                    -1.40571   1.85933  -0.20217 
 C                    -2.02949   3.04072  -0.91796 
 C                    -1.08147   4.17359  -1.17583 
 C                    -2.17724  -3.42927  -0.65111 
 C                    -3.34231  -2.82697  -0.29702 
 C                    -3.41114  -1.44847   0.12604 
 C                    -2.24195  -0.63948   0.05859 
 C                    -2.33642   0.78264   0.28999 
 C                    -3.55319   1.23772   0.81598 
 C                    -4.61704  -0.90777   0.61065 
 C                    -4.66269   0.40864   1.01864 
 H                    -5.57008   0.82354   1.44257 
 H                    -3.66075   2.28801   1.05587 
 H                    -0.13992   0.66405   1.68038 
 H                    -5.49466  -1.54176   0.67816 
 H                    -4.27062  -3.38842  -0.31963 
 H                    -2.17256  -4.46713  -0.96759 
 H                     0.30773  -4.44024  -0.98324 
 H                     3.12162  -4.20353  -0.76959 
 H                     4.97208  -2.71192  -0.33214 
 H                     5.73822  -0.02645   0.12577 
 H                     4.88322   2.25204   0.266 
 H                     2.7443    3.84758  -0.02087 
 H                     0.8487    5.00589  -1.02395 
 H                    -1.4962    5.05581  -1.65407 
 H                    -2.45705   2.68985  -1.87072 
 H                    -2.89579   3.43049  -0.37092 
 

 GradGradGradGradGradGradGradGradGradGradGradGradGradGradGradGradGradGrad
 Berny optimization.
 Initialization pass.
                           ----------------------------
                           !    Initial Parameters    !
                           ! (Angstroms and Degrees)  !
 --------------------------                            --------------------------
 ! Name  Definition              Value          Derivative Info.                !
 --------------------------------------------------------------------------------
 ! R1    R(1,2)                  1.3988         estimate D2E/DX2                !
 ! R2    R(1,5)                  1.4533         estimate D2E/DX2                !
 ! R3    R(1,15)                 1.4084         estimate D2E/DX2                !
 ! R4    R(2,3)                  1.411          estimate D2E/DX2                !
 ! R5    R(2,18)                 1.3846         estimate D2E/DX2                !
 ! R6    R(3,4)                  1.3926         estimate D2E/DX2                !
 ! R7    R(3,7)                  1.3937         estimate D2E/DX2                !
 ! R8    R(4,6)                  1.4522         estimate D2E/DX2                !
 ! R9    R(4,10)                 1.422          estimate D2E/DX2                !
 ! R10   R(5,6)                  1.3789         estimate D2E/DX2                !
 ! R11   R(5,38)                 1.0852         estimate D2E/DX2                !
 ! R12   R(6,39)                 1.0856         estimate D2E/DX2                !
 ! R13   R(7,8)                  1.3812         estimate D2E/DX2                !
 ! R14   R(7,11)                 1.5143         estimate D2E/DX2                !
 ! R15   R(8,9)                  1.4319         estimate D2E/DX2                !
 ! R16   R(8,14)                 1.459          estimate D2E/DX2                !
 ! R17   R(9,10)                 1.3945         estimate D2E/DX2                !
 ! R18   R(9,41)                 1.0855         estimate D2E/DX2                !
 ! R19   R(10,40)                1.0853         estimate D2E/DX2                !
 ! R20   R(11,12)                1.5008         estimate D2E/DX2                !
 ! R21   R(11,18)                1.511          estimate D2E/DX2                !
 ! R22   R(11,33)                1.1041         estimate D2E/DX2                !
 ! R23   R(12,13)                1.4738         estimate D2E/DX2                !
 ! R24   R(12,20)                1.3475         estimate D2E/DX2                !
 ! R25   R(13,14)                1.3703         estimate D2E/DX2                !
 ! R26   R(13,19)                1.4551         estimate D2E/DX2                !
 ! R27   R(14,42)                1.0858         estimate D2E/DX2                !
 ! R28   R(15,16)                1.4154         estimate D2E/DX2                !
 ! R29   R(15,37)                1.0857         estimate D2E/DX2                !
 ! R30   R(16,17)                1.4446         estimate D2E/DX2                !
 ! R31   R(16,23)                1.4369         estimate D2E/DX2                !
 ! R32   R(17,18)                1.3772         estimate D2E/DX2                !
 ! R33   R(17,26)                1.4458         estimate D2E/DX2                !
 ! R34   R(19,22)                1.34           estimate D2E/DX2                !
 ! R35   R(19,43)                1.0857         estimate D2E/DX2                !
 ! R36   R(20,21)                1.5156         estimate D2E/DX2                !
 ! R37   R(20,27)                1.5059         estimate D2E/DX2                !
 ! R38   R(21,22)                1.4995         estimate D2E/DX2                !
 ! R39   R(21,45)                1.1017         estimate D2E/DX2                !
 ! R40   R(21,46)                1.0962         estimate D2E/DX2                !
 ! R41   R(22,44)                1.0858         estimate D2E/DX2                !
 ! R42   R(23,24)                1.3585         estimate D2E/DX2                !
 ! R43   R(23,36)                1.0851         estimate D2E/DX2                !
 ! R44   R(24,25)                1.4436         estimate D2E/DX2                !
 ! R45   R(24,35)                1.0851         estimate D2E/DX2                !
 ! R46   R(25,26)                1.4234         estimate D2E/DX2                !
 ! R47   R(25,29)                1.4076         estimate D2E/DX2                !
 ! R48   R(26,27)                1.4439         estimate D2E/DX2                !
 ! R49   R(27,28)                1.4015         estimate D2E/DX2                !
 ! R50   R(28,30)                1.3998         estimate D2E/DX2                !
 ! R51   R(28,32)                1.0827         estimate D2E/DX2                !
 ! R52   R(29,30)                1.3789         estimate D2E/DX2                !
 ! R53   R(29,34)                1.0848         estimate D2E/DX2                !
 ! R54   R(30,31)                1.0841         estimate D2E/DX2                !
 ! A1    A(2,1,5)              113.8365         estimate D2E/DX2                !
 ! A2    A(2,1,15)             114.4438         estimate D2E/DX2                !
 ! A3    A(5,1,15)             131.6913         estimate D2E/DX2                !
 ! A4    A(1,2,3)              123.8211         estimate D2E/DX2                !
 ! A5    A(1,2,18)             125.7854         estimate D2E/DX2                !
 ! A6    A(3,2,18)             109.8802         estimate D2E/DX2                !
 ! A7    A(2,3,4)              122.1459         estimate D2E/DX2                !
 ! A8    A(2,3,7)              108.9887         estimate D2E/DX2                !
 ! A9    A(4,3,7)              126.3006         estimate D2E/DX2                !
 ! A10   A(3,4,6)              114.3134         estimate D2E/DX2                !
 ! A11   A(3,4,10)             114.0956         estimate D2E/DX2                !
 ! A12   A(6,4,10)             130.9338         estimate D2E/DX2                !
 ! A13   A(1,5,6)              122.1478         estimate D2E/DX2                !
 ! A14   A(1,5,38)             119.1021         estimate D2E/DX2                !
 ! A15   A(6,5,38)             118.6859         estimate D2E/DX2                !
 ! A16   A(4,6,5)              122.7038         estimate D2E/DX2                !
 ! A17   A(4,6,39)             118.8313         estimate D2E/DX2                !
 ! A18   A(5,6,39)             118.4267         estimate D2E/DX2                !
 ! A19   A(3,7,8)              118.1946         estimate D2E/DX2                !
 ! A20   A(3,7,11)             109.5815         estimate D2E/DX2                !
 ! A21   A(8,7,11)             126.4101         estimate D2E/DX2                !
 ! A22   A(7,8,9)              116.2124         estimate D2E/DX2                !
 ! A23   A(7,8,14)             116.3892         estimate D2E/DX2                !
 ! A24   A(9,8,14)             125.3642         estimate D2E/DX2                !
 ! A25   A(8,9,10)             122.7229         estimate D2E/DX2                !
 ! A26   A(8,9,41)             118.6156         estimate D2E/DX2                !
 ! A27   A(10,9,41)            118.456          estimate D2E/DX2                !
 ! A28   A(4,10,9)             120.1769         estimate D2E/DX2                !
 ! A29   A(4,10,40)            120.538          estimate D2E/DX2                !
 ! A30   A(9,10,40)            118.9654         estimate D2E/DX2                !
 ! A31   A(7,11,12)            111.7839         estimate D2E/DX2                !
 ! A32   A(7,11,18)            101.0584         estimate D2E/DX2                !
 ! A33   A(7,11,33)            120.5246         estimate D2E/DX2                !
 ! A34   A(12,11,18)           118.2257         estimate D2E/DX2                !
 ! A35   A(12,11,33)           102.0285         estimate D2E/DX2                !
 ! A36   A(18,11,33)           103.9426         estimate D2E/DX2                !
 ! A37   A(11,12,13)           118.4733         estimate D2E/DX2                !
 ! A38   A(11,12,20)           116.4684         estimate D2E/DX2                !
 ! A39   A(13,12,20)           124.0185         estimate D2E/DX2                !
 ! A40   A(12,13,14)           122.4377         estimate D2E/DX2                !
 ! A41   A(12,13,19)           115.8787         estimate D2E/DX2                !
 ! A42   A(14,13,19)           121.6679         estimate D2E/DX2                !
 ! A43   A(8,14,13)            121.1792         estimate D2E/DX2                !
 ! A44   A(8,14,42)            119.2267         estimate D2E/DX2                !
 ! A45   A(13,14,42)           118.9011         estimate D2E/DX2                !
 ! A46   A(1,15,16)            120.974          estimate D2E/DX2                !
 ! A47   A(1,15,37)            120.7273         estimate D2E/DX2                !
 ! A48   A(16,15,37)           118.2719         estimate D2E/DX2                !
 ! A49   A(15,16,17)           121.5681         estimate D2E/DX2                !
 ! A50   A(15,16,23)           121.7644         estimate D2E/DX2                !
 ! A51   A(17,16,23)           116.5265         estimate D2E/DX2                !
 ! A52   A(16,17,18)           116.4064         estimate D2E/DX2                !
 ! A53   A(16,17,26)           123.2149         estimate D2E/DX2                !
 ! A54   A(18,17,26)           119.7475         estimate D2E/DX2                !
 ! A55   A(2,18,11)            109.5456         estimate D2E/DX2                !
 ! A56   A(2,18,17)            120.1371         estimate D2E/DX2                !
 ! A57   A(11,18,17)           129.9673         estimate D2E/DX2                !
 ! A58   A(13,19,22)           121.8995         estimate D2E/DX2                !
 ! A59   A(13,19,43)           117.8134         estimate D2E/DX2                !
 ! A60   A(22,19,43)           120.2807         estimate D2E/DX2                !
 ! A61   A(12,20,21)           119.8441         estimate D2E/DX2                !
 ! A62   A(12,20,27)           122.9083         estimate D2E/DX2                !
 ! A63   A(21,20,27)           117.2124         estimate D2E/DX2                !
 ! A64   A(20,21,22)           114.1976         estimate D2E/DX2                !
 ! A65   A(20,21,45)           108.6577         estimate D2E/DX2                !
 ! A66   A(20,21,46)           111.5137         estimate D2E/DX2                !
 ! A67   A(22,21,45)           109.7095         estimate D2E/DX2                !
 ! A68   A(22,21,46)           108.4706         estimate D2E/DX2                !
 ! A69   A(45,21,46)           103.7756         estimate D2E/DX2                !
 ! A70   A(19,22,21)           123.4813         estimate D2E/DX2                !
 ! A71   A(19,22,44)           119.8923         estimate D2E/DX2                !
 ! A72   A(21,22,44)           116.6209         estimate D2E/DX2                !
 ! A73   A(16,23,24)           120.6344         estimate D2E/DX2                !
 ! A74   A(16,23,36)           118.9557         estimate D2E/DX2                !
 ! A75   A(24,23,36)           120.2518         estimate D2E/DX2                !
 ! A76   A(23,24,25)           122.7273         estimate D2E/DX2                !
 ! A77   A(23,24,35)           119.9242         estimate D2E/DX2                !
 ! A78   A(25,24,35)           117.3473         estimate D2E/DX2                !
 ! A79   A(24,25,26)           119.3189         estimate D2E/DX2                !
 ! A80   A(24,25,29)           120.5671         estimate D2E/DX2                !
 ! A81   A(26,25,29)           120.1122         estimate D2E/DX2                !
 ! A82   A(17,26,25)           116.045          estimate D2E/DX2                !
 ! A83   A(17,26,27)           123.9068         estimate D2E/DX2                !
 ! A84   A(25,26,27)           119.8969         estimate D2E/DX2                !
 ! A85   A(20,27,26)           127.6894         estimate D2E/DX2                !
 ! A86   A(20,27,28)           115.2817         estimate D2E/DX2                !
 ! A87   A(26,27,28)           115.8963         estimate D2E/DX2                !
 ! A88   A(27,28,30)           123.3771         estimate D2E/DX2                !
 ! A89   A(27,28,32)           118.9719         estimate D2E/DX2                !
 ! A90   A(30,28,32)           117.6287         estimate D2E/DX2                !
 ! A91   A(25,29,30)           119.7971         estimate D2E/DX2                !
 ! A92   A(25,29,34)           119.3422         estimate D2E/DX2                !
 ! A93   A(30,29,34)           120.847          estimate D2E/DX2                !
 ! A94   A(28,30,29)           119.7589         estimate D2E/DX2                !
 ! A95   A(28,30,31)           119.5621         estimate D2E/DX2                !
 ! A96   A(29,30,31)           120.5828         estimate D2E/DX2                !
 ! D1    D(5,1,2,3)             -0.8272         estimate D2E/DX2                !
 ! D2    D(5,1,2,18)           170.1103         estimate D2E/DX2                !
 ! D3    D(15,1,2,3)          -179.1181         estimate D2E/DX2                !
 ! D4    D(15,1,2,18)           -8.1806         estimate D2E/DX2                !
 ! D5    D(2,1,5,6)             -4.6361         estimate D2E/DX2                !
 ! D6    D(2,1,5,38)           178.3189         estimate D2E/DX2                !
 ! D7    D(15,1,5,6)           173.2802         estimate D2E/DX2                !
 ! D8    D(15,1,5,38)           -3.7648         estimate D2E/DX2                !
 ! D9    D(2,1,15,16)            1.5597         estimate D2E/DX2                !
 ! D10   D(2,1,15,37)         -176.5227         estimate D2E/DX2                !
 ! D11   D(5,1,15,16)         -176.3467         estimate D2E/DX2                !
 ! D12   D(5,1,15,37)            5.5709         estimate D2E/DX2                !
 ! D13   D(1,2,3,4)              9.6255         estimate D2E/DX2                !
 ! D14   D(1,2,3,7)            172.5064         estimate D2E/DX2                !
 ! D15   D(18,2,3,4)          -162.5654         estimate D2E/DX2                !
 ! D16   D(18,2,3,7)             0.3155         estimate D2E/DX2                !
 ! D17   D(1,2,18,11)         -178.4704         estimate D2E/DX2                !
 ! D18   D(1,2,18,17)            7.6651         estimate D2E/DX2                !
 ! D19   D(3,2,18,11)           -6.4691         estimate D2E/DX2                !
 ! D20   D(3,2,18,17)          179.6665         estimate D2E/DX2                !
 ! D21   D(2,3,4,6)            -11.809          estimate D2E/DX2                !
 ! D22   D(2,3,4,10)           159.9343         estimate D2E/DX2                !
 ! D23   D(7,3,4,6)           -171.6047         estimate D2E/DX2                !
 ! D24   D(7,3,4,10)             0.1386         estimate D2E/DX2                !
 ! D25   D(2,3,7,8)           -148.9372         estimate D2E/DX2                !
 ! D26   D(2,3,7,11)             5.9538         estimate D2E/DX2                !
 ! D27   D(4,3,7,8)             13.0487         estimate D2E/DX2                !
 ! D28   D(4,3,7,11)           167.9397         estimate D2E/DX2                !
 ! D29   D(3,4,6,5)              6.3824         estimate D2E/DX2                !
 ! D30   D(3,4,6,39)          -175.9024         estimate D2E/DX2                !
 ! D31   D(10,4,6,5)          -163.6245         estimate D2E/DX2                !
 ! D32   D(10,4,6,39)           14.0907         estimate D2E/DX2                !
 ! D33   D(3,4,10,9)            -8.2517         estimate D2E/DX2                !
 ! D34   D(3,4,10,40)          178.3074         estimate D2E/DX2                !
 ! D35   D(6,4,10,9)           161.7724         estimate D2E/DX2                !
 ! D36   D(6,4,10,40)          -11.6684         estimate D2E/DX2                !
 ! D37   D(1,5,6,4)              1.8166         estimate D2E/DX2                !
 ! D38   D(1,5,6,39)          -175.9074         estimate D2E/DX2                !
 ! D39   D(38,5,6,4)           178.8735         estimate D2E/DX2                !
 ! D40   D(38,5,6,39)            1.1494         estimate D2E/DX2                !
 ! D41   D(3,7,8,9)            -16.9399         estimate D2E/DX2                !
 ! D42   D(3,7,8,14)           147.7336         estimate D2E/DX2                !
 ! D43   D(11,7,8,9)          -167.1529         estimate D2E/DX2                !
 ! D44   D(11,7,8,14)           -2.4794         estimate D2E/DX2                !
 ! D45   D(3,7,11,12)         -135.8031         estimate D2E/DX2                !
 ! D46   D(3,7,11,18)           -9.1435         estimate D2E/DX2                !
 ! D47   D(3,7,11,33)          104.4498         estimate D2E/DX2                !
 ! D48   D(8,7,11,12)           16.5055         estimate D2E/DX2                !
 ! D49   D(8,7,11,18)          143.165          estimate D2E/DX2                !
 ! D50   D(8,7,11,33)         -103.2416         estimate D2E/DX2                !
 ! D51   D(7,8,9,10)             9.4718         estimate D2E/DX2                !
 ! D52   D(7,8,9,41)          -175.822          estimate D2E/DX2                !
 ! D53   D(14,8,9,10)         -153.6494         estimate D2E/DX2                !
 ! D54   D(14,8,9,41)           21.0569         estimate D2E/DX2                !
 ! D55   D(7,8,14,13)          -12.3461         estimate D2E/DX2                !
 ! D56   D(7,8,14,42)          177.2988         estimate D2E/DX2                !
 ! D57   D(9,8,14,13)          150.7485         estimate D2E/DX2                !
 ! D58   D(9,8,14,42)          -19.6065         estimate D2E/DX2                !
 ! D59   D(8,9,10,4)             3.6194         estimate D2E/DX2                !
 ! D60   D(8,9,10,40)          177.1628         estimate D2E/DX2                !
 ! D61   D(41,9,10,4)         -171.0948         estimate D2E/DX2                !
 ! D62   D(41,9,10,40)           2.4486         estimate D2E/DX2                !
 ! D63   D(7,11,12,13)         -16.6403         estimate D2E/DX2                !
 ! D64   D(7,11,12,20)         174.5458         estimate D2E/DX2                !
 ! D65   D(18,11,12,13)       -133.317          estimate D2E/DX2                !
 ! D66   D(18,11,12,20)         57.869          estimate D2E/DX2                !
 ! D67   D(33,11,12,13)        113.4806         estimate D2E/DX2                !
 ! D68   D(33,11,12,20)        -55.3334         estimate D2E/DX2                !
 ! D69   D(7,11,18,2)            9.3254         estimate D2E/DX2                !
 ! D70   D(7,11,18,17)        -177.6017         estimate D2E/DX2                !
 ! D71   D(12,11,18,2)         131.606          estimate D2E/DX2                !
 ! D72   D(12,11,18,17)        -55.3211         estimate D2E/DX2                !
 ! D73   D(33,11,18,2)        -116.2482         estimate D2E/DX2                !
 ! D74   D(33,11,18,17)         56.8247         estimate D2E/DX2                !
 ! D75   D(11,12,13,14)          4.3161         estimate D2E/DX2                !
 ! D76   D(11,12,13,19)       -174.261          estimate D2E/DX2                !
 ! D77   D(20,12,13,14)        172.222          estimate D2E/DX2                !
 ! D78   D(20,12,13,19)         -6.3551         estimate D2E/DX2                !
 ! D79   D(11,12,20,21)        178.5114         estimate D2E/DX2                !
 ! D80   D(11,12,20,27)          0.7308         estimate D2E/DX2                !
 ! D81   D(13,12,20,21)         10.3843         estimate D2E/DX2                !
 ! D82   D(13,12,20,27)       -167.3963         estimate D2E/DX2                !
 ! D83   D(12,13,14,8)          11.4437         estimate D2E/DX2                !
 ! D84   D(12,13,14,42)       -178.1705         estimate D2E/DX2                !
 ! D85   D(19,13,14,8)        -170.0604         estimate D2E/DX2                !
 ! D86   D(19,13,14,42)          0.3253         estimate D2E/DX2                !
 ! D87   D(12,13,19,22)         -0.351          estimate D2E/DX2                !
 ! D88   D(12,13,19,43)       -179.4332         estimate D2E/DX2                !
 ! D89   D(14,13,19,22)       -178.94           estimate D2E/DX2                !
 ! D90   D(14,13,19,43)          1.9778         estimate D2E/DX2                !
 ! D91   D(1,15,16,17)           5.2586         estimate D2E/DX2                !
 ! D92   D(1,15,16,23)        -170.275          estimate D2E/DX2                !
 ! D93   D(37,15,16,17)       -176.6131         estimate D2E/DX2                !
 ! D94   D(37,15,16,23)          7.8534         estimate D2E/DX2                !
 ! D95   D(15,16,17,18)         -5.9335         estimate D2E/DX2                !
 ! D96   D(15,16,17,26)       -176.7844         estimate D2E/DX2                !
 ! D97   D(23,16,17,18)        169.8226         estimate D2E/DX2                !
 ! D98   D(23,16,17,26)         -1.0283         estimate D2E/DX2                !
 ! D99   D(15,16,23,24)        168.5702         estimate D2E/DX2                !
 ! D100  D(15,16,23,36)         -6.8711         estimate D2E/DX2                !
 ! D101  D(17,16,23,24)         -7.1769         estimate D2E/DX2                !
 ! D102  D(17,16,23,36)        177.3818         estimate D2E/DX2                !
 ! D103  D(16,17,18,2)          -0.1823         estimate D2E/DX2                !
 ! D104  D(16,17,18,11)       -172.6306         estimate D2E/DX2                !
 ! D105  D(26,17,18,2)         171.0043         estimate D2E/DX2                !
 ! D106  D(26,17,18,11)         -1.444          estimate D2E/DX2                !
 ! D107  D(16,17,26,25)         11.1529         estimate D2E/DX2                !
 ! D108  D(16,17,26,27)       -173.3365         estimate D2E/DX2                !
 ! D109  D(18,17,26,25)       -159.4062         estimate D2E/DX2                !
 ! D110  D(18,17,26,27)         16.1044         estimate D2E/DX2                !
 ! D111  D(13,19,22,21)          2.4155         estimate D2E/DX2                !
 ! D112  D(13,19,22,44)       -178.468          estimate D2E/DX2                !
 ! D113  D(43,19,22,21)       -178.5246         estimate D2E/DX2                !
 ! D114  D(43,19,22,44)          0.5919         estimate D2E/DX2                !
 ! D115  D(12,20,21,22)         -7.575          estimate D2E/DX2                !
 ! D116  D(12,20,21,45)        115.2434         estimate D2E/DX2                !
 ! D117  D(12,20,21,46)       -130.9751         estimate D2E/DX2                !
 ! D118  D(27,20,21,22)        170.3299         estimate D2E/DX2                !
 ! D119  D(27,20,21,45)        -66.8517         estimate D2E/DX2                !
 ! D120  D(27,20,21,46)         46.9298         estimate D2E/DX2                !
 ! D121  D(12,20,27,26)        -53.5326         estimate D2E/DX2                !
 ! D122  D(12,20,27,28)        139.2365         estimate D2E/DX2                !
 ! D123  D(21,20,27,26)        128.632          estimate D2E/DX2                !
 ! D124  D(21,20,27,28)        -38.5989         estimate D2E/DX2                !
 ! D125  D(20,21,22,19)          1.3352         estimate D2E/DX2                !
 ! D126  D(20,21,22,44)       -177.808          estimate D2E/DX2                !
 ! D127  D(45,21,22,19)       -120.9095         estimate D2E/DX2                !
 ! D128  D(45,21,22,44)         59.9473         estimate D2E/DX2                !
 ! D129  D(46,21,22,19)        126.3637         estimate D2E/DX2                !
 ! D130  D(46,21,22,44)        -52.7795         estimate D2E/DX2                !
 ! D131  D(16,23,24,25)          4.9067         estimate D2E/DX2                !
 ! D132  D(16,23,24,35)       -174.6823         estimate D2E/DX2                !
 ! D133  D(36,23,24,25)       -179.7111         estimate D2E/DX2                !
 ! D134  D(36,23,24,35)          0.6999         estimate D2E/DX2                !
 ! D135  D(23,24,25,26)          5.9376         estimate D2E/DX2                !
 ! D136  D(23,24,25,29)       -173.5812         estimate D2E/DX2                !
 ! D137  D(35,24,25,26)       -174.4634         estimate D2E/DX2                !
 ! D138  D(35,24,25,29)          6.0179         estimate D2E/DX2                !
 ! D139  D(24,25,26,17)        -13.3308         estimate D2E/DX2                !
 ! D140  D(24,25,26,27)        170.9667         estimate D2E/DX2                !
 ! D141  D(29,25,26,17)        166.1902         estimate D2E/DX2                !
 ! D142  D(29,25,26,27)         -9.5123         estimate D2E/DX2                !
 ! D143  D(24,25,29,30)        179.5815         estimate D2E/DX2                !
 ! D144  D(24,25,29,34)          0.9178         estimate D2E/DX2                !
 ! D145  D(26,25,29,30)          0.0665         estimate D2E/DX2                !
 ! D146  D(26,25,29,34)       -178.5972         estimate D2E/DX2                !
 ! D147  D(17,26,27,20)         29.0457         estimate D2E/DX2                !
 ! D148  D(17,26,27,28)       -163.7902         estimate D2E/DX2                !
 ! D149  D(25,26,27,20)       -155.6073         estimate D2E/DX2                !
 ! D150  D(25,26,27,28)         11.5568         estimate D2E/DX2                !
 ! D151  D(20,27,28,30)        163.9671         estimate D2E/DX2                !
 ! D152  D(20,27,28,32)        -14.2738         estimate D2E/DX2                !
 ! D153  D(26,27,28,30)         -4.8217         estimate D2E/DX2                !
 ! D154  D(26,27,28,32)        176.9373         estimate D2E/DX2                !
 ! D155  D(27,28,30,29)         -4.3821         estimate D2E/DX2                !
 ! D156  D(27,28,30,31)        179.1646         estimate D2E/DX2                !
 ! D157  D(32,28,30,29)        173.8809         estimate D2E/DX2                !
 ! D158  D(32,28,30,31)         -2.5724         estimate D2E/DX2                !
 ! D159  D(25,29,30,28)          6.8249         estimate D2E/DX2                !
 ! D160  D(25,29,30,31)       -176.7586         estimate D2E/DX2                !
 ! D161  D(34,29,30,28)       -174.5319         estimate D2E/DX2                !
 ! D162  D(34,29,30,31)          1.8846         estimate D2E/DX2                !
 --------------------------------------------------------------------------------
 Trust Radius=3.00D-01 FncErr=1.00D-07 GrdErr=1.00D-06 EigMax=2.50D+02 EigMin=1.00D-04
 Number of steps in this run=    276 maximum allowed number of steps=    276.
 GradGradGradGradGradGradGradGradGradGradGradGradGradGradGradGradGradGrad

                          Input orientation:                          
 ---------------------------------------------------------------------
 Center     Atomic      Atomic             Coordinates (Angstroms)
 Number     Number       Type             X           Y           Z
 ---------------------------------------------------------------------
      1          6           0        1.523889   -2.765091   -0.320033
      2          6           0        1.373857   -1.461729    0.165226
      3          6           0        2.453530   -0.633321    0.537896
      4          6           0        3.776599   -0.975069    0.269763
      5          6           0        2.907661   -3.195935   -0.428045
      6          6           0        3.962826   -2.347251   -0.167704
      7          6           0        1.970784    0.645134    0.811522
      8          6           0        2.797236    1.722613    0.559113
      9          6           0        4.189105    1.427855    0.397252
     10          6           0        4.676782    0.125530    0.293670
     11          6           0        0.457650    0.639695    0.752348
     12          6           0       -0.074833    1.828040    0.006210
     13          6           0        0.822515    2.974936   -0.220898
     14          6           0        2.142480    2.959448    0.146607
     15          6           0        0.314491   -3.406839   -0.650253
     16          6           0       -0.925287   -2.736680   -0.518871
     17          6           0       -0.995526   -1.341426   -0.151222
     18          6           0        0.194699   -0.736233    0.186011
     19          6           0        0.213827    4.146004   -0.833726
     20          6           0       -1.405707    1.859333   -0.202165
     21          6           0       -2.029495    3.040722   -0.917961
     22          6           0       -1.081471    4.173586   -1.175834
     23          6           0       -2.177243   -3.429269   -0.651106
     24          6           0       -3.342309   -2.826968   -0.297024
     25          6           0       -3.411144   -1.448471    0.126042
     26          6           0       -2.241947   -0.639477    0.058592
     27          6           0       -2.336417    0.782640    0.289994
     28          6           0       -3.553190    1.237717    0.815977
     29          6           0       -4.617043   -0.907766    0.610645
     30          6           0       -4.662692    0.408639    1.018636
     31          1           0       -5.570075    0.823539    1.442572
     32          1           0       -3.660746    2.288006    1.055867
     33          1           0       -0.139920    0.664045    1.680382
     34          1           0       -5.494664   -1.541755    0.678158
     35          1           0       -4.270625   -3.388419   -0.319625
     36          1           0       -2.172557   -4.467134   -0.967586
     37          1           0        0.307731   -4.440240   -0.983243
     38          1           0        3.121617   -4.203531   -0.769592
     39          1           0        4.972077   -2.711923   -0.332137
     40          1           0        5.738222   -0.026445    0.125770
     41          1           0        4.883218    2.252044    0.266000
     42          1           0        2.744303    3.847582   -0.020865
     43          1           0        0.848697    5.005886   -1.023951
     44          1           0       -1.496195    5.055808   -1.654068
     45          1           0       -2.457052    2.689848   -1.870719
     46          1           0       -2.895794    3.430491   -0.370922
 ---------------------------------------------------------------------
                    Distance matrix (angstroms):
                    1          2          3          4          5
     1  C    0.000000
     2  C    1.398835   0.000000
     3  C    2.478854   1.410970   0.000000
     4  C    2.937131   2.453759   1.392551   0.000000
     5  C    1.453313   2.389978   2.776016   2.484801   0.000000
     6  C    2.479155   2.756402   2.390272   1.452219   1.378918
     7  C    3.620741   2.283176   1.393687   2.485866   4.143438
     8  C    4.746978   3.510155   2.380968   2.884504   5.017847
     9  C    5.019828   4.040935   2.698230   2.441405   4.868537
    10  C    4.321233   3.666770   2.361853   1.422048   3.831813
    11  C    3.725511   2.366459   2.376993   3.722334   4.701908
    12  C    4.874341   3.598134   3.568418   4.770787   5.858684
    13  C    5.783568   4.487434   4.031811   4.956803   6.516931
    14  C    5.776743   4.487531   3.627375   4.262152   6.229323
    15  C    1.408378   2.360236   3.698593   4.329680   2.611204
    16  C    2.457398   2.716533   4.117922   5.082612   3.861432
    17  C    2.898753   2.393447   3.587796   4.804646   4.330208
    18  C    2.477719   1.384626   2.288391   3.590831   3.713134
    19  C    7.052898   5.812938   5.453399   6.335331   7.831053
    20  C    5.475557   4.346309   4.653464   5.925609   6.649203
    21  C    6.833119   5.747013   5.976255   7.158770   7.969405
    22  C    7.460934   6.291570   6.208016   7.224904   8.413216
    23  C    3.774801   4.141005   5.538511   6.505331   5.095140
    24  C    4.866646   4.931508   6.253074   7.377644   6.262222
    25  C    5.127087   4.785180   5.935360   7.204749   6.579357
    26  C    4.340865   3.709651   4.719881   6.031593   5.769814
    27  C    5.278304   4.338075   5.000999   6.360732   6.621555
    28  C    6.564276   5.655641   6.297523   7.675974   7.933943
    29  C    6.482813   6.032923   7.076271   8.400831   7.933206
    30  C    7.080846   6.377030   7.208149   8.584701   8.508589
    31  H    8.143056   7.421068   8.204823   9.590140   9.566995
    32  H    7.369351   6.340424   6.796088   8.159640   8.684444
    33  H    4.304520   3.017637   3.116796   4.473887   5.350949
    34  H    7.193957   6.888112   8.001170   9.297539   8.634759
    35  H    5.827944   5.983928   7.317115   8.421962   7.181685
    36  H    4.120678   4.784639   6.193971   7.008424   5.264567
    37  H    2.173709   3.365581   4.627197   5.060680   2.935332
    38  H    2.196349   3.383198   3.860345   3.454306   1.085210
    39  H    3.448619   3.841555   3.379441   2.192741   2.122564
    40  H    5.045743   4.594484   3.365613   2.183709   4.285377
    41  H    6.066314   5.110566   3.781883   3.411580   5.836523
    42  H    6.731000   5.486487   4.524959   4.940452   7.057167
    43  H    7.831952   6.596967   6.067579   6.783666   8.477282
    44  H    8.489230   7.350192   7.264380   8.238626   9.433363
    45  H    6.928844   6.004709   6.399898   7.541332   8.093448
    46  H    7.610613   6.515458   6.779070   8.021238   8.808682
                    6          7          8          9         10
     6  C    0.000000
     7  C    3.725786   0.000000
     8  C    4.295423   1.381193   0.000000
     9  C    3.823847   2.388560   1.431915   0.000000
    10  C    2.614813   2.803673   2.480691   1.394492   0.000000
    11  C    4.696233   1.514300   2.585288   3.830280   4.275024
    12  C    5.810851   2.496466   2.926704   4.300492   5.055593
    13  C    6.179810   2.795065   2.465006   3.756261   4.820712
    14  C    5.619031   2.414051   1.458982   2.568516   3.804656
    15  C    3.829612   4.615038   5.825622   6.283643   5.691942
    16  C    4.916159   4.646917   5.908005   6.658802   6.343157
    17  C    5.059369   3.697606   4.927266   5.903401   5.875795
    18  C    4.113305   2.335362   3.599768   4.547876   4.565446
    19  C    7.527346   4.248509   3.806156   4.970561   6.111726
    20  C    6.820387   3.728610   4.273519   5.643350   6.344178
    21  C    8.093272   4.973146   5.216943   6.557599   7.412189
    22  C    8.305575   5.071077   4.905270   6.147569   7.190527
    23  C    6.253390   5.995512   7.263054   8.075958   7.778615
    24  C    7.322011   6.443083   7.689322   8.678003   8.565745
    25  C    7.434348   5.815343   6.984791   8.130842   8.241367
    26  C    6.439481   4.468135   5.587786   6.763652   6.964862
    27  C    7.048842   4.340839   5.225932   6.558220   7.043917
    28  C    8.385113   5.555669   6.374089   7.755941   8.321190
    29  C    8.734535   6.771360   7.867216   9.113117   9.356461
    30  C    9.132464   6.640921   7.588690   8.931922   9.371846
    31  H   10.174630   7.569320   8.461721   9.833590  10.334664
    32  H    9.005642   5.871360   6.501689   7.924254   8.647058
    33  H    5.414411   2.282618   3.317333   4.579332   5.041189
    34  H    9.529345   7.780307   8.912120  10.132762  10.314358
    35  H    8.300411   7.516930   8.766384   9.761016   9.632241
    36  H    6.540385   6.816728   8.083478   8.779773   8.342468
    37  H    4.290155   5.643399   6.823288   7.169754   6.447121
    38  H    2.125012   5.228182   6.081929   5.849236   4.721211
    39  H    1.085639   4.646025   5.018901   4.275841   2.920612
    40  H    2.936716   3.887784   3.449114   2.142068   1.085330
    41  H    4.710492   3.370760   2.171988   1.085499   2.136690
    42  H    6.315245   3.398069   2.203331   2.849097   4.205601
    43  H    8.031163   4.862530   4.133132   5.097102   6.340996
    44  H    9.317482   6.128060   5.868723   7.049297   8.136767
    45  H    8.335914   5.566058   5.869171   7.134965   7.883647
    46  H    8.970188   5.730617   6.016012   7.402461   8.289050
                   11         12         13         14         15
    11  C    0.000000
    12  C    1.500808   0.000000
    13  C    2.556107   1.473832   0.000000
    14  C    2.930329   2.493245   1.370258   0.000000
    15  C    4.285116   5.290224   6.416345   6.671292   0.000000
    16  C    3.863731   4.672863   5.980481   6.503840   1.415424
    17  C    2.617823   3.304236   4.684134   5.332289   2.496219
    18  C    1.510979   2.584661   3.785829   4.177734   2.801040
    19  C    3.856071   2.482292   1.455149   2.467523   7.555742
    20  C    2.422955   1.347451   2.491966   3.731156   5.558096
    21  C    3.839369   2.478990   2.936696   4.306424   6.865638
    22  C    4.309892   2.812852   2.444141   3.690100   7.725787
    23  C    5.046663   5.700131   7.085017   7.753197   2.491835
    24  C    5.249631   5.695388   7.142384   7.985132   3.719302
    25  C    4.440750   4.677698   6.132762   7.090339   4.279976
    26  C    3.066823   3.284474   4.746896   5.673025   3.833553
    27  C    2.835668   2.507620   3.878920   4.981924   5.046099
    28  C    4.055677   3.619830   4.820771   5.987743   6.219380
    29  C    5.307280   5.336820   6.734659   7.801399   5.670561
    30  C    5.132465   4.907969   6.181409   7.319660   6.489639
    31  H    6.069899   5.768002   6.947003   8.107104   7.543483
    32  H    4.446374   3.764588   4.711861   5.912277   7.151546
    33  H    1.104052   2.040091   3.143464   3.581995   4.712796
    34  H    6.339895   6.417289   7.817643   8.880841   6.244157
    35  H    6.303286   6.702409   8.151203   9.035525   4.597058
    36  H    5.996321   6.706559   8.056824   8.661125   2.722193
    37  H    5.370334   6.357414   7.472015   7.707026   1.085747
    38  H    5.733224   6.870154   7.557600   7.287414   2.920431
    39  H    5.726212   6.796841   7.040710   6.356120   4.719874
    40  H    5.359177   6.102870   5.769978   4.673901   6.437867
    41  H    4.735172   4.982925   4.153186   2.833076   7.330467
    42  H    4.014621   3.467969   2.120093   1.085827   7.676375
    43  H    4.729882   3.465955   2.184110   2.689236   8.437948
    44  H    5.395406   3.898112   3.429347   4.569148   8.712211
    45  H    4.424827   3.152863   3.682220   5.029710   6.807392
    46  H    4.505093   3.266175   3.749114   5.086642   7.558640
                   16         17         18         19         20
    16  C    0.000000
    17  C    1.444587   0.000000
    18  C    2.398544   1.377178   0.000000
    19  C    6.983413   5.660409   4.987631   0.000000
    20  C    4.631894   3.227337   3.073913   2.872390   0.000000
    21  C    5.895500   4.567297   4.520087   2.502246   1.515637
    22  C    6.943182   5.610042   5.252576   1.339998   2.531586
    23  C    1.436857   2.450597   3.685012   7.945774   5.363406
    24  C    2.428861   2.781274   4.137018   7.845794   5.071572
    25  C    2.873131   2.433833   3.676001   6.734963   3.882147
    26  C    2.542699   1.445794   2.441893   5.452328   2.647894
    27  C    3.877004   2.550356   2.953699   4.367918   1.505892
    28  C    4.948083   3.758869   4.282524   5.036871   2.456563
    29  C    4.271978   3.726109   4.833487   7.138915   4.316269
    30  C    5.121050   4.228404   5.059471   6.417132   3.768663
    31  H    6.172234   5.306011   6.102823   7.047966   4.595649
    32  H    5.933802   4.661892   4.976658   4.694149   2.617557
    33  H    4.125342   2.847586   2.075065   4.309282   2.564159
    34  H    4.872364   4.579328   5.767142   8.198980   5.390912
    35  H    3.414052   3.865852   5.218130   8.783060   5.980004
    36  H    2.179793   3.438299   4.566652   8.938618   6.418576
    37  H    2.153623   3.463147   3.885820   8.588059   6.574996
    38  H    4.311838   5.052217   4.637044   8.841611   7.587948
    39  H    5.900372   6.125625   5.195688   8.362039   7.847892
    40  H    7.222416   6.866532   5.589103   6.989199   7.395906
    41  H    7.696890   6.902661   5.560432   5.157489   6.318542
    42  H    7.554231   6.397587   5.249251   2.674529   4.605278
    43  H    7.959237   6.667172   5.904545   1.085653   3.957078
    44  H    7.895409   6.590434   6.308150   2.103540   3.511931
    45  H    5.798362   4.619946   4.795827   3.213929   2.139896
    46  H    6.476016   5.141058   5.217558   3.224266   2.171952
                   21         22         23         24         25
    21  C    0.000000
    22  C    1.499543   0.000000
    23  C    6.477177   7.699316   0.000000
    24  C    6.044736   7.408877   1.358499   0.000000
    25  C    4.811627   6.223326   2.459681   1.443599   0.000000
    26  C    3.813483   5.102557   2.879374   2.474344   1.423391
    27  C    2.579204   3.901545   4.318702   3.792846   2.481889
    28  C    2.928995   4.323891   5.081960   4.219586   2.777012
    29  C    4.962116   6.442974   3.728621   2.476317   1.407620
    30  C    4.196665   5.640538   4.867754   3.734103   2.410799
    31  H    4.798304   6.182753   5.829337   4.616854   3.399451
    32  H    2.668999   3.897250   6.148315   5.300441   3.858515
    33  H    3.996307   4.621836   5.132421   5.133479   4.192804
    34  H    5.962725   7.455111   4.041650   2.689867   2.157450
    35  H    6.834802   8.251528   2.119858   1.085131   2.168116
    36  H    7.509383   8.711824   1.085055   2.123233   3.441286
    37  H    7.837836   8.727255   2.703234   4.049239   4.900125
    38  H    8.890173   9.381208   5.356439   6.625752   7.146291
    39  H    9.080646   9.206927   7.192295   8.315256   8.490267
    40  H    8.416312   8.114348   8.650857   9.511978   9.259215
    41  H    7.057576   6.430297   9.108705   9.683628   9.083493
    42  H    4.923916   4.009586   8.807462   9.037296   8.121532
    43  H    3.486702   2.107449   8.969234   8.913280   7.818405
    44  H    2.210618   1.085827   8.571248   8.209011   7.010097
    45  H    1.101665   2.139291   6.245746   5.804779   4.692870
    46  H    1.096196   2.119396   6.902979   6.273805   4.931210
                   26         27         28         29         30
    26  C    0.000000
    27  C    1.443914   0.000000
    28  C    2.411814   1.401531   0.000000
    29  C    2.453125   2.856842   2.403548   0.000000
    30  C    2.807176   2.466242   1.399798   1.378935   0.000000
    31  H    3.890020   3.433170   2.152206   2.144246   1.084070
    32  H    3.402603   2.146284   1.082692   3.365366   2.130094
    33  H    2.957683   2.602276   3.567451   4.864109   4.578057
    34  H    3.431929   3.940559   3.393196   1.084767   2.147589
    35  H    3.437334   4.637944   4.817202   2.671900   4.045035
    36  H    3.963435   5.400786   6.134539   4.597328   5.824003
    37  H    4.693834   5.990920   7.098105   6.266758   7.226635
    38  H    6.492780   7.468250   8.756384   8.523730   9.223087
    39  H    7.515973   8.124845   9.465622   9.802808  10.217205
    40  H    8.003963   8.116735   9.402384  10.404006  10.448230
    41  H    7.692327   7.367690   8.514947  10.017891   9.751359
    42  H    6.708405   5.941735   6.868051   8.786442   8.232282
    43  H    6.526416   5.450432   6.079559   8.216903   7.462054
    44  H    5.993799   4.769205   4.991009   7.101608   6.226253
    45  H    3.853948   2.884558   3.244771   4.874993   4.291519
    46  H    4.144471   2.785826   2.578596   4.769344   3.766217
                   31         32         33         34         35
    31  H    0.000000
    32  H    2.437159   0.000000
    33  H    5.437699   3.927274   0.000000
    34  H    2.486892   4.262979   5.877354   0.000000
    35  H    4.747052   5.872455   6.122517   2.429817   0.000000
    36  H    6.733737   7.207009   6.121466   4.722575   2.446501
    37  H    8.254729   8.073170   5.774861   6.695465   4.744266
    38  H   10.281567   9.564141   6.350850   9.133528   7.450646
    39  H   11.259931  10.072312   6.448248  10.580296   9.267435
    40  H   11.416393   9.724318   6.119326  11.348085  10.567794
    41  H   10.615851   8.580472   5.454735  11.057270  10.768037
    42  H    8.967461   6.679542   4.620378   9.869861  10.082568
    43  H    8.048378   5.661059   5.209833   9.273996   9.857377
    44  H    6.640616   4.437314   5.678523   8.059458   8.987946
    45  H    4.914460   3.189869   4.699287   5.799166   6.529952
    46  H    4.151715   1.981452   4.410886   5.707707   6.956315
                   36         37         38         39         40
    36  H    0.000000
    37  H    2.480483   0.000000
    38  H    5.304429   2.831896   0.000000
    39  H    7.384467   5.016686   2.416705   0.000000
    40  H    9.137591   7.085318   5.009625   2.829920   0.000000
    41  H    9.821051   8.202582   6.771273   5.000663   2.437665
    42  H    9.705993   8.692011   8.094651   6.934477   4.898279
    43  H    9.943302   9.461691   9.489164   8.777553   7.110110
    44  H    9.571580   9.689122  10.384693  10.194297   9.018531
    45  H    7.219347   7.698688   8.936034   9.313341   8.861531
    46  H    7.953085   8.519737   9.728641   9.981691   9.313611
                   41         42         43         44         45
    41  H    0.000000
    42  H    2.683839   0.000000
    43  H    5.052225   2.437452   0.000000
    44  H    7.228047   4.702019   2.428592   0.000000
    45  H    7.657467   5.640603   4.124200   2.562801   0.000000
    46  H    7.893506   5.666321   4.114551   2.499399   1.729288
                   46
    46  H    0.000000
 Stoichiometry    C30H16
 Framework group  C1[X(C30H16)]
 Deg. of freedom   132
 Full point group                 C1      NOp   1
 Largest Abelian subgroup         C1      NOp   1
 Largest concise Abelian subgroup C1      NOp   1
                         Standard orientation:                         
 ---------------------------------------------------------------------
 Center     Atomic      Atomic             Coordinates (Angstroms)
 Number     Number       Type             X           Y           Z
 ---------------------------------------------------------------------
      1          6           0       -1.523889   -2.765091    0.320033
      2          6           0       -1.373857   -1.461729   -0.165226
      3          6           0       -2.453530   -0.633321   -0.537896
      4          6           0       -3.776599   -0.975069   -0.269763
      5          6           0       -2.907661   -3.195935    0.428045
      6          6           0       -3.962826   -2.347251    0.167704
      7          6           0       -1.970784    0.645134   -0.811522
      8          6           0       -2.797236    1.722613   -0.559113
      9          6           0       -4.189105    1.427855   -0.397252
     10          6           0       -4.676782    0.125530   -0.293670
     11          6           0       -0.457650    0.639695   -0.752348
     12          6           0        0.074833    1.828040   -0.006210
     13          6           0       -0.822515    2.974936    0.220898
     14          6           0       -2.142480    2.959448   -0.146607
     15          6           0       -0.314491   -3.406839    0.650253
     16          6           0        0.925287   -2.736680    0.518871
     17          6           0        0.995526   -1.341426    0.151222
     18          6           0       -0.194699   -0.736233   -0.186011
     19          6           0       -0.213827    4.146004    0.833726
     20          6           0        1.405707    1.859333    0.202165
     21          6           0        2.029495    3.040722    0.917961
     22          6           0        1.081471    4.173586    1.175834
     23          6           0        2.177243   -3.429269    0.651106
     24          6           0        3.342309   -2.826968    0.297024
     25          6           0        3.411144   -1.448471   -0.126042
     26          6           0        2.241947   -0.639477   -0.058592
     27          6           0        2.336417    0.782640   -0.289994
     28          6           0        3.553190    1.237717   -0.815977
     29          6           0        4.617043   -0.907766   -0.610645
     30          6           0        4.662692    0.408639   -1.018636
     31          1           0        5.570075    0.823539   -1.442572
     32          1           0        3.660746    2.288006   -1.055867
     33          1           0        0.139920    0.664045   -1.680382
     34          1           0        5.494664   -1.541755   -0.678158
     35          1           0        4.270625   -3.388419    0.319625
     36          1           0        2.172557   -4.467134    0.967586
     37          1           0       -0.307731   -4.440240    0.983243
     38          1           0       -3.121617   -4.203531    0.769592
     39          1           0       -4.972077   -2.711923    0.332137
     40          1           0       -5.738222   -0.026445   -0.125770
     41          1           0       -4.883218    2.252044   -0.266000
     42          1           0       -2.744303    3.847582    0.020865
     43          1           0       -0.848697    5.005886    1.023951
     44          1           0        1.496195    5.055808    1.654068
     45          1           0        2.457052    2.689848    1.870719
     46          1           0        2.895794    3.430491    0.370922
 ---------------------------------------------------------------------
 Rotational constants (GHZ):           0.2437339           0.1780102           0.1083575
 Standard basis: 6-311+G(d,p) (5D, 7F)
 There are   786 symmetry adapted cartesian basis functions of A   symmetry.
 There are   756 symmetry adapted basis functions of A   symmetry.
   756 basis functions,  1208 primitive gaussians,   786 cartesian basis functions
    98 alpha electrons       98 beta electrons
       nuclear repulsion energy      2647.4550853754 Hartrees.
 NAtoms=   46 NActive=   46 NUniq=   46 SFac= 1.00D+00 NAtFMM=   60 NAOKFM=F Big=F
 Integral buffers will be    131072 words long.
 Raffenetti 2 integral format.
 Two-electron integral symmetry is turned on.
 One-electron integrals computed using PRISM.
 NBasis=   756 RedAO= T EigKep=  1.15D-06  NBF=   756
 NBsUse=   737 1.00D-06 EigRej=  9.68D-07 NBFU=   737
 ExpMin= 4.38D-02 ExpMax= 4.56D+03 ExpMxC= 6.82D+02 IAcc=2 IRadAn=         4 AccDes= 0.00D+00
 Harris functional with IExCor=  402 and IRadAn=       4 diagonalized for initial guess.
 HarFok:  IExCor=  402 AccDes= 0.00D+00 IRadAn=         4 IDoV= 1 UseB2=F ITyADJ=14
 ICtDFT=  3500011 ScaDFX=  1.000000  1.000000  1.000000  1.000000
 FoFCou: FMM=F IPFlag=           0 FMFlag=      100000 FMFlg1=           0
         NFxFlg=           0 DoJE=T BraDBF=F KetDBF=T FulRan=T
         wScrn=  0.000000 ICntrl=       500 IOpCl=  0 I1Cent=   200000004 NGrid=           0
         NMat0=    1 NMatS0=      1 NMatT0=    0 NMatD0=    1 NMtDS0=    0 NMtDT0=    0
 Petite list used in FoFCou.
 Requested convergence on RMS density matrix=1.00D-08 within 128 cycles.
 Requested convergence on MAX density matrix=1.00D-06.
 Requested convergence on             energy=1.00D-06.
 No special actions if energy rises.
 SCF Done:  E(RB3LYP) =  -1153.08054401     A.U. after   16 cycles
            NFock= 16  Conv=0.78D-08     -V/T= 2.0044

 **********************************************************************

            Population analysis using the SCF Density.

 **********************************************************************

 Orbital symmetries:
       Occupied  (A) (A) (A) (A) (A) (A) (A) (A) (A) (A) (A) (A)
                 (A) (A) (A) (A) (A) (A) (A) (A) (A) (A) (A) (A)
                 (A) (A) (A) (A) (A) (A) (A) (A) (A) (A) (A) (A)
                 (A) (A) (A) (A) (A) (A) (A) (A) (A) (A) (A) (A)
                 (A) (A) (A) (A) (A) (A) (A) (A) (A) (A) (A) (A)
                 (A) (A) (A) (A) (A) (A) (A) (A) (A) (A) (A) (A)
                 (A) (A) (A) (A) (A) (A) (A) (A) (A) (A) (A) (A)
                 (A) (A) (A) (A) (A) (A) (A) (A) (A) (A) (A) (A)
                 (A) (A)
       Virtual   (A) (A) (A) (A) (A) (A) (A) (A) (A) (A) (A) (A)
                 (A) (A) (A) (A) (A) (A) (A) (A) (A) (A) (A) (A)
                 (A) (A) (A) (A) (A) (A) (A) (A) (A) (A) (A) (A)
                 (A) (A) (A) (A) (A) (A) (A) (A) (A) (A) (A) (A)
                 (A) (A) (A) (A) (A) (A) (A) (A) (A) (A) (A) (A)
                 (A) (A) (A) (A) (A) (A) (A) (A) (A) (A) (A) (A)
                 (A) (A) (A) (A) (A) (A) (A) (A) (A) (A) (A) (A)
                 (A) (A) (A) (A) (A) (A) (A) (A) (A) (A) (A) (A)
                 (A) (A) (A) (A) (A) (A) (A) (A) (A) (A) (A) (A)
                 (A) (A) (A) (A) (A) (A) (A) (A) (A) (A) (A) (A)
                 (A) (A) (A) (A) (A) (A) (A) (A) (A) (A) (A) (A)
                 (A) (A) (A) (A) (A) (A) (A) (A) (A) (A) (A) (A)
                 (A) (A) (A) (A) (A) (A) (A) (A) (A) (A) (A) (A)
                 (A) (A) (A) (A) (A) (A) (A) (A) (A) (A) (A) (A)
                 (A) (A) (A) (A) (A) (A) (A) (A) (A) (A) (A) (A)
                 (A) (A) (A) (A) (A) (A) (A) (A) (A) (A) (A) (A)
                 (A) (A) (A) (A) (A) (A) (A) (A) (A) (A) (A) (A)
                 (A) (A) (A) (A) (A) (A) (A) (A) (A) (A) (A) (A)
                 (A) (A) (A) (A) (A) (A) (A) (A) (A) (A) (A) (A)
                 (A) (A) (A) (A) (A) (A) (A) (A) (A) (A) (A) (A)
                 (A) (A) (A) (A) (A) (A) (A) (A) (A) (A) (A) (A)
                 (A) (A) (A) (A) (A) (A) (A) (A) (A) (A) (A) (A)
                 (A) (A) (A) (A) (A) (A) (A) (A) (A) (A) (A) (A)
                 (A) (A) (A) (A) (A) (A) (A) (A) (A) (A) (A) (A)
                 (A) (A) (A) (A) (A) (A) (A) (A) (A) (A) (A) (A)
                 (A) (A) (A) (A) (A) (A) (A) (A) (A) (A) (A) (A)
                 (A) (A) (A) (A) (A) (A) (A) (A) (A) (A) (A) (A)
                 (A) (A) (A) (A) (A) (A) (A) (A) (A) (A) (A) (A)
                 (A) (A) (A) (A) (A) (A) (A) (A) (A) (A) (A) (A)
                 (A) (A) (A) (A) (A) (A) (A) (A) (A) (A) (A) (A)
                 (A) (A) (A) (A) (A) (A) (A) (A) (A) (A) (A) (A)
                 (A) (A) (A) (A) (A) (A) (A) (A) (A) (A) (A) (A)
                 (A) (A) (A) (A) (A) (A) (A) (A) (A) (A) (A) (A)
                 (A) (A) (A) (A) (A) (A) (A) (A) (A) (A) (A) (A)
                 (A) (A) (A) (A) (A) (A) (A) (A) (A) (A) (A) (A)
                 (A) (A) (A) (A) (A) (A) (A) (A) (A) (A) (A) (A)
                 (A) (A) (A) (A) (A) (A) (A) (A) (A) (A) (A) (A)
                 (A) (A) (A) (A) (A) (A) (A) (A) (A) (A) (A) (A)
                 (A) (A) (A) (A) (A) (A) (A) (A) (A) (A) (A) (A)
                 (A) (A) (A) (A) (A) (A) (A) (A) (A) (A) (A) (A)
                 (A) (A) (A) (A) (A) (A) (A) (A) (A) (A) (A) (A)
                 (A) (A) (A) (A) (A) (A) (A) (A) (A) (A) (A) (A)
                 (A) (A) (A) (A) (A) (A) (A) (A) (A) (A) (A) (A)
                 (A) (A) (A) (A) (A) (A) (A) (A) (A) (A) (A) (A)
                 (A) (A) (A) (A) (A) (A) (A) (A) (A) (A) (A) (A)
                 (A) (A) (A) (A) (A) (A) (A) (A) (A) (A) (A) (A)
                 (A) (A) (A) (A) (A) (A) (A) (A) (A) (A) (A) (A)
                 (A) (A) (A) (A) (A) (A) (A) (A) (A) (A) (A) (A)
                 (A) (A) (A) (A) (A) (A) (A) (A) (A) (A) (A) (A)
                 (A) (A) (A) (A) (A) (A) (A) (A) (A) (A) (A) (A)
                 (A) (A) (A) (A) (A) (A) (A) (A) (A) (A) (A) (A)
                 (A) (A) (A) (A) (A) (A) (A) (A) (A) (A) (A) (A)
                 (A) (A) (A) (A) (A) (A) (A) (A) (A) (A) (A) (A)
                 (A) (A) (A)
 The electronic state is 1-A.
 Alpha  occ. eigenvalues --  -10.20250 -10.20083 -10.19576 -10.19481 -10.19430
 Alpha  occ. eigenvalues --  -10.19399 -10.19336 -10.19143 -10.19011 -10.18995
 Alpha  occ. eigenvalues --  -10.18977 -10.18964 -10.18800 -10.18727 -10.18577
 Alpha  occ. eigenvalues --  -10.18504 -10.18432 -10.18417 -10.18413 -10.18378
 Alpha  occ. eigenvalues --  -10.18323 -10.18279 -10.18274 -10.18217 -10.18197
 Alpha  occ. eigenvalues --  -10.18194 -10.18000 -10.17969 -10.17345 -10.17159
 Alpha  occ. eigenvalues --   -0.92100  -0.88903  -0.87685  -0.85331  -0.83735
 Alpha  occ. eigenvalues --   -0.83202  -0.80314  -0.79460  -0.78357  -0.77317
 Alpha  occ. eigenvalues --   -0.75188  -0.74615  -0.72763  -0.71274  -0.70978
 Alpha  occ. eigenvalues --   -0.67132  -0.65163  -0.64178  -0.63304  -0.62300
 Alpha  occ. eigenvalues --   -0.59848  -0.59731  -0.58007  -0.57050  -0.55931
 Alpha  occ. eigenvalues --   -0.52792  -0.51735  -0.51191  -0.50982  -0.49705
 Alpha  occ. eigenvalues --   -0.48790  -0.48243  -0.47200  -0.46057  -0.45704
 Alpha  occ. eigenvalues --   -0.45272  -0.44438  -0.43970  -0.43447  -0.43193
 Alpha  occ. eigenvalues --   -0.42519  -0.42211  -0.41210  -0.40769  -0.40440
 Alpha  occ. eigenvalues --   -0.40224  -0.39787  -0.39335  -0.38997  -0.37766
 Alpha  occ. eigenvalues --   -0.37157  -0.36223  -0.35531  -0.35292  -0.34659
 Alpha  occ. eigenvalues --   -0.33629  -0.33077  -0.32836  -0.32634  -0.30362
 Alpha  occ. eigenvalues --   -0.29608  -0.28900  -0.26780  -0.26005  -0.24472
 Alpha  occ. eigenvalues --   -0.23106  -0.20807  -0.19077
 Alpha virt. eigenvalues --   -0.08182  -0.06412  -0.04506  -0.03218  -0.01584
 Alpha virt. eigenvalues --   -0.01024  -0.00247   0.00618   0.00664   0.01179
 Alpha virt. eigenvalues --    0.01348   0.01608   0.01663   0.02274   0.02730
 Alpha virt. eigenvalues --    0.02928   0.03389   0.03757   0.04340   0.04750
 Alpha virt. eigenvalues --    0.05009   0.05074   0.05496   0.05610   0.06226
 Alpha virt. eigenvalues --    0.06332   0.06549   0.06970   0.07548   0.07668
 Alpha virt. eigenvalues --    0.08514   0.08543   0.08851   0.09118   0.09525
 Alpha virt. eigenvalues --    0.09950   0.10208   0.10414   0.10622   0.10815
 Alpha virt. eigenvalues --    0.11325   0.11857   0.12348   0.12705   0.12821
 Alpha virt. eigenvalues --    0.13395   0.13631   0.13886   0.14113   0.14406
 Alpha virt. eigenvalues --    0.14796   0.14954   0.15194   0.15377   0.15651
 Alpha virt. eigenvalues --    0.16006   0.16433   0.16497   0.16696   0.16823
 Alpha virt. eigenvalues --    0.16962   0.17288   0.17545   0.17749   0.17841
 Alpha virt. eigenvalues --    0.18110   0.18364   0.18521   0.18694   0.18956
 Alpha virt. eigenvalues --    0.19261   0.19468   0.19691   0.19899   0.19941
 Alpha virt. eigenvalues --    0.20207   0.20526   0.20823   0.20996   0.21156
 Alpha virt. eigenvalues --    0.21507   0.21707   0.21779   0.22075   0.22293
 Alpha virt. eigenvalues --    0.22435   0.22652   0.23094   0.23327   0.23355
 Alpha virt. eigenvalues --    0.23608   0.23921   0.24162   0.24422   0.24449
 Alpha virt. eigenvalues --    0.24828   0.24964   0.25147   0.25342   0.25484
 Alpha virt. eigenvalues --    0.25763   0.26073   0.26398   0.26735   0.26782
 Alpha virt. eigenvalues --    0.27084   0.27290   0.27431   0.27494   0.27906
 Alpha virt. eigenvalues --    0.27991   0.28409   0.28746   0.28980   0.29409
 Alpha virt. eigenvalues --    0.29479   0.29601   0.30016   0.30164   0.30273
 Alpha virt. eigenvalues --    0.30682   0.30939   0.31372   0.31635   0.31747
 Alpha virt. eigenvalues --    0.32058   0.32113   0.32519   0.32854   0.33003
 Alpha virt. eigenvalues --    0.33509   0.33842   0.34433   0.34938   0.35046
 Alpha virt. eigenvalues --    0.35373   0.35727   0.36063   0.36317   0.36596
 Alpha virt. eigenvalues --    0.37149   0.37593   0.37875   0.38069   0.38274
 Alpha virt. eigenvalues --    0.38623   0.39096   0.39877   0.40143   0.40990
 Alpha virt. eigenvalues --    0.41471   0.41595   0.43176   0.43521   0.44118
 Alpha virt. eigenvalues --    0.44408   0.44894   0.46626   0.47286   0.47983
 Alpha virt. eigenvalues --    0.48487   0.49010   0.50011   0.50206   0.50869
 Alpha virt. eigenvalues --    0.51506   0.51878   0.52596   0.52710   0.53272
 Alpha virt. eigenvalues --    0.53665   0.54310   0.54612   0.54864   0.55371
 Alpha virt. eigenvalues --    0.55948   0.56454   0.56853   0.56966   0.57817
 Alpha virt. eigenvalues --    0.58061   0.58103   0.58479   0.58832   0.59170
 Alpha virt. eigenvalues --    0.59505   0.59731   0.59979   0.60589   0.61096
 Alpha virt. eigenvalues --    0.61446   0.61843   0.62183   0.62665   0.62773
 Alpha virt. eigenvalues --    0.63412   0.63683   0.64132   0.64542   0.65501
 Alpha virt. eigenvalues --    0.65950   0.66605   0.67329   0.67561   0.67840
 Alpha virt. eigenvalues --    0.67976   0.68427   0.68689   0.69566   0.69772
 Alpha virt. eigenvalues --    0.70057   0.70218   0.70566   0.70710   0.71331
 Alpha virt. eigenvalues --    0.71707   0.71823   0.72096   0.72556   0.72752
 Alpha virt. eigenvalues --    0.73224   0.73270   0.73613   0.74184   0.74358
 Alpha virt. eigenvalues --    0.74642   0.75032   0.75131   0.75757   0.76234
 Alpha virt. eigenvalues --    0.76490   0.76601   0.76912   0.77145   0.77610
 Alpha virt. eigenvalues --    0.78184   0.78456   0.79113   0.79589   0.79938
 Alpha virt. eigenvalues --    0.81315   0.81622   0.82322   0.83338   0.83937
 Alpha virt. eigenvalues --    0.84198   0.84546   0.85145   0.86265   0.86289
 Alpha virt. eigenvalues --    0.86665   0.87333   0.87683   0.88239   0.89015
 Alpha virt. eigenvalues --    0.89609   0.90189   0.90444   0.90872   0.91125
 Alpha virt. eigenvalues --    0.91374   0.91683   0.92178   0.92675   0.93509
 Alpha virt. eigenvalues --    0.93710   0.94121   0.94839   0.95150   0.95188
 Alpha virt. eigenvalues --    0.96152   0.96754   0.96934   0.97644   0.98359
 Alpha virt. eigenvalues --    0.98529   0.98966   0.99554   1.00052   1.00539
 Alpha virt. eigenvalues --    1.00768   1.01893   1.02386   1.03445   1.04094
 Alpha virt. eigenvalues --    1.04931   1.05289   1.05832   1.05993   1.06525
 Alpha virt. eigenvalues --    1.07689   1.08329   1.08989   1.09793   1.10065
 Alpha virt. eigenvalues --    1.11304   1.11878   1.12020   1.13054   1.13288
 Alpha virt. eigenvalues --    1.14612   1.15682   1.16579   1.16917   1.17219
 Alpha virt. eigenvalues --    1.18632   1.19446   1.20940   1.21513   1.22405
 Alpha virt. eigenvalues --    1.24549   1.25546   1.26444   1.27008   1.27961
 Alpha virt. eigenvalues --    1.29689   1.31446   1.32117   1.33415   1.34176
 Alpha virt. eigenvalues --    1.34866   1.36343   1.37995   1.39158   1.40411
 Alpha virt. eigenvalues --    1.41303   1.42947   1.43785   1.44141   1.44786
 Alpha virt. eigenvalues --    1.46026   1.46677   1.47196   1.47588   1.48815
 Alpha virt. eigenvalues --    1.49201   1.50211   1.50235   1.50828   1.51350
 Alpha virt. eigenvalues --    1.51726   1.52127   1.52616   1.52876   1.53325
 Alpha virt. eigenvalues --    1.53724   1.54502   1.55236   1.56132   1.57121
 Alpha virt. eigenvalues --    1.57867   1.58285   1.58790   1.59484   1.59881
 Alpha virt. eigenvalues --    1.60783   1.61107   1.62334   1.63130   1.63390
 Alpha virt. eigenvalues --    1.63874   1.64423   1.65455   1.66566   1.66855
 Alpha virt. eigenvalues --    1.67560   1.67845   1.68975   1.69784   1.70126
 Alpha virt. eigenvalues --    1.70867   1.71812   1.72942   1.73263   1.74363
 Alpha virt. eigenvalues --    1.74906   1.75410   1.75671   1.75957   1.76253
 Alpha virt. eigenvalues --    1.76965   1.78032   1.78577   1.79696   1.80606
 Alpha virt. eigenvalues --    1.81320   1.82224   1.82809   1.83774   1.84546
 Alpha virt. eigenvalues --    1.84807   1.85850   1.86311   1.87196   1.87662
 Alpha virt. eigenvalues --    1.87933   1.88729   1.89515   1.89822   1.90154
 Alpha virt. eigenvalues --    1.90808   1.91309   1.92090   1.92832   1.93687
 Alpha virt. eigenvalues --    1.93887   1.93958   1.94961   1.95965   1.96093
 Alpha virt. eigenvalues --    1.97374   1.97761   1.98587   1.98795   1.99415
 Alpha virt. eigenvalues --    2.00086   2.01058   2.01127   2.02883   2.03696
 Alpha virt. eigenvalues --    2.04406   2.04771   2.05582   2.05806   2.06731
 Alpha virt. eigenvalues --    2.07262   2.08202   2.09037   2.09534   2.10014
 Alpha virt. eigenvalues --    2.11885   2.12277   2.13792   2.14178   2.15520
 Alpha virt. eigenvalues --    2.15957   2.16837   2.17393   2.17990   2.18994
 Alpha virt. eigenvalues --    2.20175   2.20565   2.20898   2.22059   2.23001
 Alpha virt. eigenvalues --    2.23689   2.24408   2.25318   2.26428   2.28851
 Alpha virt. eigenvalues --    2.29560   2.30719   2.31441   2.33557   2.34842
 Alpha virt. eigenvalues --    2.36333   2.37252   2.38108   2.38753   2.39681
 Alpha virt. eigenvalues --    2.40670   2.41880   2.42892   2.43953   2.44410
 Alpha virt. eigenvalues --    2.45656   2.47181   2.48110   2.49383   2.51830
 Alpha virt. eigenvalues --    2.53157   2.54277   2.55242   2.56070   2.56612
 Alpha virt. eigenvalues --    2.57965   2.58503   2.59744   2.60731   2.62351
 Alpha virt. eigenvalues --    2.63677   2.64860   2.65839   2.66794   2.67869
 Alpha virt. eigenvalues --    2.69206   2.69422   2.70682   2.71034   2.71546
 Alpha virt. eigenvalues --    2.72116   2.72576   2.72796   2.73381   2.74223
 Alpha virt. eigenvalues --    2.74438   2.75113   2.75305   2.76017   2.76338
 Alpha virt. eigenvalues --    2.76426   2.77083   2.77416   2.78071   2.78578
 Alpha virt. eigenvalues --    2.78851   2.79440   2.79829   2.81218   2.81914
 Alpha virt. eigenvalues --    2.82322   2.83538   2.83713   2.84847   2.85559
 Alpha virt. eigenvalues --    2.86102   2.87417   2.87762   2.88453   2.89193
 Alpha virt. eigenvalues --    2.90801   2.91161   2.91940   2.93805   2.94667
 Alpha virt. eigenvalues --    2.96550   2.97076   2.99271   3.00504   3.01461
 Alpha virt. eigenvalues --    3.01926   3.03431   3.04314   3.06421   3.07162
 Alpha virt. eigenvalues --    3.09251   3.10174   3.11267   3.13714   3.14645
 Alpha virt. eigenvalues --    3.16061   3.17778   3.18531   3.19349   3.19914
 Alpha virt. eigenvalues --    3.21712   3.22230   3.23900   3.25382   3.26662
 Alpha virt. eigenvalues --    3.26971   3.27736   3.30483   3.32609   3.34309
 Alpha virt. eigenvalues --    3.34812   3.35981   3.36481   3.37655   3.39436
 Alpha virt. eigenvalues --    3.40906   3.41029   3.42689   3.44476   3.47212
 Alpha virt. eigenvalues --    3.48088   3.49451   3.50690   3.53253   3.54840
 Alpha virt. eigenvalues --    3.56632   3.57921   3.59465   3.61416   3.62638
 Alpha virt. eigenvalues --    3.63684   3.67419   3.69814   3.71260   3.78588
 Alpha virt. eigenvalues --    3.80392   3.82277   3.84537   3.94611   3.95757
 Alpha virt. eigenvalues --    4.00055   4.02763   4.05729   4.05871   4.07860
 Alpha virt. eigenvalues --    4.08835   4.10641   4.12610   4.14181   4.20194
 Alpha virt. eigenvalues --    4.23691   4.27158   4.31911   4.37194   4.45898
 Alpha virt. eigenvalues --    4.57789   4.63126   4.66767   4.70591   4.72893
 Alpha virt. eigenvalues --    4.77863   4.81139   4.82011   4.88348  23.43807
 Alpha virt. eigenvalues --   23.62824  23.64862  23.77328  23.78784  23.82110
 Alpha virt. eigenvalues --   23.84340  23.85848  23.90959  23.91619  23.92988
 Alpha virt. eigenvalues --   23.94503  23.95943  23.96397  23.99901  24.00869
 Alpha virt. eigenvalues --   24.01169  24.06149  24.06537  24.08496  24.09185
 Alpha virt. eigenvalues --   24.10375  24.12590  24.13843  24.17408  24.17751
 Alpha virt. eigenvalues --   24.19420  24.20272  24.22300  24.26919
          Condensed to atoms (all electrons):
               1          2          3          4          5          6
     1  C   11.318928   0.298330  -0.015505   0.883625  -1.902202  -1.436285
     2  C    0.298330  12.087142   1.058074  -3.280522  -1.754404   2.044519
     3  C   -0.015505   1.058074  11.488651   0.983366   1.688461  -1.003606
     4  C    0.883625  -3.280522   0.983366  13.450588   0.937188  -2.686415
     5  C   -1.902202  -1.754404   1.688461   0.937188  12.417680   0.233780
     6  C   -1.436285   2.044519  -1.003606  -2.686415   0.233780  10.520932
     7  C   -0.646618  -0.866658   2.658121  -0.314699   0.734677  -1.174196
     8  C   -0.121649  -3.823746  -3.988341   3.223282   0.943857  -0.037413
     9  C   -0.127865   0.829417   2.434289  -0.866049  -0.233474  -0.273836
    10  C    0.016364  -2.780913  -1.989176  -1.459227   0.537080  -1.027263
    11  C   -1.850202   1.933781  -2.228022  -1.852617  -0.902263   0.901452
    12  C    0.024568   0.898195   1.235599  -0.914544  -0.220992  -0.009411
    13  C   -0.140464  -0.469734  -0.957626   0.425649   0.097499   0.038292
    14  C   -0.329817   0.131832  -1.424773   0.234984  -0.115166   0.242513
    15  C    1.344961  -0.091081  -0.531126  -0.120214  -1.231983  -0.190404
    16  C    0.367371  -0.555644  -0.798384  -0.257959  -1.031875  -0.223377
    17  C   -0.635997   0.687599  -0.665850  -0.966189  -1.549863   0.311674
    18  C    0.639443   1.367913  -0.710471  -0.896368  -1.433938  -0.282829
    19  C   -0.019753  -0.070251  -0.341572   0.141789   0.004844   0.010791
    20  C    0.253018   0.292453   0.506309  -0.228074  -0.043546  -0.019068
    21  C    0.095585   0.047740   0.005385  -0.006351  -0.011345   0.013396
    22  C   -0.028339  -0.038267  -0.089017  -0.014308   0.002353  -0.000655
    23  C   -0.559739  -0.829537  -0.028370  -0.023296  -0.378992  -0.181750
    24  C   -0.252267  -0.473200  -0.197628  -0.078779  -0.334972  -0.004847
    25  C   -0.050109  -0.349902  -0.179478  -0.185523  -0.093830   0.033416
    26  C   -0.798141   0.108632  -0.501096  -0.067852  -0.239672  -0.051355
    27  C   -0.356763  -0.116157  -0.233453  -0.182553  -0.097014  -0.015047
    28  C   -0.025909  -0.083286  -0.078952  -0.040591   0.005921  -0.001891
    29  C   -0.073626  -0.237260  -0.066334  -0.025125  -0.030340   0.006846
    30  C   -0.028505   0.002069   0.019486   0.008786  -0.008458  -0.001506
    31  H    0.000003  -0.000036  -0.000050  -0.000003  -0.000000   0.000000
    32  H   -0.000377   0.000619   0.000094   0.000101  -0.000036   0.000004
    33  H    0.000871  -0.020863   0.027612  -0.001584  -0.004784  -0.006595
    34  H    0.000492  -0.000185  -0.000061  -0.000010   0.000039   0.000002
    35  H    0.002135   0.000413   0.000288   0.000003   0.000141   0.000013
    36  H    0.027661   0.005131  -0.000506  -0.000267   0.003772   0.000833
    37  H   -0.016216   0.021331   0.007635   0.007479   0.037179   0.001488
    38  H   -0.063997   0.050047  -0.026700  -0.045724   0.319628   0.028753
    39  H   -0.007677  -0.009325   0.007743  -0.111720  -0.030256   0.410904
    40  H    0.005829   0.003040   0.048187  -0.031844   0.006049   0.015546
    41  H    0.000446  -0.004038  -0.039063  -0.017048  -0.000892   0.010778
    42  H    0.000477  -0.000673  -0.005962   0.005425   0.000008  -0.000556
    43  H   -0.000025  -0.000060   0.001303   0.000029  -0.000012   0.000057
    44  H   -0.000023  -0.000072  -0.000055  -0.000009  -0.000003  -0.000000
    45  H    0.000020  -0.002945  -0.001357  -0.000363  -0.000084   0.000057
    46  H   -0.000578   0.000484  -0.000339  -0.000033  -0.000014  -0.000025
               7          8          9         10         11         12
     1  C   -0.646618  -0.121649  -0.127865   0.016364  -1.850202   0.024568
     2  C   -0.866658  -3.823746   0.829417  -2.780913   1.933781   0.898195
     3  C    2.658121  -3.988341   2.434289  -1.989176  -2.228022   1.235599
     4  C   -0.314699   3.223282  -0.866049  -1.459227  -1.852617  -0.914544
     5  C    0.734677   0.943857  -0.233474   0.537080  -0.902263  -0.220992
     6  C   -1.174196  -0.037413  -0.273836  -1.027263   0.901452  -0.009411
     7  C   15.687732   0.377005  -0.870735   2.010471   0.502070  -0.271501
     8  C    0.377005  22.281827  -5.257104   1.471689  -1.040310  -2.702491
     9  C   -0.870735  -5.257104  11.899356  -0.862078  -0.971715   0.382532
    10  C    2.010471   1.471689  -0.862078  12.096511  -0.823662  -0.203202
    11  C    0.502070  -1.040310  -0.971715  -0.823662  20.414594  -3.104898
    12  C   -0.271501  -2.702491   0.382532  -0.203202  -3.104898  15.706492
    13  C   -1.004450   1.151868  -1.277329   0.078625   0.104163  -0.083133
    14  C   -2.750227  -0.895332   0.585695  -0.873103   1.662241  -3.038984
    15  C   -0.255601  -0.127448  -0.068826   0.039680  -0.215905   0.151676
    16  C   -1.249471  -0.261259  -0.023203  -0.125823  -1.651488   0.120931
    17  C   -1.087435  -0.707918  -0.176230  -0.077098   0.600524   0.549028
    18  C   -2.446782  -0.997721  -0.088137   0.218278  -1.472784   1.104897
    19  C   -1.317421  -0.380227   0.124468  -0.136864   0.011833  -0.946917
    20  C   -0.815050  -2.253045   0.503551  -0.170140  -4.598915   3.316299
    21  C   -0.726363   0.060419   0.096179  -0.031820  -2.739690  -0.318656
    22  C   -0.091698  -0.251540  -0.178824   0.009088   0.676878   0.142423
    23  C   -0.000398   0.043359  -0.028859   0.011221   0.119193  -0.313345
    24  C   -0.243378  -0.027396   0.004273  -0.002159   0.219690   0.044269
    25  C   -0.341262  -0.213611   0.034308  -0.046317  -0.101184  -0.624584
    26  C    0.169325  -0.285859   0.143922  -0.076276   1.061494  -0.746268
    27  C    0.438521  -0.660257   0.164323  -0.127335   1.931427  -2.122850
    28  C   -0.039424  -0.084685   0.049906  -0.017225   0.139151  -1.234792
    29  C   -0.113140  -0.040165   0.003752  -0.005332  -0.433709   0.019713
    30  C    0.000883   0.028920  -0.001201   0.002359  -0.086869   0.073411
    31  H   -0.000152  -0.000019  -0.000000  -0.000000  -0.002126   0.001494
[...]
 81807,-0.00001182,-0.00001058,-0.00000064,0.00001079,0.00000906,0.0000
 0089,-0.00002950,-0.00001123,-0.00000288,-0.00005027,0.00006324,0.0000
 0782,0.00008193,-0.00005439,0.00017490,-0.00004070,-0.00002835,0.00009
 207,0.00000144,-0.00004429,-0.00001270,0.00006469,0.00002076,0.0000010
 8,-0.00000846,0.00000056,0.00000148,0.00002960,-0.00003421,-0.00005212
 ,-0.00000265,-0.00000802,-0.00001443,-0.00000303,-0.00000859,-0.000005
 26,-0.00000359,-0.00000407,-0.00000225,0.00000295,-0.00000319,-0.00000
 118,0.00000046,-0.00000217,-0.00000451,-0.00000177,-0.00000237,-0.0000
 0300,0.00000375,-0.00000115,-0.00000138,0.00000592,-0.00000763,-0.0000
 0256,-0.00000760,0.00001272,-0.00000226,-0.00013231,-0.00014121,-0.000
 11813,0.15296813,0.00003556,0.00000815,-0.00002461,-0.00003900,-0.0001
 0899,-0.00003605,0.00008157,0.00004763,-0.00005160,0.00003467,-0.00003
 888,0.00000154,-0.00001897,-0.00002049,-0.00000413,0.00000682,0.000023
 55,-0.00000089,-0.00034152,0.00022351,0.00005922,0.00050324,0.00021052
 ,-0.00018617,-0.00004180,-0.00004930,0.00002636,0.00000544,-0.00003607
 ,-0.00000933,-0.00092737,-0.00076644,-0.00009023,0.00348801,-0.0017957
 0,0.00209438,-0.01636939,-0.01743849,0.00179959,-0.00175793,0.00074722
 ,-0.00056929,-0.00000106,-0.00002563,-0.00000870,0.00000176,-0.0000014
 3,-0.00001570,0.00001032,-0.00003980,-0.00002886,0.00018644,0.00000161
 ,0.00033187,-0.12886952,-0.23834565,0.02445089,0.00045711,0.00001138,0
 .00005288,0.00007646,0.00247603,0.00298818,0.00194567,0.00370760,0.000
 77829,0.00000582,-0.00000146,0.00000007,-0.00000186,0.00000169,-0.0000
 0700,-0.00001493,0.00000501,0.00001291,0.00000262,-0.00003747,0.000021
 98,-0.00005459,0.00006586,-0.00012545,-0.00003070,-0.00004073,0.000009
 64,-0.00000814,-0.00000795,-0.00000524,-0.00001064,0.00000293,0.000004
 75,-0.00000969,-0.00000186,0.00000668,0.00000464,-0.00000388,-0.000006
 08,0.00002722,-0.00009155,0.00007303,-0.00000450,-0.00000499,0.0000004
 6,-0.00000623,-0.00000381,0.00000018,-0.00000103,-0.00000785,-0.000000
 67,-0.00000064,-0.00000772,0.00000094,0.00000575,-0.00000835,-0.000000
 20,0.00000866,-0.00000695,-0.00000137,0.00001142,-0.00000235,0.0000002
 5,0.00004156,0.00000297,-0.00000065,0.00118180,0.00043444,0.00002497,0
 .13983070,0.25038204,-0.00002889,-0.00002351,-0.00000131,-0.00002411,0
 .00002777,0.00004050,-0.00002769,0.00001590,0.00002295,-0.00000425,0.0
 0001012,-0.00000623,0.00001077,-0.00000267,-0.00000675,-0.00000745,-0.
 00000513,-0.00000502,0.00011107,-0.00004725,0.00002279,-0.00009560,-0.
 00005456,-0.00015844,0.00001311,-0.00001218,0.00001990,0.00000761,0.00
 000384,0.00000627,0.00023302,0.00030024,-0.00011478,-0.00160682,0.0018
 9952,0.00195172,0.00619986,0.00971995,0.00119577,0.00108970,-0.0003913
 4,-0.00104035,0.00003574,0.00000878,0.00000288,-0.00002460,0.00000830,
 0.00001773,0.00002200,-0.00001219,-0.00001961,-0.00003928,0.00000097,-
 0.00011167,0.01033894,0.02500082,-0.04195333,-0.00011579,-0.00003398,-
 0.00019999,-0.00438607,0.00399845,0.00882533,-0.00690756,-0.00849162,0
 .00489867,0.00000037,-0.00001057,-0.00000379,0.00000017,0.00000608,-0.
 00000808,0.00007128,-0.00002228,0.00000852,-0.00009119,-0.00006887,0.0
 0002049,0.00009446,-0.00027192,-0.00029433,0.00003575,0.00010847,0.000
 05663,-0.00002973,0.00005194,0.00000130,0.00000632,-0.00011110,0.00001
 639,0.00000874,0.00000383,0.00000362,0.00004578,-0.00007143,-0.0000450
 3,0.00000611,0.00006396,-0.00001138,-0.00000143,-0.00000479,-0.0000048
 4,0.00000109,-0.00000268,0.00000031,0.00000079,0.00000072,0.00000089,0
 .00000052,0.00000085,-0.00000071,-0.00000122,0.00000066,0.00000217,0.,
 -0.00000048,0.00000429,0.00000051,-0.00000399,-0.00000126,-0.00000617,
 0.00000698,0.00001294,-0.00040230,-0.00006676,0.00031785,-0.00654190,-
 0.02921291,0.03239227,-0.00002885,0.00002061,0.00001236,0.00001113,-0.
 00000202,0.00001763,0.00004088,-0.00006329,-0.00005362,-0.00005730,0.0
 0003092,0.00001020,0.00002079,0.00004316,0.00000746,0.00002634,-0.0000
 5950,-0.00001418,-0.00009777,-0.00004071,-0.00004558,-0.00052166,-0.00
 010082,0.00044735,0.00005564,0.00021645,-0.00004107,-0.00005999,0.0000
 1421,-0.00001094,0.00010866,0.00008287,0.00024947,-0.00014385,-0.00012
 642,0.00007891,-0.00382450,-0.00310240,-0.00374372,0.00007161,0.001462
 10,-0.00046272,0.00001778,-0.00000710,-0.00000477,0.00001038,0.0000239
 3,0.00001574,0.00002467,0.00000360,0.00000212,-0.00000714,0.00004121,-
 0.00000601,-0.00888796,0.02773797,-0.01360705,-0.00258020,-0.00254536,
 -0.00057454,0.00902907,-0.01630116,0.00834298,-0.09598068,0.08564568,-
 0.04715422,-0.00001469,-0.00001760,-0.00000463,-0.00001598,0.00000154,
 -0.00000489,0.00002491,-0.00006487,-0.00005241,-0.00028911,0.00000848,
 0.00008712,0.00059470,-0.00087825,0.00039810,0.00002656,-0.00001007,-0
 .00002224,-0.00000618,-0.00003061,0.00000180,0.00001186,0.00001447,-0.
 00001001,-0.00001217,-0.00000562,0.00000504,0.00000635,0.00000717,0.00
 003021,0.00002290,-0.00004565,0.00002023,-0.00000202,-0.00000197,0.000
 00296,0.00000024,-0.00001210,-0.00000519,0.00000151,-0.00000034,-0.000
 00045,0.00000245,0.00000147,-0.00000149,0.00000415,0.00000154,0.000001
 51,-0.00000337,0.00000277,0.00000283,-0.00001143,0.00002444,0.00000455
 ,0.00000208,-0.00001134,0.00000402,-0.00000669,-0.00009445,-0.00015135
 ,0.00029701,0.00047654,0.00205987,0.10077420,0.00004135,-0.00002640,-0
 .00001042,0.00000323,0.00000711,0.00000188,0.00000042,0.00000122,0.000
 01563,0.00003967,-0.00006403,-0.00002132,-0.00006933,0.00000533,0.0000
 0712,0.00003254,0.00006891,0.00000848,-0.00001216,0.00001156,-0.000030
 03,0.00005543,0.00004756,-0.00044279,0.00000576,-0.00006883,-0.0000160
 7,0.00003339,0.00002172,0.00003704,0.00000595,0.00000517,-0.00001141,-
 0.00033183,0.00022974,-0.00031051,-0.00134504,0.00230553,0.00245057,0.
 00010288,0.00012118,0.00006451,-0.00001904,-0.00000470,-0.00000483,0.0
 0004150,0.00000072,0.00000418,-0.00000638,0.00000902,0.00001138,0.0000
 0485,0.00005298,0.00003832,-0.00196276,0.00272825,0.00036768,-0.004480
 70,-0.00070599,-0.00100567,0.01102292,-0.01639209,0.00997020,0.0891777
 9,-0.24541997,0.09606945,-0.00002197,-0.00001919,-0.00000579,-0.000020
 43,0.00001009,-0.00002004,-0.00005443,-0.00007456,-0.00006126,-0.00033
 105,0.00009090,0.00018980,0.00078396,-0.00100519,0.00057062,-0.0000007
 3,-0.00010146,0.00001417,0.00000485,-0.00009564,-0.00000341,0.00003700
 ,0.00004174,-0.00003810,-0.00003052,-0.00000663,0.00001172,0.00004283,
 0.00000108,0.00001127,-0.00000038,-0.00004690,0.00002588,-0.00000732,-
 0.00001438,0.00000704,-0.00000735,-0.00002009,-0.00000388,0.00000423,-
 0.00001091,0.00000204,0.00000166,-0.00000839,-0.00000204,0.00000204,-0
 .00000835,-0.00000101,0.00000757,-0.00000129,-0.00000158,0.00000932,-0
 .00000724,0.00000070,0.00000584,0.00000676,-0.00000659,-0.00000123,0.0
 0003504,0.00014805,0.00087008,0.00041144,-0.00205903,-0.09329816,0.256
 99274,0.00009771,-0.00006957,-0.00003244,-0.00005275,0.00009601,0.0000
 1177,-0.00005853,0.00007402,0.00012385,0.00009203,-0.00009802,-0.00004
 948,-0.00013244,-0.00002185,0.00001251,0.00003327,0.00014642,0.0000194
 5,0.00023147,0.00010770,-0.00002199,0.00000740,-0.00021897,-0.00113696
 ,-0.00002717,-0.00008683,-0.00005560,0.00004045,-0.00000512,0.00010712
 ,-0.00012302,-0.00001404,-0.00038864,0.00000368,-0.00056608,-0.0001856
 0,-0.00346360,0.00168965,0.00916013,-0.00024832,0.00074329,-0.00015346
 ,-0.00005043,0.00000241,0.00000129,0.00002737,-0.00003650,-0.00000115,
 -0.00007439,0.00005109,0.00003354,0.00002340,-0.00004180,-0.00003205,-
 0.00320628,0.00984425,0.00201182,-0.00041940,0.00076585,0.00114205,-0.
 00016599,-0.00000870,0.00154476,-0.04865745,0.09439963,-0.08226533,-0.
 00000788,-0.00000106,-0.00000214,0.00000425,0.00000310,-0.00001321,-0.
 00009028,0.00001122,-0.00002839,0.00012314,0.00000306,-0.00003288,-0.0
 0014519,0.00010968,0.00024341,-0.00001459,0.00003609,-0.00001598,0.000
 05637,-0.00003752,-0.00000843,0.00000655,0.00002990,-0.00001138,0.0000
 1095,0.00000553,-0.00000102,0.00000893,0.00003541,0.00001652,-0.000034
 41,0.00001867,-0.00001952,0.00000183,-0.00000064,0.00000595,0.00000210
 ,0.00000085,0.00000652,0.00000017,0.00000113,0.00000301,0.00000030,0.0
 0000222,0.00000260,-0.00000424,0.00000191,-0.00000209,-0.00000084,0.00
 000391,-0.00000137,0.00000311,-0.00000632,0.00000859,-0.00000546,0.000
 00010,-0.00001217,-0.00005672,0.00007376,0.00039336,0.00184953,-0.0021
 6790,-0.00553473,0.05444941,-0.10572618,0.07487409,0.00004637,-0.00005
 446,-0.00000875,-0.00013201,0.00009581,0.00003628,-0.00017775,0.000129
 37,0.00022683,0.00010723,-0.00003756,-0.00004532,-0.00013132,0.0000383
 8,0.00003013,0.00006751,0.00010392,0.00001339,0.00001585,0.00012727,-0
 .00011961,0.00009331,0.00000827,-0.00006226,0.00002726,0.00007301,-0.0
 0000779,0.00000271,-0.00000644,0.00000297,-0.00067335,0.00032921,0.000
 18612,0.00103950,0.00126924,-0.00025722,-0.00057180,-0.00020745,-0.001
 19489,0.00022681,-0.00010524,0.00004899,-0.00002262,-0.00000798,0.0000
 0514,0.00003913,0.00002811,0.00002467,-0.00000040,-0.00000399,0.000018
 91,-0.00002603,-0.00009625,-0.00002232,0.00077555,-0.00275233,0.001046
 63,-0.00550203,0.00064070,-0.01456966,-0.04985230,-0.01936621,-0.05223
 579,-0.01009812,-0.01008512,-0.01954685,-0.00002154,-0.00001214,0.0000
 0246,0.00001969,0.00000368,-0.00001983,-0.00007445,0.00000499,-0.00000
 695,0.00008749,0.00027674,0.00000760,-0.00051758,-0.00084660,0.0007329
 5,0.00003736,0.00011591,-0.00003453,-0.00003497,0.00000599,0.00006250,
 -0.00005658,-0.00034094,-0.00031131,-0.00001166,0.00000777,0.00000635,
 0.00033699,0.00013889,0.00006443,0.00011733,-0.00016605,0.00010336,0.0
 0000651,-0.00003262,0.00003018,0.00000180,-0.00000092,0.00000019,0.000
 00075,0.00000364,-0.00000120,0.00000380,0.00000734,-0.00000437,-0.0000
 0053,0.00000778,-0.00000944,-0.00000666,0.00001564,-0.00000303,-0.0000
 1225,0.00000695,-0.00000140,-0.00000016,-0.00000671,0.00000598,-0.0000
 0567,0.00007981,0.00018098,-0.00088519,0.00038146,0.00104905,0.0004234
 2,0.00015828,0.00049073,0.06076471,0.00005096,-0.00000291,-0.00005002,
 0.00005342,-0.00006790,0.00001339,0.00023402,-0.00022040,-0.00025811,-
 0.00020210,-0.00008369,0.00001777,-0.00007253,0.00001023,-0.00000061,0
 .00006164,0.00002056,0.00002279,-0.00060508,-0.00021885,-0.00009736,-0
 .00016806,0.00031296,0.00013362,0.00019931,-0.00006476,-0.00007590,0.0
 0006621,0.00022247,0.00000007,0.00095132,-0.00068241,-0.00054935,-0.00
 033211,-0.00127224,0.00039316,-0.00104646,-0.00049293,0.00025861,0.000
 62550,0.00041192,-0.00013472,-0.00001193,-0.00004169,-0.00001753,-0.00
 001117,-0.00002503,-0.00000581,0.00005675,-0.00007231,-0.00002241,0.00
 019283,0.00018852,0.00023146,0.00089221,-0.00347229,0.00096450,0.00746
 401,0.00561540,0.02459626,-0.01818325,-0.06706330,-0.06962591,-0.00932
 279,-0.00840456,-0.02298727,0.00000370,-0.00000955,-0.00000780,-0.0000
 0626,-0.00003973,0.00002565,0.00004378,-0.00006105,-0.00001977,-0.0000
 3408,-0.00008288,-0.00041241,0.00062951,0.00050294,0.00027845,0.000241
 79,0.00010947,-0.00020132,0.00001560,0.00008770,0.00003752,-0.00010315
 ,-0.00004385,0.00005238,0.00000939,-0.00000634,-0.00000367,-0.00000788
 ,0.00002562,0.00002660,-0.00001531,0.00004818,-0.00013670,0.00000028,0
 .00000985,-0.00000561,0.00000301,-0.00000083,0.00000301,-0.00000497,0.
 00000046,0.00000043,-0.00000224,-0.00000068,0.00000268,0.00000730,-0.0
 0000513,0.00000821,-0.00000087,-0.00000486,-0.00000450,-0.00000346,0.0
 0001043,0.00000343,0.00001492,-0.00000886,-0.00001171,0.00010945,0.000
 01154,-0.00007557,-0.00091732,0.00060734,0.00138248,0.00020371,0.00014
 176,0.00099088,0.02020000,0.07773154,0.00000390,-0.00005289,0.00001385
 ,-0.00009674,0.00012484,0.00001534,-0.00018888,0.00011802,0.00018269,0
 .00009438,-0.00003396,-0.00003240,-0.00008251,0.00005712,0.00003720,0.
 00006317,0.00005865,0.00000039,0.00017976,0.00011527,0.00000080,0.0000
 3899,0.00013944,0.00001013,0.00006937,0.00004271,-0.00001746,-0.000012
 56,0.00002298,0.00000826,-0.00057053,0.00030660,0.00001033,0.00184960,
 0.00154617,0.00008513,-0.00115519,0.00034034,-0.00075221,0.00069195,-0
 .00056302,0.00005792,0.00000420,0.00002542,0.00000658,0.00003582,0.000
 03217,0.00003905,-0.00000116,-0.00000943,0.00002292,-0.00011353,-0.000
 28651,-0.00012030,0.00187913,-0.00042673,0.00060044,-0.00686386,0.0008
 7778,-0.01580031,-0.04906618,-0.06930390,-0.24349126,-0.00184238,-0.00
 156928,0.00566486,-0.00006089,-0.00005061,-0.00001317,0.00008042,0.000
 04250,0.00001193,-0.00024272,0.00003353,0.00004812,0.00006991,0.000777
 66,-0.00008377,-0.00126660,-0.00067714,0.00084591,0.00077069,-0.000383
 97,0.00006250,0.00017291,-0.00006570,-0.00001998,0.00008622,0.00022971
 ,-0.00000480,0.00000178,-0.00000100,-0.00004172,-0.00023630,0.00008108
 ,0.00001652,0.00003761,-0.00005466,0.00004143,0.00000273,0.00001274,0.
 00000484,0.00000314,0.00000496,-0.00000704,0.00000597,0.00000612,-0.00
 000262,0.00000387,0.00000887,-0.00000222,-0.00000186,0.00000954,-0.000
 00924,-0.00000710,0.00001682,-0.00000078,-0.00001131,0.00000658,-0.000
 00014,-0.00000296,-0.00000470,0.00001310,-0.00003452,0.00000685,0.0000
 5023,0.00015770,-0.00011697,-0.00039935,-0.00054698,-0.00057433,0.0000
 2190,0.05739699,0.07575077,0.26907016,-0.00000282,0.00006699,0.0000295
 6,0.00002024,-0.00003956,0.00002691,-0.00002693,-0.00006946,-0.0001104
 5,-0.00018444,-0.00003036,0.00003015,0.00000393,0.00001005,-0.00001182
 ,0.00002726,-0.00004781,-0.00000002,-0.00014711,0.00012856,-0.00008611
 ,-0.00029179,0.00042365,-0.00004383,0.00017651,-0.00010849,-0.00003928
 ,0.00002804,0.00018944,0.00000287,-0.00030898,-0.00030226,-0.00022080,
 0.00200000,0.00302913,0.00001105,-0.00131839,0.00021300,0.00051978,0.0
 0099353,-0.00028383,0.00015703,-0.00001240,-0.00000931,-0.00001161,0.0
 0000853,0.00004691,0.00005706,0.00002159,-0.00003957,-0.00001148,0.000
 05455,-0.00014408,-0.00003872,0.00103992,-0.00353988,0.00197347,-0.012
 85516,0.00584461,0.00109734,-0.23295530,0.07027125,0.08968250,-0.02208
 910,0.00142105,0.00666168,-0.00004976,-0.00004776,-0.00000930,0.000038
 83,-0.00002333,-0.00002347,-0.00012751,0.00001206,0.00010676,0.0000805
 7,0.00024505,0.00001855,-0.00087617,-0.00051184,-0.00044384,-0.0016992
 4,-0.00290130,0.00277225,-0.00005743,-0.00022618,-0.00022684,0.0004826
 7,-0.00024456,-0.00002655,-0.00000467,0.00000100,0.00011234,-0.0002651
 0,-0.00308007,0.00215483,-0.00013698,0.00007673,0.00000948,-0.00000935
 ,-0.00005977,-0.00004888,0.00000675,0.00000696,-0.00000530,-0.00000135
 ,0.00000606,-0.00000729,-0.00000109,0.00000275,-0.00000144,0.00000359,
 0.00000300,0.00000202,-0.00000503,0.00000284,0.00000263,-0.00000516,0.
 00000543,0.00000009,0.00000088,-0.00000711,0.00000738,0.00000713,-0.00
 002348,-0.00003633,-0.00035883,-0.00030174,-0.00110061,0.00094223,-0.0
 0049455,-0.00052477,0.00457388,-0.00127963,-0.00129547,0.26327945,0.00
 007960,-0.00000741,-0.00003777,-0.00008438,-0.00005757,-0.00001037,0.0
 0000784,0.00019004,0.00014052,0.00015006,-0.00002830,-0.00007189,-0.00
 007923,-0.00006716,-0.00001463,-0.00000035,0.00012489,0.00001918,-0.00
 001231,-0.00009534,-0.00010186,0.00013337,-0.00020799,-0.00002557,-0.0
 0014693,0.00005265,0.00000705,0.00005179,-0.00013940,-0.00000612,-0.00
 007524,0.00079305,0.00163292,-0.00006427,-0.00363123,0.00128111,0.0000
 9213,-0.00121352,0.00028320,-0.00013808,0.00093600,-0.00031863,-0.0000
 5839,-0.00006326,-0.00001137,-0.00003139,0.00003004,-0.00002121,0.0001
 3441,0.00004822,0.00000314,0.00007231,0.00054722,0.00013874,-0.0013864
 4,-0.00331467,0.00031670,0.02035722,-0.00603591,-0.01008852,0.06660597
 ,-0.06839356,-0.02738292,-0.02617278,0.00794144,0.01092958,0.00008317,
 0.00012508,0.00004491,-0.00013746,-0.00006439,-0.00003562,0.00007572,0
 .00008408,-0.00005996,0.00004137,-0.00012162,0.00004277,0.00077360,0.0
 0103691,-0.00017165,-0.00047875,-0.00217626,0.00045313,0.00005656,0.00
 019834,0.00006426,-0.00063359,0.00033162,-0.00010892,0.00000263,-0.000
 03344,0.00001775,-0.00183661,-0.00060430,0.00281316,0.00032994,-0.0005
 7713,0.00031198,0.00001154,0.00007769,0.00008219,0.00000332,0.00001310
 ,0.00000566,-0.00001908,-0.00000056,-0.00000125,-0.00000483,-0.0000021
 1,0.00000147,0.00000159,-0.00000520,0.00000557,0.00000215,-0.00000555,
 -0.00000551,0.00000297,-0.00000622,0.00000356,0.00001198,0.00000147,-0
 .00000275,0.00008866,0.00001137,0.00001689,-0.00024505,-0.00047712,-0.
 00163942,0.00075498,0.00075466,-0.00014064,0.00987084,-0.00361986,-0.0
 0662043,-0.06819059,0.07765119,-0.00000819,0.00001576,0.00001158,0.000
 06455,-0.00001804,-0.00002203,-0.00000373,-0.00009455,-0.00014609,-0.0
 0010059,-0.00003975,0.00005064,0.00003591,-0.00001576,-0.00000912,-0.0
 0002697,-0.00002373,0.00001129,-0.00010410,0.00004250,-0.00000415,-0.0
 0022598,0.00036862,-0.00000435,0.00013588,-0.00012135,0.00001098,-0.00
 002366,0.00013657,0.00000959,-0.00027537,-0.00047251,-0.00074435,-0.00
 015020,0.00289036,-0.00130737,-0.00085628,0.00057759,0.00031617,0.0004
 9693,-0.00046482,0.00017228,-0.00000054,0.00002017,0.00000137,0.000033
 73,-0.00000016,-0.00001874,0.00000180,-0.00003299,0.00004309,-0.000042
 74,-0.00024740,-0.00004082,0.00020909,0.00005453,0.00008356,-0.0171820
 5,0.00459457,0.00736522,0.08992807,-0.02871484,-0.08092841,-0.00112514
 ,-0.00070397,0.00017353,-0.00001159,0.00000648,-0.00000084,-0.00000410
 ,0.00000024,-0.00001638,-0.00002777,-0.00004590,0.00000739,0.00001406,
 0.00004440,0.00011636,0.00064021,-0.00131576,0.00013886,0.00075658,0.0
 0284112,-0.00143890,-0.00001558,-0.00009649,0.00010503,-0.00000404,-0.
 00016734,-0.00012038,0.00001060,0.00002009,-0.00002635,0.00224220,0.00
 280225,-0.00164114,-0.00011125,0.00021116,-0.00017560,0.00001246,-0.00
 001575,0.00000750,-0.00000141,-0.00000726,0.00000012,0.00000396,-0.000
 00159,0.00000326,0.00000113,-0.00000234,0.00000128,-0.00000234,-0.0000
 0026,0.00000162,0.00000113,-0.00000146,-0.00000129,0.00000181,0.000000
 49,-0.00000515,-0.00000863,-0.00000127,-0.00000320,-0.00001587,-0.0000
 5256,-0.00014800,-0.00010535,-0.00006912,0.00007877,0.00026619,0.00032
 857,0.00026178,0.02668871,-0.01049007,-0.01614378,-0.10111152,0.028261
 55,0.09397516\\-0.00000207,-0.00000626,-0.00000567,-0.00000727,0.00000
 573,-0.00000510,-0.00000084,-0.00000261,-0.00000355,-0.00000021,-0.000
 00203,-0.00000401,-0.00000275,-0.00000161,-0.00000254,-0.00000195,-0.0
 0000369,-0.00000157,0.00000425,-0.00000407,-0.00000141,0.00000090,-0.0
 0000272,0.00000093,0.00000085,-0.00000169,-0.00000093,-0.00000116,-0.0
 0000432,-0.00000273,-0.00000606,-0.00000236,0.00000885,0.00000525,0.00
 000037,0.00000047,0.00000023,0.00000027,0.00000134,0.00000386,0.000000
 75,-0.00000058,0.00000363,-0.00000035,-0.00000356,-0.00000803,0.000000
 30,-0.00000015,-0.00000975,0.00000112,0.00000049,0.00001255,-0.0000023
 5,-0.00000414,0.00000400,0.00000060,0.00000451,0.00000151,-0.00000019,
 0.00000552,0.00000080,0.00000659,-0.00000054,0.00000046,-0.00000004,0.
 00000571,0.00000233,0.00000299,-0.00000366,-0.00000543,0.00000674,0.00
 000231,-0.00000563,-0.00000405,-0.00000144,0.00000794,0.00000161,0.000
 00079,-0.00000232,0.00000063,0.00000075,0.00000147,0.00000331,0.000002
 80,0.00000110,0.00000295,-0.00000109,0.00000090,0.00000342,0.00000380,
 0.00000092,0.00000269,0.00000313,0.00000034,0.00000013,0.00000484,0.00
 000219,-0.00000217,-0.00000127,-0.00000117,0.00000326,0.00000209,-0.00
 000188,0.00000243,-0.00000080,-0.00000351,0.00000183,-0.00000312,-0.00
 000445,0.00000037,-0.00000425,-0.00000327,-0.00000154,-0.00000618,-0.0
 0000249,-0.00000318,-0.00000580,-0.00000012,-0.00000387,-0.00000300,0.
 00000112,-0.00000298,-0.00000045,0.00000290,-0.00000217,0.00000278,0.0
 0000371,0.00000002,0.00000501,0.00000306,0.00000172,0.00000490,0.00000
 038,0.00000154,0.00000424,0.00000374,0.00000290,0.00000228\\\@


 HE WHO LAUGHS LAST PROBABLY DIDN'T GET THE JOKE.
 Job cpu time:       1 days  0 hours 32 minutes 48.4 seconds.
 Elapsed time:       0 days  1 hours 13 minutes 51.3 seconds.
 File lengths (MBytes):  RWF=   2289 Int=      0 D2E=      0 Chk=     49 Scr=      1
 Normal termination of Gaussian 16 at Tue Jun 18 21:27:31 2019.
