 Entering Gaussian System, Link 0=/share/apps/gaussian16/g16/g16
 Initial command:
 /share/apps/gaussian16/g16/l1.exe "/home/amen01//scratch/541/Gau-14907.inp" -scrdir="/home/amen01//scratch/541/"
 Entering Link 1 = /share/apps/gaussian16/g16/l1.exe PID=     14908.
  
 Copyright (c) 1988-2017, Gaussian, Inc.  All Rights Reserved.
  
 This is part of the Gaussian(R) 16 program.  It is based on
 the Gaussian(R) 09 system (copyright 2009, Gaussian, Inc.),
 the Gaussian(R) 03 system (copyright 2003, Gaussian, Inc.),
 the Gaussian(R) 98 system (copyright 1998, Gaussian, Inc.),
 the Gaussian(R) 94 system (copyright 1995, Gaussian, Inc.),
 the Gaussian 92(TM) system (copyright 1992, Gaussian, Inc.),
 the Gaussian 90(TM) system (copyright 1990, Gaussian, Inc.),
 the Gaussian 88(TM) system (copyright 1988, Gaussian, Inc.),
 the Gaussian 86(TM) system (copyright 1986, Carnegie Mellon
 University), and the Gaussian 82(TM) system (copyright 1983,
 Carnegie Mellon University). Gaussian is a federally registered
 trademark of Gaussian, Inc.
  
 This software contains proprietary and confidential information,
 including trade secrets, belonging to Gaussian, Inc.
  
 This software is provided under written license and may be
 used, copied, transmitted, or stored only in accord with that
 written license.
  
 The following legend is applicable only to US Government
 contracts under FAR:
  
                    RESTRICTED RIGHTS LEGEND
  
 Use, reproduction and disclosure by the US Government is
 subject to restrictions as set forth in subparagraphs (a)
 and (c) of the Commercial Computer Software - Restricted
 Rights clause in FAR 52.227-19.
  
 Gaussian, Inc.
 340 Quinnipiac St., Bldg. 40, Wallingford CT 06492
  
  
 ---------------------------------------------------------------
 Warning -- This program may not be used in any manner that
 competes with the business of Gaussian, Inc. or will provide
 assistance to any competitor of Gaussian, Inc.  The licensee
 of this program is prohibited from giving any competitor of
 Gaussian, Inc. access to this program.  By using this program,
 the user acknowledges that Gaussian, Inc. is engaged in the
 business of creating and licensing software in the field of
 computational chemistry and represents and warrants to the
 licensee that it is not a competitor of Gaussian, Inc. and that
 it will not use this program in any manner prohibited above.
 ---------------------------------------------------------------
  

 Cite this work as:
 Gaussian 16, Revision B.01,
 M. J. Frisch, G. W. Trucks, H. B. Schlegel, G. E. Scuseria, 
 M. A. Robb, J. R. Cheeseman, G. Scalmani, V. Barone, 
 G. A. Petersson, H. Nakatsuji, X. Li, M. Caricato, A. V. Marenich, 
 J. Bloino, B. G. Janesko, R. Gomperts, B. Mennucci, H. P. Hratchian, 
 J. V. Ortiz, A. F. Izmaylov, J. L. Sonnenberg, D. Williams-Young, 
 F. Ding, F. Lipparini, F. Egidi, J. Goings, B. Peng, A. Petrone, 
 T. Henderson, D. Ranasinghe, V. G. Zakrzewski, J. Gao, N. Rega, 
 G. Zheng, W. Liang, M. Hada, M. Ehara, K. Toyota, R. Fukuda, 
 J. Hasegawa, M. Ishida, T. Nakajima, Y. Honda, O. Kitao, H. Nakai, 
 T. Vreven, K. Throssell, J. A. Montgomery, Jr., J. E. Peralta, 
 F. Ogliaro, M. J. Bearpark, J. J. Heyd, E. N. Brothers, K. N. Kudin, 
 V. N. Staroverov, T. A. Keith, R. Kobayashi, J. Normand, 
 K. Raghavachari, A. P. Rendell, J. C. Burant, S. S. Iyengar, 
 J. Tomasi, M. Cossi, J. M. Millam, M. Klene, C. Adamo, R. Cammi, 
 J. W. Ochterski, R. L. Martin, K. Morokuma, O. Farkas, 
 J. B. Foresman, and D. J. Fox, Gaussian, Inc., Wallingford CT, 2016.
 
 ******************************************
 Gaussian 16:  ES64L-G16RevB.01 20-Dec-2017
                18-Jun-2019 
 ******************************************
 %nprocshared=20
 Will use up to   20 processors via shared memory.
 %mem=100GB
 %chk=7-memb-carb-4b.chk
 -------------------------------------------
 # opt freq b3lyp/6-311+g(d,p) int=grid=fine
 -------------------------------------------
 1/18=20,19=15,26=3,38=1/1,3;
 2/9=110,12=2,17=6,18=5,40=1/2;
 3/5=4,6=6,7=111,11=2,25=1,30=1,71=1,74=-5,75=-4/1,2,3;
 4//1;
 5/5=2,38=5/2;
 6/7=2,8=2,9=2,10=2,28=1/1;
 7//1,2,3,16;
 1/18=20,19=15,26=3/3(2);
 2/9=110/2;
 99//99;
 2/9=110/2;
 3/5=4,6=6,7=111,11=2,25=1,30=1,71=1,74=-5,75=-4/1,2,3;
 4/5=5,16=3,69=1/1;
 5/5=2,38=5/2;
 7//1,2,3,16;
 1/18=20,19=15,26=3/3(-5);
 2/9=110/2;
 6/7=2,8=2,9=2,10=2,19=2,28=1/1;
 99/9=1/99;
 --------------
 7-memb-carb-4b
 --------------
 Symbolic Z-matrix:
 Charge =  0 Multiplicity = 1
 C                    -1.5943   -2.80544  -0.06631 
 C                    -1.43246  -1.46029   0.27462 
 C                    -2.53357  -0.59704   0.39416 
 C                    -3.84133  -0.95008   0.16801 
 C                    -2.97374  -3.23848  -0.19097 
 C                    -4.03824  -2.36403  -0.08469 
 C                    -2.04655   0.71871   0.43903 
 C                    -2.88965   1.81406   0.23131 
 C                    -4.29948   1.48008   0.12202 
 C                    -4.7525    0.17581   0.09112 
 C                    -0.64543   0.698     0.363 
 C                     0.03361   1.8879    0.10629 
 C                    -0.80448   3.06736  -0.09703 
 C                    -2.22077   3.02215  -0.0124 
 C                    -0.39282  -3.47458  -0.34195 
 C                     0.84829  -2.79246  -0.29697 
 C                     0.96298  -1.3588   -0.01873 
 C                    -0.24608  -0.71111   0.25916 
 C                    -0.16133   4.275    -0.49042 
 C                     1.46369   1.94034  -0.04771 
 C                     1.98451   3.13984  -0.48959 
 C                     1.18525   4.293    -0.71312 
 C                     2.05201  -3.51594  -0.52217 
 C                     3.25718  -2.89867  -0.38517 
 C                     3.36985  -1.5112   -0.05977 
 C                     2.23706  -0.6987    0.02349 
 C                     2.39884   0.79106   0.46782 
 C                     3.86705   1.26659   0.30755 
 C                     4.69709  -1.03672   0.32446 
 C                     4.9268    0.24986   0.58451 
 H                     5.9058    0.59507   0.90027 
 H                     4.02157   1.5871   -0.73182 
 H                     5.47951  -1.78055   0.43509 
 H                     4.17394  -3.4684   -0.49442 
 H                     1.99598  -4.5726   -0.76085 
 H                    -0.38537  -4.52596  -0.61274 
 H                    -3.1774   -4.27985  -0.41889 
 H                    -5.04272  -2.74603  -0.23644 
 H                    -5.81455  -0.00304  -0.04324 
 H                    -5.02052   2.28345   0.00965 
 H                    -2.77212   3.9334   -0.22285 
 H                    -0.76058   5.16688  -0.63927 
 H                     1.6714    5.20343  -1.0455 
 H                     3.04365   3.26056  -0.65487 
 H                     2.19079   0.75708   1.55147 
 H                     4.02181   2.15208   0.92693 
 

 GradGradGradGradGradGradGradGradGradGradGradGradGradGradGradGradGradGrad
 Berny optimization.
 Initialization pass.
                           ----------------------------
                           !    Initial Parameters    !
                           ! (Angstroms and Degrees)  !
 --------------------------                            --------------------------
 ! Name  Definition              Value          Derivative Info.                !
 --------------------------------------------------------------------------------
 ! R1    R(1,2)                  1.3971         estimate D2E/DX2                !
 ! R2    R(1,5)                  1.4512         estimate D2E/DX2                !
 ! R3    R(1,15)                 1.4026         estimate D2E/DX2                !
 ! R4    R(2,3)                  1.4043         estimate D2E/DX2                !
 ! R5    R(2,18)                 1.4032         estimate D2E/DX2                !
 ! R6    R(3,4)                  1.3733         estimate D2E/DX2                !
 ! R7    R(3,7)                  1.4037         estimate D2E/DX2                !
 ! R8    R(4,6)                  1.4498         estimate D2E/DX2                !
 ! R9    R(4,10)                 1.4504         estimate D2E/DX2                !
 ! R10   R(5,6)                  1.3817         estimate D2E/DX2                !
 ! R11   R(5,37)                 1.0853         estimate D2E/DX2                !
 ! R12   R(6,38)                 1.0853         estimate D2E/DX2                !
 ! R13   R(7,8)                  1.3978         estimate D2E/DX2                !
 ! R14   R(7,11)                 1.4033         estimate D2E/DX2                !
 ! R15   R(8,9)                  1.453          estimate D2E/DX2                !
 ! R16   R(8,14)                 1.4022         estimate D2E/DX2                !
 ! R17   R(9,10)                 1.381          estimate D2E/DX2                !
 ! R18   R(9,40)                 1.0853         estimate D2E/DX2                !
 ! R19   R(10,39)                1.0853         estimate D2E/DX2                !
 ! R20   R(11,12)                1.3939         estimate D2E/DX2                !
 ! R21   R(11,18)                1.4683         estimate D2E/DX2                !
 ! R22   R(12,13)                1.4611         estimate D2E/DX2                !
 ! R23   R(12,20)                1.4393         estimate D2E/DX2                !
 ! R24   R(13,14)                1.4195         estimate D2E/DX2                !
 ! R25   R(13,19)                1.4237         estimate D2E/DX2                !
 ! R26   R(14,41)                1.0857         estimate D2E/DX2                !
 ! R27   R(15,16)                1.4169         estimate D2E/DX2                !
 ! R28   R(15,36)                1.0857         estimate D2E/DX2                !
 ! R29   R(16,17)                1.4649         estimate D2E/DX2                !
 ! R30   R(16,23)                1.4224         estimate D2E/DX2                !
 ! R31   R(17,18)                1.3995         estimate D2E/DX2                !
 ! R32   R(17,26)                1.4355         estimate D2E/DX2                !
 ! R33   R(19,22)                1.365          estimate D2E/DX2                !
 ! R34   R(19,42)                1.0848         estimate D2E/DX2                !
 ! R35   R(20,21)                1.3803         estimate D2E/DX2                !
 ! R36   R(20,27)                1.5688         estimate D2E/DX2                !
 ! R37   R(21,22)                1.4208         estimate D2E/DX2                !
 ! R38   R(21,44)                1.0787         estimate D2E/DX2                !
 ! R39   R(22,43)                1.0843         estimate D2E/DX2                !
 ! R40   R(23,24)                1.361          estimate D2E/DX2                !
 ! R41   R(23,35)                1.0847         estimate D2E/DX2                !
 ! R42   R(24,25)                1.4296         estimate D2E/DX2                !
 ! R43   R(24,34)                1.0849         estimate D2E/DX2                !
 ! R44   R(25,26)                1.3965         estimate D2E/DX2                !
 ! R45   R(25,29)                1.4609         estimate D2E/DX2                !
 ! R46   R(26,27)                1.563          estimate D2E/DX2                !
 ! R47   R(27,28)                1.5516         estimate D2E/DX2                !
 ! R48   R(27,45)                1.104          estimate D2E/DX2                !
 ! R49   R(28,30)                1.4945         estimate D2E/DX2                !
 ! R50   R(28,32)                1.0986         estimate D2E/DX2                !
 ! R51   R(28,46)                1.0916         estimate D2E/DX2                !
 ! R52   R(29,30)                1.3325         estimate D2E/DX2                !
 ! R53   R(29,33)                1.0852         estimate D2E/DX2                !
 ! R54   R(30,31)                1.085          estimate D2E/DX2                !
 ! A1    A(2,1,5)              114.7332         estimate D2E/DX2                !
 ! A2    A(2,1,15)             114.083          estimate D2E/DX2                !
 ! A3    A(5,1,15)             130.9213         estimate D2E/DX2                !
 ! A4    A(1,2,3)              121.4544         estimate D2E/DX2                !
 ! A5    A(1,2,18)             127.5397         estimate D2E/DX2                !
 ! A6    A(3,2,18)             109.6143         estimate D2E/DX2                !
 ! A7    A(2,3,4)              125.0747         estimate D2E/DX2                !
 ! A8    A(2,3,7)              107.8714         estimate D2E/DX2                !
 ! A9    A(4,3,7)              125.2129         estimate D2E/DX2                !
 ! A10   A(3,4,6)              114.1268         estimate D2E/DX2                !
 ! A11   A(3,4,10)             114.0412         estimate D2E/DX2                !
 ! A12   A(6,4,10)             131.4898         estimate D2E/DX2                !
 ! A13   A(1,5,6)              122.471          estimate D2E/DX2                !
 ! A14   A(1,5,37)             118.8644         estimate D2E/DX2                !
 ! A15   A(6,5,37)             118.6102         estimate D2E/DX2                !
 ! A16   A(4,6,5)              121.7355         estimate D2E/DX2                !
 ! A17   A(4,6,38)             119.5604         estimate D2E/DX2                !
 ! A18   A(5,6,38)             118.6546         estimate D2E/DX2                !
 ! A19   A(3,7,8)              121.3668         estimate D2E/DX2                !
 ! A20   A(3,7,11)             109.3199         estimate D2E/DX2                !
 ! A21   A(8,7,11)             127.2818         estimate D2E/DX2                !
 ! A22   A(7,8,9)              114.602          estimate D2E/DX2                !
 ! A23   A(7,8,14)             114.4091         estimate D2E/DX2                !
 ! A24   A(9,8,14)             130.377          estimate D2E/DX2                !
 ! A25   A(8,9,10)             122.4833         estimate D2E/DX2                !
 ! A26   A(8,9,40)             118.8334         estimate D2E/DX2                !
 ! A27   A(10,9,40)            118.6086         estimate D2E/DX2                !
 ! A28   A(4,10,9)             121.7243         estimate D2E/DX2                !
 ! A29   A(4,10,39)            119.562          estimate D2E/DX2                !
 ! A30   A(9,10,39)            118.6447         estimate D2E/DX2                !
 ! A31   A(7,11,12)            118.9324         estimate D2E/DX2                !
 ! A32   A(7,11,18)            106.8311         estimate D2E/DX2                !
 ! A33   A(12,11,18)           132.356          estimate D2E/DX2                !
 ! A34   A(11,12,13)           115.8045         estimate D2E/DX2                !
 ! A35   A(11,12,20)           122.3339         estimate D2E/DX2                !
 ! A36   A(13,12,20)           121.71           estimate D2E/DX2                !
 ! A37   A(12,13,14)           122.5667         estimate D2E/DX2                !
 ! A38   A(12,13,19)           117.6505         estimate D2E/DX2                !
 ! A39   A(14,13,19)           119.6177         estimate D2E/DX2                !
 ! A40   A(8,14,13)            120.9118         estimate D2E/DX2                !
 ! A41   A(8,14,41)            120.9692         estimate D2E/DX2                !
 ! A42   A(13,14,41)           117.9306         estimate D2E/DX2                !
 ! A43   A(1,15,16)            120.9587         estimate D2E/DX2                !
 ! A44   A(1,15,36)            121.1229         estimate D2E/DX2                !
 ! A45   A(16,15,36)           117.9103         estimate D2E/DX2                !
 ! A46   A(15,16,17)           123.0759         estimate D2E/DX2                !
 ! A47   A(15,16,23)           119.4319         estimate D2E/DX2                !
 ! A48   A(17,16,23)           117.4912         estimate D2E/DX2                !
 ! A49   A(16,17,18)           115.0245         estimate D2E/DX2                !
 ! A50   A(16,17,26)           121.6744         estimate D2E/DX2                !
 ! A51   A(18,17,26)           123.2377         estimate D2E/DX2                !
 ! A52   A(2,18,11)            106.3587         estimate D2E/DX2                !
 ! A53   A(2,18,17)            119.047          estimate D2E/DX2                !
 ! A54   A(11,18,17)           133.8821         estimate D2E/DX2                !
 ! A55   A(13,19,22)           120.1277         estimate D2E/DX2                !
 ! A56   A(13,19,42)           119.0646         estimate D2E/DX2                !
 ! A57   A(22,19,42)           120.7803         estimate D2E/DX2                !
 ! A58   A(12,20,21)           116.1556         estimate D2E/DX2                !
 ! A59   A(12,20,27)           122.034          estimate D2E/DX2                !
 ! A60   A(21,20,27)           121.1245         estimate D2E/DX2                !
 ! A61   A(20,21,22)           122.917          estimate D2E/DX2                !
 ! A62   A(20,21,44)           121.1149         estimate D2E/DX2                !
 ! A63   A(22,21,44)           115.9384         estimate D2E/DX2                !
 ! A64   A(19,22,21)           121.2386         estimate D2E/DX2                !
 ! A65   A(19,22,43)           120.2244         estimate D2E/DX2                !
 ! A66   A(21,22,43)           118.5225         estimate D2E/DX2                !
 ! A67   A(16,23,24)           120.1834         estimate D2E/DX2                !
 ! A68   A(16,23,35)           119.1182         estimate D2E/DX2                !
 ! A69   A(24,23,35)           120.6445         estimate D2E/DX2                !
 ! A70   A(23,24,25)           122.2022         estimate D2E/DX2                !
 ! A71   A(23,24,34)           119.9978         estimate D2E/DX2                !
 ! A72   A(25,24,34)           117.7758         estimate D2E/DX2                !
 ! A73   A(24,25,26)           120.951          estimate D2E/DX2                !
 ! A74   A(24,25,29)           116.5315         estimate D2E/DX2                !
 ! A75   A(26,25,29)           122.1592         estimate D2E/DX2                !
 ! A76   A(17,26,25)           116.7843         estimate D2E/DX2                !
 ! A77   A(17,26,27)           122.5815         estimate D2E/DX2                !
 ! A78   A(25,26,27)           119.178          estimate D2E/DX2                !
 ! A79   A(20,27,26)           122.8976         estimate D2E/DX2                !
 ! A80   A(20,27,28)           107.7937         estimate D2E/DX2                !
 ! A81   A(20,27,45)           103.4609         estimate D2E/DX2                !
 ! A82   A(26,27,28)           111.1428         estimate D2E/DX2                !
 ! A83   A(26,27,45)           103.3092         estimate D2E/DX2                !
 ! A84   A(28,27,45)           106.8073         estimate D2E/DX2                !
 ! A85   A(27,28,30)           116.3178         estimate D2E/DX2                !
 ! A86   A(27,28,32)           108.6773         estimate D2E/DX2                !
 ! A87   A(27,28,46)           108.9138         estimate D2E/DX2                !
 ! A88   A(30,28,32)           105.9064         estimate D2E/DX2                !
 ! A89   A(30,28,46)           110.2528         estimate D2E/DX2                !
 ! A90   A(32,28,46)           106.2731         estimate D2E/DX2                !
 ! A91   A(25,29,30)           121.4339         estimate D2E/DX2                !
 ! A92   A(25,29,33)           117.3351         estimate D2E/DX2                !
 ! A93   A(30,29,33)           121.1712         estimate D2E/DX2                !
 ! A94   A(28,30,29)           119.8971         estimate D2E/DX2                !
 ! A95   A(28,30,31)           118.5087         estimate D2E/DX2                !
 ! A96   A(29,30,31)           121.2989         estimate D2E/DX2                !
 ! D1    D(5,1,2,3)             -3.9779         estimate D2E/DX2                !
 ! D2    D(5,1,2,18)          -169.0668         estimate D2E/DX2                !
 ! D3    D(15,1,2,3)           170.7889         estimate D2E/DX2                !
 ! D4    D(15,1,2,18)            5.7001         estimate D2E/DX2                !
 ! D5    D(2,1,5,6)              4.8766         estimate D2E/DX2                !
 ! D6    D(2,1,5,37)          -177.8437         estimate D2E/DX2                !
 ! D7    D(15,1,5,6)          -168.7965         estimate D2E/DX2                !
 ! D8    D(15,1,5,37)            8.4833         estimate D2E/DX2                !
 ! D9    D(2,1,15,16)           -1.4558         estimate D2E/DX2                !
 ! D10   D(2,1,15,36)          179.5987         estimate D2E/DX2                !
 ! D11   D(5,1,15,16)          172.2499         estimate D2E/DX2                !
 ! D12   D(5,1,15,36)           -6.6956         estimate D2E/DX2                !
 ! D13   D(1,2,3,4)             -1.6026         estimate D2E/DX2                !
 ! D14   D(1,2,3,7)           -166.7712         estimate D2E/DX2                !
 ! D15   D(18,2,3,4)           165.8876         estimate D2E/DX2                !
 ! D16   D(18,2,3,7)             0.719          estimate D2E/DX2                !
 ! D17   D(1,2,18,11)          165.978          estimate D2E/DX2                !
 ! D18   D(1,2,18,17)           -5.6657         estimate D2E/DX2                !
 ! D19   D(3,2,18,11)           -0.5464         estimate D2E/DX2                !
 ! D20   D(3,2,18,17)         -172.1901         estimate D2E/DX2                !
 ! D21   D(2,3,4,6)              6.0401         estimate D2E/DX2                !
 ! D22   D(2,3,4,10)          -168.0287         estimate D2E/DX2                !
 ! D23   D(7,3,4,6)            168.6914         estimate D2E/DX2                !
 ! D24   D(7,3,4,10)            -5.3774         estimate D2E/DX2                !
 ! D25   D(2,3,7,8)            164.2941         estimate D2E/DX2                !
 ! D26   D(2,3,7,11)            -0.6046         estimate D2E/DX2                !
 ! D27   D(4,3,7,8)             -0.8488         estimate D2E/DX2                !
 ! D28   D(4,3,7,11)          -165.7475         estimate D2E/DX2                !
 ! D29   D(3,4,6,5)             -4.9568         estimate D2E/DX2                !
 ! D30   D(3,4,6,38)           177.6365         estimate D2E/DX2                !
 ! D31   D(10,4,6,5)           167.8058         estimate D2E/DX2                !
 ! D32   D(10,4,6,38)           -9.601          estimate D2E/DX2                !
 ! D33   D(3,4,10,9)             5.6341         estimate D2E/DX2                !
 ! D34   D(3,4,10,39)         -177.4282         estimate D2E/DX2                !
 ! D35   D(6,4,10,9)          -167.1333         estimate D2E/DX2                !
 ! D36   D(6,4,10,39)            9.8044         estimate D2E/DX2                !
 ! D37   D(1,5,6,4)             -0.3839         estimate D2E/DX2                !
 ! D38   D(1,5,6,38)           177.0456         estimate D2E/DX2                !
 ! D39   D(37,5,6,4)          -177.6702         estimate D2E/DX2                !
 ! D40   D(37,5,6,38)           -0.2407         estimate D2E/DX2                !
 ! D41   D(3,7,8,9)              6.5883         estimate D2E/DX2                !
 ! D42   D(3,7,8,14)          -165.3914         estimate D2E/DX2                !
 ! D43   D(11,7,8,9)           168.5897         estimate D2E/DX2                !
 ! D44   D(11,7,8,14)           -3.3899         estimate D2E/DX2                !
 ! D45   D(3,7,11,12)          166.5509         estimate D2E/DX2                !
 ! D46   D(3,7,11,18)            0.2661         estimate D2E/DX2                !
 ! D47   D(8,7,11,12)            2.7859         estimate D2E/DX2                !
 ! D48   D(8,7,11,18)         -163.4988         estimate D2E/DX2                !
 ! D49   D(7,8,9,10)            -6.2057         estimate D2E/DX2                !
 ! D50   D(7,8,9,40)           176.9834         estimate D2E/DX2                !
 ! D51   D(14,8,9,10)          164.1935         estimate D2E/DX2                !
 ! D52   D(14,8,9,40)          -12.6173         estimate D2E/DX2                !
 ! D53   D(7,8,14,13)            2.8996         estimate D2E/DX2                !
 ! D54   D(7,8,14,41)          177.8088         estimate D2E/DX2                !
 ! D55   D(9,8,14,13)         -167.5145         estimate D2E/DX2                !
 ! D56   D(9,8,14,41)            7.3947         estimate D2E/DX2                !
 ! D57   D(8,9,10,4)             0.0711         estimate D2E/DX2                !
 ! D58   D(8,9,10,39)         -176.8938         estimate D2E/DX2                !
 ! D59   D(40,9,10,4)          176.8888         estimate D2E/DX2                !
 ! D60   D(40,9,10,39)          -0.0761         estimate D2E/DX2                !
 ! D61   D(7,11,12,13)          -1.4949         estimate D2E/DX2                !
 ! D62   D(7,11,12,20)        -177.0876         estimate D2E/DX2                !
 ! D63   D(18,11,12,13)        160.6204         estimate D2E/DX2                !
 ! D64   D(18,11,12,20)        -14.9723         estimate D2E/DX2                !
 ! D65   D(7,11,18,2)            0.1705         estimate D2E/DX2                !
 ! D66   D(7,11,18,17)         170.018          estimate D2E/DX2                !
 ! D67   D(12,11,18,2)        -163.5214         estimate D2E/DX2                !
 ! D68   D(12,11,18,17)          6.326          estimate D2E/DX2                !
 ! D69   D(11,12,13,14)          1.3064         estimate D2E/DX2                !
 ! D70   D(11,12,13,19)       -174.0001         estimate D2E/DX2                !
 ! D71   D(20,12,13,14)        176.9291         estimate D2E/DX2                !
 ! D72   D(20,12,13,19)          1.6226         estimate D2E/DX2                !
 ! D73   D(11,12,20,21)        170.8814         estimate D2E/DX2                !
 ! D74   D(11,12,20,27)        -18.5159         estimate D2E/DX2                !
 ! D75   D(13,12,20,21)         -4.4539         estimate D2E/DX2                !
 ! D76   D(13,12,20,27)        166.1487         estimate D2E/DX2                !
 ! D77   D(12,13,14,8)          -2.1211         estimate D2E/DX2                !
 ! D78   D(12,13,14,41)       -177.181          estimate D2E/DX2                !
 ! D79   D(19,13,14,8)         173.0963         estimate D2E/DX2                !
 ! D80   D(19,13,14,41)         -1.9635         estimate D2E/DX2                !
 ! D81   D(12,13,19,22)          2.4202         estimate D2E/DX2                !
 ! D82   D(12,13,19,42)       -179.4685         estimate D2E/DX2                !
 ! D83   D(14,13,19,22)       -173.0301         estimate D2E/DX2                !
 ! D84   D(14,13,19,42)          5.0812         estimate D2E/DX2                !
 ! D85   D(1,15,16,17)          -2.4848         estimate D2E/DX2                !
 ! D86   D(1,15,16,23)         177.1463         estimate D2E/DX2                !
 ! D87   D(36,15,16,17)        176.4937         estimate D2E/DX2                !
 ! D88   D(36,15,16,23)         -3.8752         estimate D2E/DX2                !
 ! D89   D(15,16,17,18)          2.6209         estimate D2E/DX2                !
 ! D90   D(15,16,17,26)        179.8131         estimate D2E/DX2                !
 ! D91   D(23,16,17,18)       -177.0168         estimate D2E/DX2                !
 ! D92   D(23,16,17,26)          0.1753         estimate D2E/DX2                !
 ! D93   D(15,16,23,24)       -175.1248         estimate D2E/DX2                !
 ! D94   D(15,16,23,35)          2.2233         estimate D2E/DX2                !
 ! D95   D(17,16,23,24)          4.5267         estimate D2E/DX2                !
 ! D96   D(17,16,23,35)       -178.1252         estimate D2E/DX2                !
 ! D97   D(16,17,18,2)           1.1319         estimate D2E/DX2                !
 ! D98   D(16,17,18,11)       -167.7129         estimate D2E/DX2                !
 ! D99   D(26,17,18,2)        -176.0111         estimate D2E/DX2                !
 ! D100  D(26,17,18,11)         15.1442         estimate D2E/DX2                !
 ! D101  D(16,17,26,25)         -7.1527         estimate D2E/DX2                !
 ! D102  D(16,17,26,27)       -173.2517         estimate D2E/DX2                !
 ! D103  D(18,17,26,25)        169.8052         estimate D2E/DX2                !
 ! D104  D(18,17,26,27)          3.7061         estimate D2E/DX2                !
 ! D105  D(13,19,22,21)         -3.4955         estimate D2E/DX2                !
 ! D106  D(13,19,22,43)        177.9084         estimate D2E/DX2                !
 ! D107  D(42,19,22,21)        178.426          estimate D2E/DX2                !
 ! D108  D(42,19,22,43)         -0.1701         estimate D2E/DX2                !
 ! D109  D(12,20,21,22)          3.4985         estimate D2E/DX2                !
 ! D110  D(12,20,21,44)       -178.5634         estimate D2E/DX2                !
 ! D111  D(27,20,21,22)       -167.1962         estimate D2E/DX2                !
 ! D112  D(27,20,21,44)         10.7419         estimate D2E/DX2                !
 ! D113  D(12,20,27,26)         56.27           estimate D2E/DX2                !
 ! D114  D(12,20,27,28)       -172.5238         estimate D2E/DX2                !
 ! D115  D(12,20,27,45)        -59.6266         estimate D2E/DX2                !
 ! D116  D(21,20,27,26)       -133.588          estimate D2E/DX2                !
 ! D117  D(21,20,27,28)         -2.3818         estimate D2E/DX2                !
 ! D118  D(21,20,27,45)        110.5154         estimate D2E/DX2                !
 ! D119  D(20,21,22,19)          0.4076         estimate D2E/DX2                !
 ! D120  D(20,21,22,43)        179.0271         estimate D2E/DX2                !
 ! D121  D(44,21,22,19)       -177.6294         estimate D2E/DX2                !
 ! D122  D(44,21,22,43)          0.99           estimate D2E/DX2                !
 ! D123  D(16,23,24,25)         -2.1349         estimate D2E/DX2                !
 ! D124  D(16,23,24,34)        176.0347         estimate D2E/DX2                !
 ! D125  D(35,23,24,25)       -179.4421         estimate D2E/DX2                !
 ! D126  D(35,23,24,34)         -1.2725         estimate D2E/DX2                !
 ! D127  D(23,24,25,26)         -5.3789         estimate D2E/DX2                !
 ! D128  D(23,24,25,29)        167.8935         estimate D2E/DX2                !
 ! D129  D(34,24,25,26)        176.4127         estimate D2E/DX2                !
 ! D130  D(34,24,25,29)        -10.3148         estimate D2E/DX2                !
 ! D131  D(24,25,26,17)          9.6802         estimate D2E/DX2                !
 ! D132  D(24,25,26,27)        176.2737         estimate D2E/DX2                !
 ! D133  D(29,25,26,17)       -163.208          estimate D2E/DX2                !
 ! D134  D(29,25,26,27)          3.3856         estimate D2E/DX2                !
 ! D135  D(24,25,29,30)        176.7091         estimate D2E/DX2                !
 ! D136  D(24,25,29,33)         -6.0715         estimate D2E/DX2                !
 ! D137  D(26,25,29,30)        -10.1066         estimate D2E/DX2                !
 ! D138  D(26,25,29,33)        167.1129         estimate D2E/DX2                !
 ! D139  D(17,26,27,20)        -45.6778         estimate D2E/DX2                !
 ! D140  D(17,26,27,28)       -175.4982         estimate D2E/DX2                !
 ! D141  D(17,26,27,45)         70.293          estimate D2E/DX2                !
 ! D142  D(25,26,27,20)        148.5417         estimate D2E/DX2                !
 ! D143  D(25,26,27,28)         18.7214         estimate D2E/DX2                !
 ! D144  D(25,26,27,45)        -95.4875         estimate D2E/DX2                !
 ! D145  D(20,27,28,30)       -172.6712         estimate D2E/DX2                !
 ! D146  D(20,27,28,32)        -53.3335         estimate D2E/DX2                !
 ! D147  D(20,27,28,46)         62.039          estimate D2E/DX2                !
 ! D148  D(26,27,28,30)        -35.3036         estimate D2E/DX2                !
 ! D149  D(26,27,28,32)         84.034          estimate D2E/DX2                !
 ! D150  D(26,27,28,46)       -160.5934         estimate D2E/DX2                !
 ! D151  D(45,27,28,30)         76.699          estimate D2E/DX2                !
 ! D152  D(45,27,28,32)       -163.9634         estimate D2E/DX2                !
 ! D153  D(45,27,28,46)        -48.5908         estimate D2E/DX2                !
 ! D154  D(27,28,30,29)         31.8795         estimate D2E/DX2                !
 ! D155  D(27,28,30,31)       -154.279          estimate D2E/DX2                !
 ! D156  D(32,28,30,29)        -88.9475         estimate D2E/DX2                !
 ! D157  D(32,28,30,31)         84.8941         estimate D2E/DX2                !
 ! D158  D(46,28,30,29)        156.4876         estimate D2E/DX2                !
 ! D159  D(46,28,30,31)        -29.6708         estimate D2E/DX2                !
 ! D160  D(25,29,30,28)         -8.3036         estimate D2E/DX2                !
 ! D161  D(25,29,30,31)        178.0305         estimate D2E/DX2                !
 ! D162  D(33,29,30,28)        174.5833         estimate D2E/DX2                !
 ! D163  D(33,29,30,31)          0.9174         estimate D2E/DX2                !
 --------------------------------------------------------------------------------
 Trust Radius=3.00D-01 FncErr=1.00D-07 GrdErr=1.00D-06 EigMax=2.50D+02 EigMin=1.00D-04
 Number of steps in this run=    276 maximum allowed number of steps=    276.
 GradGradGradGradGradGradGradGradGradGradGradGradGradGradGradGradGradGrad

                          Input orientation:                          
 ---------------------------------------------------------------------
 Center     Atomic      Atomic             Coordinates (Angstroms)
 Number     Number       Type             X           Y           Z
 ---------------------------------------------------------------------
      1          6           0       -1.594300   -2.805439   -0.066305
      2          6           0       -1.432457   -1.460287    0.274615
      3          6           0       -2.533571   -0.597042    0.394155
      4          6           0       -3.841328   -0.950083    0.168014
      5          6           0       -2.973744   -3.238482   -0.190969
      6          6           0       -4.038243   -2.364029   -0.084688
      7          6           0       -2.046551    0.718707    0.439031
      8          6           0       -2.889652    1.814064    0.231312
      9          6           0       -4.299485    1.480079    0.122024
     10          6           0       -4.752503    0.175813    0.091121
     11          6           0       -0.645432    0.697999    0.363004
     12          6           0        0.033612    1.887898    0.106288
     13          6           0       -0.804475    3.067358   -0.097028
     14          6           0       -2.220768    3.022152   -0.012399
     15          6           0       -0.392823   -3.474575   -0.341945
     16          6           0        0.848285   -2.792459   -0.296972
     17          6           0        0.962983   -1.358797   -0.018725
     18          6           0       -0.246079   -0.711107    0.259160
     19          6           0       -0.161329    4.275003   -0.490424
     20          6           0        1.463690    1.940338   -0.047709
     21          6           0        1.984509    3.139836   -0.489593
     22          6           0        1.185248    4.292999   -0.713118
     23          6           0        2.052009   -3.515942   -0.522174
     24          6           0        3.257181   -2.898668   -0.385165
     25          6           0        3.369854   -1.511204   -0.059773
     26          6           0        2.237058   -0.698702    0.023491
     27          6           0        2.398837    0.791060    0.467823
     28          6           0        3.867049    1.266592    0.307552
     29          6           0        4.697091   -1.036716    0.324464
     30          6           0        4.926801    0.249864    0.584512
     31          1           0        5.905800    0.595068    0.900272
     32          1           0        4.021574    1.587096   -0.731822
     33          1           0        5.479511   -1.780549    0.435093
     34          1           0        4.173942   -3.468404   -0.494418
     35          1           0        1.995978   -4.572599   -0.760849
     36          1           0       -0.385373   -4.525959   -0.612739
     37          1           0       -3.177395   -4.279850   -0.418894
     38          1           0       -5.042725   -2.746025   -0.236440
     39          1           0       -5.814548   -0.003036   -0.043235
     40          1           0       -5.020516    2.283451    0.009645
     41          1           0       -2.772119    3.933401   -0.222851
     42          1           0       -0.760576    5.166882   -0.639270
     43          1           0        1.671395    5.203425   -1.045498
     44          1           0        3.043650    3.260555   -0.654868
     45          1           0        2.190790    0.757081    1.551467
     46          1           0        4.021811    2.152076    0.926931
 ---------------------------------------------------------------------
                    Distance matrix (angstroms):
                    1          2          3          4          5
     1  C    0.000000
     2  C    1.397088   0.000000
     3  C    2.443618   1.404256   0.000000
     4  C    2.923420   2.464616   1.373319   0.000000
     5  C    1.451183   2.398815   2.741045   2.473528   0.000000
     6  C    2.483554   2.781361   2.369720   1.449785   1.381710
     7  C    3.588802   2.269837   1.403709   2.465671   4.112898
     8  C    4.806903   3.584225   2.442692   2.924073   5.070859
     9  C    5.071406   4.109609   2.739879   2.473401   4.911250
    10  C    4.345905   3.705833   2.369134   1.450446   3.860177
    11  C    3.654960   2.299004   2.289797   3.601104   4.606930
    12  C    4.970644   3.658966   3.584442   4.803447   5.950825
    13  C    5.925750   4.586071   4.081527   5.043070   6.669196
    14  C    5.861415   4.560271   3.655366   4.293881   6.308280
    15  C    1.402593   2.349115   3.661262   4.304103   2.596091
    16  C    2.453487   2.702439   4.090778   5.059944   3.849426
    17  C    2.938492   2.415467   3.602309   4.825280   4.365857
    18  C    2.511942   1.403211   2.294309   3.604335   3.745717
    19  C    7.236432   5.924070   5.490613   6.424753   8.028188
    20  C    5.645711   4.478371   4.755169   6.045187   6.821402
    21  C    6.952218   5.781073   5.929445   7.148445   8.084330
    22  C    7.650626   6.397523   6.242449   7.316609   8.619342
    23  C    3.742753   4.123359   5.512457   6.464628   5.044291
    24  C    4.862842   4.949440   6.279939   7.381858   6.243205
    25  C    5.130099   4.814208   5.991007   7.236566   6.575860
    26  C    4.373295   3.756117   4.786087   6.085298   5.800770
    27  C    5.400485   4.448000   5.124539   6.485455   6.748025
    28  C    6.822576   5.960010   6.666976   8.021982   8.206136
    29  C    6.546960   6.144368   7.244352   8.540292   7.997197
    30  C    7.230712   6.592482   7.510701   8.859652   8.671133
    31  H    8.291515   7.646303   8.538165   9.895969   9.733099
    32  H    7.160679   6.328184   7.000586   8.310969   8.515468
    33  H    7.165236   6.921244   8.100114   9.361573   8.600875
    34  H    5.821977   6.004636   7.350171   8.427652   7.157818
    35  H    4.061446   4.744770   6.136440   6.932500   5.177139
    36  H    2.172621   3.358888   4.589660   5.033894   2.921498
    37  H    2.191893   3.387580   3.826047   3.445666   1.085298
    38  H    3.453131   3.866308   3.363277   2.198260   2.127267
    39  H    5.066013   4.628966   3.362880   2.198891   4.308144
    40  H    6.135269   5.192297   3.824916   3.445476   5.892475
    41  H    6.842787   5.579788   4.578484   5.014419   7.174787
    42  H    8.036248   6.723539   6.118357   6.896376   8.703403
    43  H    8.704337   7.468712   7.307514   8.350353   9.673331
    44  H    7.658542   6.571592   6.861989   8.112307   8.869144
    45  H    5.443863   4.435650   5.049020   6.419875   6.758182
    46  H    7.556730   6.574475   7.128431   8.486949   8.902000
                    6          7          8          9         10
     6  C    0.000000
     7  C    3.707341   0.000000
     8  C    4.344603   1.397774   0.000000
     9  C    3.858516   2.399144   1.452969   0.000000
    10  C    2.644215   2.781717   2.484700   1.381047   0.000000
    11  C    4.592125   1.403333   2.509874   3.744573   4.149052
    12  C    5.890277   2.409316   2.926868   4.352275   5.083145
    13  C    6.321184   2.710401   2.454896   3.844806   4.897281
    14  C    5.685014   2.353720   1.402240   2.591741   3.810780
    15  C    3.819500   4.574752   5.876434   6.326600   5.702604
    16  C    4.909865   4.609779   5.955780   6.702960   6.350597
    17  C    5.101677   3.685493   4.997235   5.981020   5.918942
    18  C    4.151011   2.306170   3.655919   4.609794   4.595946
    19  C    7.698820   4.131003   3.744445   5.031007   6.182268
    20  C    6.985715   3.748478   4.364102   5.784015   6.463271
    21  C    8.168844   4.793084   5.102433   6.528204   7.383088
    22  C    8.485034   4.954547   4.862291   6.220312   7.270138
    23  C    6.213652   5.971127   7.307306   8.106583   7.765730
    24  C    7.321157   6.472579   7.770035   8.748364   8.592690
    25  C    7.457066   5.878669   7.093910   8.234050   8.297077
    26  C    6.493414   4.531118   5.713172   6.890805   7.044382
    27  C    7.189983   4.446070   5.391715   6.742540   7.187635
    28  C    8.707979   5.940381   6.779273   8.171430   8.690991
    29  C    8.845068   6.969314   8.105202   9.344176   9.529927
    30  C    9.362280   6.990609   7.979249   9.319425   9.692154
    31  H   10.421631   7.966675   8.904686  10.273108  10.697192
    32  H    8.999490   6.240764   6.981704   8.365437   8.924874
    33  H    9.549778   7.930189   9.110744  10.313024  10.423041
    34  H    8.296234   7.556306   8.850170   9.831910   9.659430
    35  H    6.461176   6.766068   8.102051   8.777655   8.295497
    36  H    4.277410   5.601094   6.868750   7.206431   6.455533
    37  H    2.126764   5.196192   6.135255   5.893086   4.753316
    38  H    1.085327   4.630085   5.064477   4.305910   2.954431
    39  H    2.954872   3.866690   3.454308   2.126583   1.085347
    40  H    4.751087   3.387811   2.193181   1.085321   2.126172
    41  H    6.424935   3.361368   2.170638   2.910425   4.259104
    42  H    8.231967   4.754232   4.065989   5.166814   6.432707
    43  H    9.528351   6.011626   5.824188   7.132869   8.236216
    44  H    9.061692   5.793768   6.171039   7.595741   8.417371
    45  H    7.156758   4.381101   5.354523   6.685036   7.118975
    46  H    9.294248   6.254407   6.954600   8.387099   9.032872
                   11         12         13         14         15
    11  C    0.000000
    12  C    1.393866   0.000000
    13  C    2.418840   1.461114   0.000000
    14  C    2.832719   2.526430   1.419539   0.000000
    15  C    4.239238   5.398044   6.559446   6.757029   0.000000
    16  C    3.853577   4.767814   6.091720   6.581016   1.416917
    17  C    2.638774   3.379406   4.766643   5.415628   2.533614
    18  C    1.468280   2.618477   3.836075   4.232064   2.831893
    19  C    3.709131   2.468266   1.423659   2.457526   7.754456
    20  C    2.482033   1.439301   2.533215   3.840156   5.731884
    21  C    3.688642   2.393412   2.817409   4.233901   7.030216
    22  C    4.175339   2.789660   2.416767   3.702297   7.934941
    23  C    5.081046   5.802618   7.188886   7.827079   2.451815
    24  C    5.359679   5.791730   7.223125   8.074837   3.695411
    25  C    4.602373   4.765709   6.195937   7.197820   4.253491
    26  C    3.220992   3.398901   4.842381   5.806742   3.841261
    27  C    3.047494   2.632119   3.970113   5.152585   5.161854
    28  C    4.548501   3.888672   5.022905   6.343964   6.406795
    29  C    5.617230   5.508993   6.876649   8.027743   5.682823
    30  C    5.594611   5.182196   6.422639   7.689579   6.559586
    31  H    6.574032   6.065015   7.220430   8.530229   7.601168
    32  H    4.875457   4.086166   5.087719   6.445447   6.727512
    33  H    6.607823   6.574453   7.954485   9.086280   6.160992
    34  H    6.428099   6.796554   8.225493   9.124252   4.569314
    35  H    6.001608   6.807410   8.164076   8.719023   2.662237
    36  H    5.320662   6.467620   7.622340   7.791217   1.085722
    37  H    5.639254   6.973342   7.727601   7.375609   2.899695
    38  H    5.617546   6.881853   7.195667   6.425379   4.707813
    39  H    5.232231   6.148086   5.876312   4.697656   6.444836
    40  H    4.666892   5.070504   4.289626   2.895644   7.395541
    41  H    3.915846   3.487770   2.153482   1.085658   7.781603
    42  H    4.581345   3.455188   2.168860   2.669269   8.654388
    43  H    5.258367   3.873198   3.404748   4.579757   8.947830
    44  H    4.605658   3.394683   3.893145   5.308832   7.567645
    45  H    3.075726   2.832085   4.126321   5.199814   5.307257
    46  H    4.920926   4.080316   5.017895   6.372532   7.263487
                   16         17         18         19         20
    16  C    0.000000
    17  C    1.464911   0.000000
    18  C    2.416390   1.399483   0.000000
    19  C    7.141832   5.764224   5.042852   0.000000
    20  C    4.779145   3.337041   3.169801   2.878775   0.000000
    21  C    6.043197   4.637125   4.512861   2.427597   1.380329
    22  C    7.105662   5.698630   5.294818   1.364986   2.460755
    23  C    1.422355   2.468342   3.709284   8.099302   5.508378
    24  C    2.412849   2.787261   4.180121   7.947254   5.171699
    25  C    2.838342   2.412041   3.717102   6.792268   3.942937
    26  C    2.532826   1.435540   2.494326   5.545639   2.750945
    27  C    3.978785   2.630645   3.048873   4.428380   1.568794
    28  C    5.094534   3.928451   4.564149   5.090691   2.521166
    29  C    4.275760   3.763652   4.954313   7.244491   4.410923
    30  C    5.164014   4.320132   5.271433   6.576192   3.905194
    31  H    6.203805   5.393847   6.321608   7.230907   4.737168
    32  H    5.425805   4.306016   4.947388   4.977931   2.671247
    33  H    4.796680   4.558821   5.827267   8.327387   5.495900
    34  H    3.399394   3.871303   5.263758   8.874398   6.066260
    35  H    2.168243   3.456349   4.580214   9.110827   6.573450
    36  H    2.150963   3.493112   3.915700   8.804663   6.749170
    37  H    4.293401   5.082855   4.667794   9.071234   7.769697
    38  H    5.891504   6.167684   5.233959   8.554962   8.020664
    39  H    7.227628   6.911846   5.621446   7.103554   7.533224
    40  H    7.765417   7.004929   5.641355   5.275230   6.493531
    41  H    7.638718   6.480742   5.308923   2.646604   4.684555
    42  H    8.127528   6.777921   5.968470   1.084758   3.963318
    43  H    8.072915   6.679736   6.352994   2.128133   3.418547
    44  H    6.448775   5.106101   5.237544   3.365715   2.146599
    45  H    4.221171   2.906880   3.124734   4.698676   2.118050
    46  H    6.001469   4.751518   5.182530   4.900446   2.745676
                   21         22         23         24         25
    21  C    0.000000
    22  C    1.420763   0.000000
    23  C    6.656200   7.859217   0.000000
    24  C    6.172044   7.491364   1.360970   0.000000
    25  C    4.871971   6.236035   2.443257   1.429556   0.000000
    26  C    3.880903   5.154219   2.875558   2.459167   1.396538
    27  C    2.570031   3.889858   4.432905   3.883096   2.553752
    28  C    2.772804   4.170487   5.182224   4.266285   2.845748
    29  C    5.046224   6.466489   3.722877   2.458410   1.460936
    30  C    4.261775   5.659506   4.865232   3.693394   2.437324
    31  H    4.876894   6.209777   5.811666   4.568777   3.433524
    32  H    2.572802   3.920077   5.473951   4.563611   3.236642
    33  H    6.105757   7.526425   3.959257   2.619497   2.183596
    34  H    6.961500   8.319826   2.122647   1.084890   2.160117
    35  H    7.717212   8.902718   1.084725   2.129276   3.428000
    36  H    8.024707   8.958289   2.639918   3.996006   4.847293
    37  H    9.038915   9.623563   5.285914   6.581229   7.117643
    38  H    9.170031   9.410777   7.142105   8.302642   8.504556
    39  H    8.420343   8.240255   8.628593   9.528792   9.307421
    40  H    7.074815   6.562940   9.161681   9.773971   9.208829
    41  H    4.829742   4.003801   8.880007   9.113505   8.209394
    42  H    3.415671   2.134328   9.127748   9.014435   7.873570
    43  H    2.159970   1.084293   8.743346   8.282190   6.995903
    44  H    1.078735   2.126733   6.849954   6.168822   4.819775
    45  H    3.144201   4.317659   4.751628   4.272263   3.021821
    46  H    2.670732   3.914001   6.173042   5.274113   3.849448
                   26         27         28         29         30
    26  C    0.000000
    27  C    1.563008   0.000000
    28  C    2.569035   1.551600   0.000000
    29  C    2.501320   2.939947   2.448363   0.000000
    30  C    2.906758   2.587878   1.494496   1.332546   0.000000
    31  H    3.987763   3.538957   2.226829   2.110747   1.085039
    32  H    2.996643   2.169354   1.098590   2.907998   2.083353
    33  H    3.442864   4.013078   3.449836   1.085222   2.109595
    34  H    3.419210   4.713803   4.812227   2.618656   3.944161
    35  H    3.959847   5.517315   6.224029   4.579998   5.801368
    36  H    4.682930   6.098371   7.244562   6.235752   7.243003
    37  H    6.506660   7.589121   8.995273   8.548569   9.338261
    38  H    7.566660   8.269450   9.786782   9.904563  10.442258
    39  H    8.081879   8.267494   9.770789  10.568739  10.762649
    40  H    7.846388   7.581818   8.950506  10.273972  10.169320
    41  H    6.827072   6.090166   7.174381   8.988366   8.572844
    42  H    6.620433   5.509570   6.125655   8.318626   7.617149
    43  H    6.024767   4.721046   4.706410   7.069016   6.147550
    44  H    4.097130   2.788301   2.362229   4.707387   3.761194
    45  H    2.110961   1.103958   2.148667   3.317347   2.945849
    46  H    3.482597   2.167300   1.091633   3.314719   2.134167
                   31         32         33         34         35
    31  H    0.000000
    32  H    2.682938   0.000000
    33  H    2.457981   3.850754   0.000000
    34  H    4.632094   5.063364   2.327521   0.000000
    35  H    6.689605   6.484267   4.621777   2.456371   0.000000
    36  H    8.251847   7.536896   6.559885   4.681856   2.386408
    37  H   10.392760   9.292154   9.050846   7.396371   5.192921
    38  H   11.503270  10.058969  10.587755   9.248531   7.290728
    39  H   11.773466   9.987591  11.443082  10.582168   9.077455
    40  H   11.091809   9.099125  11.267106  10.857070   9.840237
    41  H    9.365477   7.205447  10.058405  10.154222   9.766075
    42  H    8.228745   5.974311   9.399986   9.946789  10.122789
    43  H    6.553866   4.324300   8.091340   9.042513   9.785552
    44  H    4.208941   1.939774   5.703873   6.825115   7.903616
    45  H    3.775129   3.042056   4.301342   5.096397   5.812938
    46  H    2.444258   1.752331   4.222835   5.799411   7.223147
                   36         37         38         39         40
    36  H    0.000000
    37  H    2.809543   0.000000
    38  H    5.000069   2.421851   0.000000
    39  H    7.089225   5.038535   2.856051   0.000000
    40  H    8.260749   6.830641   5.035542   2.421013   0.000000
    41  H    8.798258   8.225580   7.054826   4.978370   2.798514
    42  H    9.700136   9.753478   9.006285   7.254374   5.184820
    43  H    9.953818  10.669391  10.436845   9.173391   7.377076
    44  H    8.508218   9.778282  10.081842   9.460063   8.150281
    45  H    6.263459   7.620394   8.233596   8.197944   7.530601
    46  H    8.148006   9.747281  10.368734  10.116308   9.089684
                   41         42         43         44         45
    41  H    0.000000
    42  H    2.396077   0.000000
    43  H    4.694095   2.465936   0.000000
    44  H    5.870479   4.255169   2.410481   0.000000
    45  H    6.153672   5.740752   5.175324   3.444222   0.000000
    46  H    7.117064   5.866282   4.327316   2.165090   2.385098
                   46
    46  H    0.000000
 Stoichiometry    C30H16
 Framework group  C1[X(C30H16)]
 Deg. of freedom   132
 Full point group                 C1      NOp   1
 Largest Abelian subgroup         C1      NOp   1
 Largest concise Abelian subgroup C1      NOp   1
                         Standard orientation:                         
 ---------------------------------------------------------------------
 Center     Atomic      Atomic             Coordinates (Angstroms)
 Number     Number       Type             X           Y           Z
 ---------------------------------------------------------------------
      1          6           0       -1.594300   -2.805439   -0.066305
      2          6           0       -1.432457   -1.460287    0.274615
      3          6           0       -2.533571   -0.597042    0.394155
      4          6           0       -3.841328   -0.950083    0.168014
      5          6           0       -2.973744   -3.238482   -0.190969
      6          6           0       -4.038243   -2.364029   -0.084688
      7          6           0       -2.046551    0.718707    0.439031
      8          6           0       -2.889652    1.814064    0.231312
      9          6           0       -4.299485    1.480079    0.122024
     10          6           0       -4.752503    0.175813    0.091121
     11          6           0       -0.645432    0.697999    0.363004
     12          6           0        0.033612    1.887898    0.106288
     13          6           0       -0.804475    3.067358   -0.097028
     14          6           0       -2.220768    3.022152   -0.012399
     15          6           0       -0.392823   -3.474575   -0.341945
     16          6           0        0.848285   -2.792459   -0.296972
     17          6           0        0.962983   -1.358797   -0.018725
     18          6           0       -0.246079   -0.711107    0.259160
     19          6           0       -0.161329    4.275003   -0.490424
     20          6           0        1.463690    1.940338   -0.047709
     21          6           0        1.984509    3.139836   -0.489593
     22          6           0        1.185248    4.292999   -0.713118
     23          6           0        2.052009   -3.515942   -0.522174
     24          6           0        3.257181   -2.898668   -0.385165
     25          6           0        3.369854   -1.511204   -0.059773
     26          6           0        2.237058   -0.698702    0.023491
     27          6           0        2.398837    0.791060    0.467823
     28          6           0        3.867049    1.266592    0.307552
     29          6           0        4.697091   -1.036716    0.324464
     30          6           0        4.926801    0.249864    0.584512
     31          1           0        5.905800    0.595068    0.900272
     32          1           0        4.021574    1.587096   -0.731822
     33          1           0        5.479511   -1.780549    0.435093
     34          1           0        4.173942   -3.468404   -0.494418
     35          1           0        1.995978   -4.572599   -0.760849
     36          1           0       -0.385373   -4.525959   -0.612739
     37          1           0       -3.177395   -4.279850   -0.418894
     38          1           0       -5.042725   -2.746025   -0.236440
     39          1           0       -5.814548   -0.003036   -0.043235
     40          1           0       -5.020516    2.283451    0.009645
     41          1           0       -2.772119    3.933401   -0.222851
     42          1           0       -0.760576    5.166882   -0.639270
     43          1           0        1.671395    5.203425   -1.045498
     44          1           0        3.043650    3.260555   -0.654868
     45          1           0        2.190790    0.757081    1.551467
     46          1           0        4.021811    2.152076    0.926931
 ---------------------------------------------------------------------
 Rotational constants (GHZ):           0.2420119           0.1740239           0.1031479
 Standard basis: 6-311+G(d,p) (5D, 7F)
 There are   786 symmetry adapted cartesian basis functions of A   symmetry.
 There are   756 symmetry adapted basis functions of A   symmetry.
   756 basis functions,  1208 primitive gaussians,   786 cartesian basis functions
    98 alpha electrons       98 beta electrons
       nuclear repulsion energy      2628.1487407693 Hartrees.
 NAtoms=   46 NActive=   46 NUniq=   46 SFac= 1.00D+00 NAtFMM=   60 NAOKFM=F Big=F
 Integral buffers will be    131072 words long.
 Raffenetti 2 integral format.
 Two-electron integral symmetry is turned on.
 One-electron integrals computed using PRISM.
 NBasis=   756 RedAO= T EigKep=  1.11D-06  NBF=   756
 NBsUse=   735 1.00D-06 EigRej=  9.67D-07 NBFU=   735
 ExpMin= 4.38D-02 ExpMax= 4.56D+03 ExpMxC= 6.82D+02 IAcc=2 IRadAn=         4 AccDes= 0.00D+00
 Harris functional with IExCor=  402 and IRadAn=       4 diagonalized for initial guess.
 HarFok:  IExCor=  402 AccDes= 0.00D+00 IRadAn=         4 IDoV= 1 UseB2=F ITyADJ=14
 ICtDFT=  3500011 ScaDFX=  1.000000  1.000000  1.000000  1.000000
 FoFCou: FMM=F IPFlag=           0 FMFlag=      100000 FMFlg1=           0
         NFxFlg=           0 DoJE=T BraDBF=F KetDBF=T FulRan=T
         wScrn=  0.000000 ICntrl=       500 IOpCl=  0 I1Cent=   200000004 NGrid=           0
         NMat0=    1 NMatS0=      1 NMatT0=    0 NMatD0=    1 NMtDS0=    0 NMtDT0=    0
 Petite list used in FoFCou.
 Requested convergence on RMS density matrix=1.00D-08 within 128 cycles.
 Requested convergence on MAX density matrix=1.00D-06.
 Requested convergence on             energy=1.00D-06.
 No special actions if energy rises.
 SCF Done:  E(RB3LYP) =  -1153.10126301     A.U. after   16 cycles
            NFock= 16  Conv=0.83D-08     -V/T= 2.0045

 **********************************************************************

            Population analysis using the SCF Density.

 **********************************************************************

 Orbital symmetries:
       Occupied  (A) (A) (A) (A) (A) (A) (A) (A) (A) (A) (A) (A)
                 (A) (A) (A) (A) (A) (A) (A) (A) (A) (A) (A) (A)
                 (A) (A) (A) (A) (A) (A) (A) (A) (A) (A) (A) (A)
                 (A) (A) (A) (A) (A) (A) (A) (A) (A) (A) (A) (A)
                 (A) (A) (A) (A) (A) (A) (A) (A) (A) (A) (A) (A)
                 (A) (A) (A) (A) (A) (A) (A) (A) (A) (A) (A) (A)
                 (A) (A) (A) (A) (A) (A) (A) (A) (A) (A) (A) (A)
                 (A) (A) (A) (A) (A) (A) (A) (A) (A) (A) (A) (A)
                 (A) (A)
       Virtual   (A) (A) (A) (A) (A) (A) (A) (A) (A) (A) (A) (A)
                 (A) (A) (A) (A) (A) (A) (A) (A) (A) (A) (A) (A)
                 (A) (A) (A) (A) (A) (A) (A) (A) (A) (A) (A) (A)
                 (A) (A) (A) (A) (A) (A) (A) (A) (A) (A) (A) (A)
                 (A) (A) (A) (A) (A) (A) (A) (A) (A) (A) (A) (A)
                 (A) (A) (A) (A) (A) (A) (A) (A) (A) (A) (A) (A)
                 (A) (A) (A) (A) (A) (A) (A) (A) (A) (A) (A) (A)
                 (A) (A) (A) (A) (A) (A) (A) (A) (A) (A) (A) (A)
                 (A) (A) (A) (A) (A) (A) (A) (A) (A) (A) (A) (A)
                 (A) (A) (A) (A) (A) (A) (A) (A) (A) (A) (A) (A)
                 (A) (A) (A) (A) (A) (A) (A) (A) (A) (A) (A) (A)
                 (A) (A) (A) (A) (A) (A) (A) (A) (A) (A) (A) (A)
                 (A) (A) (A) (A) (A) (A) (A) (A) (A) (A) (A) (A)
                 (A) (A) (A) (A) (A) (A) (A) (A) (A) (A) (A) (A)
                 (A) (A) (A) (A) (A) (A) (A) (A) (A) (A) (A) (A)
                 (A) (A) (A) (A) (A) (A) (A) (A) (A) (A) (A) (A)
                 (A) (A) (A) (A) (A) (A) (A) (A) (A) (A) (A) (A)
                 (A) (A) (A) (A) (A) (A) (A) (A) (A) (A) (A) (A)
                 (A) (A) (A) (A) (A) (A) (A) (A) (A) (A) (A) (A)
                 (A) (A) (A) (A) (A) (A) (A) (A) (A) (A) (A) (A)
                 (A) (A) (A) (A) (A) (A) (A) (A) (A) (A) (A) (A)
                 (A) (A) (A) (A) (A) (A) (A) (A) (A) (A) (A) (A)
                 (A) (A) (A) (A) (A) (A) (A) (A) (A) (A) (A) (A)
                 (A) (A) (A) (A) (A) (A) (A) (A) (A) (A) (A) (A)
                 (A) (A) (A) (A) (A) (A) (A) (A) (A) (A) (A) (A)
                 (A) (A) (A) (A) (A) (A) (A) (A) (A) (A) (A) (A)
                 (A) (A) (A) (A) (A) (A) (A) (A) (A) (A) (A) (A)
                 (A) (A) (A) (A) (A) (A) (A) (A) (A) (A) (A) (A)
                 (A) (A) (A) (A) (A) (A) (A) (A) (A) (A) (A) (A)
                 (A) (A) (A) (A) (A) (A) (A) (A) (A) (A) (A) (A)
                 (A) (A) (A) (A) (A) (A) (A) (A) (A) (A) (A) (A)
                 (A) (A) (A) (A) (A) (A) (A) (A) (A) (A) (A) (A)
                 (A) (A) (A) (A) (A) (A) (A) (A) (A) (A) (A) (A)
                 (A) (A) (A) (A) (A) (A) (A) (A) (A) (A) (A) (A)
                 (A) (A) (A) (A) (A) (A) (A) (A) (A) (A) (A) (A)
                 (A) (A) (A) (A) (A) (A) (A) (A) (A) (A) (A) (A)
                 (A) (A) (A) (A) (A) (A) (A) (A) (A) (A) (A) (A)
                 (A) (A) (A) (A) (A) (A) (A) (A) (A) (A) (A) (A)
                 (A) (A) (A) (A) (A) (A) (A) (A) (A) (A) (A) (A)
                 (A) (A) (A) (A) (A) (A) (A) (A) (A) (A) (A) (A)
                 (A) (A) (A) (A) (A) (A) (A) (A) (A) (A) (A) (A)
                 (A) (A) (A) (A) (A) (A) (A) (A) (A) (A) (A) (A)
                 (A) (A) (A) (A) (A) (A) (A) (A) (A) (A) (A) (A)
                 (A) (A) (A) (A) (A) (A) (A) (A) (A) (A) (A) (A)
                 (A) (A) (A) (A) (A) (A) (A) (A) (A) (A) (A) (A)
                 (A) (A) (A) (A) (A) (A) (A) (A) (A) (A) (A) (A)
                 (A) (A) (A) (A) (A) (A) (A) (A) (A) (A) (A) (A)
                 (A) (A) (A) (A) (A) (A) (A) (A) (A) (A) (A) (A)
                 (A) (A) (A) (A) (A) (A) (A) (A) (A) (A) (A) (A)
                 (A) (A) (A) (A) (A) (A) (A) (A) (A) (A) (A) (A)
                 (A) (A) (A) (A) (A) (A) (A) (A) (A) (A) (A) (A)
                 (A) (A) (A) (A) (A) (A) (A) (A) (A) (A) (A) (A)
                 (A) (A) (A) (A) (A) (A) (A) (A) (A) (A) (A) (A)
                 (A)
 The electronic state is 1-A.
 Alpha  occ. eigenvalues --  -10.20801 -10.19861 -10.19834 -10.19787 -10.19604
 Alpha  occ. eigenvalues --  -10.19582 -10.19569 -10.19539 -10.19188 -10.19149
 Alpha  occ. eigenvalues --  -10.19108 -10.19108 -10.19065 -10.19036 -10.19020
 Alpha  occ. eigenvalues --  -10.18899 -10.18891 -10.18261 -10.18226 -10.18193
 Alpha  occ. eigenvalues --  -10.18089 -10.18088 -10.18027 -10.18027 -10.17896
 Alpha  occ. eigenvalues --  -10.17861 -10.17586 -10.16682 -10.16576 -10.16563
 Alpha  occ. eigenvalues --   -0.92068  -0.88324  -0.87904  -0.84919  -0.84010
 Alpha  occ. eigenvalues --   -0.83162  -0.80268  -0.79576  -0.78169  -0.77238
 Alpha  occ. eigenvalues --   -0.75155  -0.74580  -0.72589  -0.71319  -0.70670
 Alpha  occ. eigenvalues --   -0.66539  -0.65662  -0.64000  -0.63410  -0.62606
 Alpha  occ. eigenvalues --   -0.59812  -0.59084  -0.58022  -0.56593  -0.56165
 Alpha  occ. eigenvalues --   -0.52797  -0.52015  -0.51328  -0.50795  -0.49803
 Alpha  occ. eigenvalues --   -0.48908  -0.47568  -0.47308  -0.46553  -0.45283
 Alpha  occ. eigenvalues --   -0.45078  -0.44280  -0.43562  -0.43449  -0.43271
 Alpha  occ. eigenvalues --   -0.42339  -0.42262  -0.40773  -0.40364  -0.40307
 Alpha  occ. eigenvalues --   -0.39931  -0.39646  -0.39387  -0.38507  -0.37338
 Alpha  occ. eigenvalues --   -0.36698  -0.35674  -0.35282  -0.35145  -0.34401
 Alpha  occ. eigenvalues --   -0.34113  -0.33905  -0.33198  -0.32435  -0.31487
 Alpha  occ. eigenvalues --   -0.29992  -0.28264  -0.27086  -0.26723  -0.24305
 Alpha  occ. eigenvalues --   -0.22413  -0.21107  -0.19747
 Alpha virt. eigenvalues --   -0.10036  -0.05841  -0.03706  -0.03440  -0.01399
 Alpha virt. eigenvalues --   -0.00492   0.00143   0.00594   0.00650   0.01348
 Alpha virt. eigenvalues --    0.01569   0.01636   0.02168   0.02495   0.02891
 Alpha virt. eigenvalues --    0.03084   0.03512   0.04027   0.04291   0.04617
 Alpha virt. eigenvalues --    0.04830   0.05050   0.05694   0.05985   0.06578
 Alpha virt. eigenvalues --    0.06652   0.07070   0.07388   0.07890   0.08205
 Alpha virt. eigenvalues --    0.08350   0.08670   0.09021   0.09067   0.09988
 Alpha virt. eigenvalues --    0.10032   0.10151   0.10720   0.10822   0.11251
 Alpha virt. eigenvalues --    0.11616   0.11876   0.12309   0.12454   0.13006
 Alpha virt. eigenvalues --    0.13320   0.13965   0.14459   0.14648   0.14827
 Alpha virt. eigenvalues --    0.15218   0.15262   0.15455   0.15911   0.15939
 Alpha virt. eigenvalues --    0.16220   0.16363   0.16530   0.16718   0.16846
 Alpha virt. eigenvalues --    0.17131   0.17381   0.17511   0.17761   0.17942
 Alpha virt. eigenvalues --    0.18082   0.18216   0.18713   0.19073   0.19225
 Alpha virt. eigenvalues --    0.19508   0.19745   0.19853   0.20045   0.20301
 Alpha virt. eigenvalues --    0.20440   0.20595   0.20876   0.21051   0.21276
 Alpha virt. eigenvalues --    0.21334   0.21754   0.22001   0.22183   0.22294
 Alpha virt. eigenvalues --    0.22609   0.22668   0.22889   0.23337   0.23603
 Alpha virt. eigenvalues --    0.23681   0.23957   0.24393   0.24559   0.24696
 Alpha virt. eigenvalues --    0.24880   0.25255   0.25416   0.25497   0.25822
 Alpha virt. eigenvalues --    0.26101   0.26241   0.26492   0.26821   0.26983
 Alpha virt. eigenvalues --    0.27065   0.27507   0.27601   0.27869   0.28112
 Alpha virt. eigenvalues --    0.28684   0.29093   0.29267   0.29394   0.29716
 Alpha virt. eigenvalues --    0.29941   0.30402   0.30758   0.30827   0.31122
 Alpha virt. eigenvalues --    0.31344   0.31412   0.31911   0.32021   0.32368
 Alpha virt. eigenvalues --    0.32816   0.33237   0.33329   0.33744   0.34037
 Alpha virt. eigenvalues --    0.34596   0.34852   0.35139   0.35649   0.36175
 Alpha virt. eigenvalues --    0.36341   0.36985   0.37248   0.37423   0.38004
 Alpha virt. eigenvalues --    0.38483   0.38938   0.39219   0.39312   0.39894
 Alpha virt. eigenvalues --    0.40646   0.41208   0.41606   0.42019   0.42590
 Alpha virt. eigenvalues --    0.42885   0.43383   0.43861   0.45423   0.45503
 Alpha virt. eigenvalues --    0.46324   0.46910   0.46969   0.48018   0.48701
 Alpha virt. eigenvalues --    0.49417   0.50340   0.51232   0.51574   0.52135
 Alpha virt. eigenvalues --    0.52702   0.53046   0.53551   0.53787   0.54265
 Alpha virt. eigenvalues --    0.54366   0.54519   0.55020   0.55296   0.55910
 Alpha virt. eigenvalues --    0.56181   0.56566   0.56773   0.57932   0.58128
 Alpha virt. eigenvalues --    0.58222   0.58704   0.58901   0.59428   0.59847
 Alpha virt. eigenvalues --    0.59947   0.60119   0.60465   0.60797   0.61126
 Alpha virt. eigenvalues --    0.61666   0.62079   0.62548   0.62752   0.63659
 Alpha virt. eigenvalues --    0.64156   0.64721   0.65315   0.65496   0.65873
 Alpha virt. eigenvalues --    0.66190   0.66625   0.66989   0.67164   0.68283
 Alpha virt. eigenvalues --    0.68916   0.69031   0.69792   0.69830   0.70569
 Alpha virt. eigenvalues --    0.70873   0.70981   0.71367   0.71607   0.71722
 Alpha virt. eigenvalues --    0.72105   0.72502   0.72791   0.73077   0.73431
 Alpha virt. eigenvalues --    0.73582   0.73774   0.74419   0.74906   0.75175
 Alpha virt. eigenvalues --    0.75943   0.76179   0.76186   0.76384   0.76866
 Alpha virt. eigenvalues --    0.77145   0.77596   0.77960   0.78431   0.78804
 Alpha virt. eigenvalues --    0.79309   0.80248   0.80886   0.82682   0.83279
 Alpha virt. eigenvalues --    0.83523   0.84190   0.84812   0.85324   0.85922
 Alpha virt. eigenvalues --    0.86802   0.87073   0.87659   0.88043   0.88689
 Alpha virt. eigenvalues --    0.89247   0.89537   0.89906   0.90362   0.90579
 Alpha virt. eigenvalues --    0.91098   0.91639   0.91939   0.92486   0.92853
 Alpha virt. eigenvalues --    0.93100   0.93608   0.93965   0.94233   0.94928
 Alpha virt. eigenvalues --    0.95048   0.95407   0.95586   0.96259   0.96667
 Alpha virt. eigenvalues --    0.96811   0.97497   0.98044   0.98447   0.99068
 Alpha virt. eigenvalues --    0.99315   0.99538   1.00281   1.01459   1.02303
 Alpha virt. eigenvalues --    1.02541   1.03385   1.04123   1.04625   1.05207
 Alpha virt. eigenvalues --    1.05472   1.05894   1.06829   1.07210   1.07873
 Alpha virt. eigenvalues --    1.08723   1.09417   1.09611   1.10031   1.10430
 Alpha virt. eigenvalues --    1.11399   1.12125   1.13655   1.14244   1.14741
 Alpha virt. eigenvalues --    1.16145   1.17214   1.18103   1.19144   1.19882
 Alpha virt. eigenvalues --    1.20971   1.21080   1.23095   1.23586   1.25631
 Alpha virt. eigenvalues --    1.26388   1.27256   1.28814   1.29901   1.31254
 Alpha virt. eigenvalues --    1.33610   1.33805   1.35075   1.36294   1.37491
 Alpha virt. eigenvalues --    1.37669   1.38622   1.40415   1.40771   1.41449
 Alpha virt. eigenvalues --    1.43246   1.44117   1.45047   1.45486   1.45710
 Alpha virt. eigenvalues --    1.46290   1.46729   1.47837   1.48849   1.49559
 Alpha virt. eigenvalues --    1.50209   1.50503   1.50804   1.51071   1.51568
 Alpha virt. eigenvalues --    1.52683   1.53019   1.53317   1.53938   1.54351
 Alpha virt. eigenvalues --    1.54982   1.55460   1.56045   1.57149   1.57771
 Alpha virt. eigenvalues --    1.58134   1.59189   1.59759   1.60900   1.61288
 Alpha virt. eigenvalues --    1.62054   1.62576   1.63232   1.64088   1.64288
 Alpha virt. eigenvalues --    1.64705   1.66309   1.66451   1.67063   1.68467
 Alpha virt. eigenvalues --    1.69221   1.69648   1.70522   1.71724   1.72571
 Alpha virt. eigenvalues --    1.73122   1.73583   1.73830   1.74078   1.74828
 Alpha virt. eigenvalues --    1.75426   1.76427   1.77015   1.77448   1.77701
 Alpha virt. eigenvalues --    1.78829   1.79201   1.80426   1.81195   1.81785
 Alpha virt. eigenvalues --    1.82225   1.83521   1.84246   1.85144   1.85548
 Alpha virt. eigenvalues --    1.86019   1.86576   1.87031   1.87157   1.87802
 Alpha virt. eigenvalues --    1.89200   1.89312   1.89828   1.90278   1.91045
 Alpha virt. eigenvalues --    1.91545   1.92554   1.92910   1.93581   1.94464
 Alpha virt. eigenvalues --    1.94670   1.95028   1.95620   1.96523   1.97236
 Alpha virt. eigenvalues --    1.97599   1.98687   1.99603   2.00342   2.01090
 Alpha virt. eigenvalues --    2.02732   2.02771   2.03745   2.04014   2.05039
 Alpha virt. eigenvalues --    2.05838   2.06528   2.07376   2.08262   2.09399
 Alpha virt. eigenvalues --    2.09534   2.10487   2.10659   2.12359   2.13286
 Alpha virt. eigenvalues --    2.13541   2.13904   2.15392   2.16633   2.17554
 Alpha virt. eigenvalues --    2.18102   2.19103   2.20333   2.20686   2.21148
 Alpha virt. eigenvalues --    2.21727   2.22798   2.23744   2.24161   2.25028
 Alpha virt. eigenvalues --    2.26034   2.26261   2.27993   2.29627   2.31294
 Alpha virt. eigenvalues --    2.32983   2.33004   2.33703   2.35616   2.36647
 Alpha virt. eigenvalues --    2.37860   2.39100   2.40803   2.41459   2.42130
 Alpha virt. eigenvalues --    2.42791   2.43472   2.44578   2.46658   2.48303
 Alpha virt. eigenvalues --    2.49042   2.50277   2.51083   2.53510   2.55118
 Alpha virt. eigenvalues --    2.56313   2.57089   2.57774   2.58318   2.59147
 Alpha virt. eigenvalues --    2.60307   2.62165   2.62697   2.63496   2.64157
 Alpha virt. eigenvalues --    2.65053   2.66554   2.67149   2.68815   2.70328
 Alpha virt. eigenvalues --    2.70701   2.71211   2.71739   2.72062   2.72235
 Alpha virt. eigenvalues --    2.73069   2.73427   2.74137   2.74723   2.75103
 Alpha virt. eigenvalues --    2.75879   2.76156   2.76399   2.76994   2.77376
 Alpha virt. eigenvalues --    2.77844   2.78095   2.78614   2.78868   2.79223
 Alpha virt. eigenvalues --    2.80011   2.80804   2.81290   2.81931   2.82496
 Alpha virt. eigenvalues --    2.83746   2.84532   2.86207   2.86977   2.87618
 Alpha virt. eigenvalues --    2.88068   2.88997   2.89763   2.90123   2.91262
 Alpha virt. eigenvalues --    2.92950   2.93728   2.94083   2.95252   2.97272
 Alpha virt. eigenvalues --    2.98377   2.98792   2.99858   3.01985   3.02943
 Alpha virt. eigenvalues --    3.04186   3.04566   3.07102   3.08033   3.11757
 Alpha virt. eigenvalues --    3.12418   3.13681   3.13812   3.15446   3.17498
 Alpha virt. eigenvalues --    3.18112   3.19417   3.20039   3.22205   3.22426
 Alpha virt. eigenvalues --    3.22823   3.24695   3.25004   3.25637   3.28348
 Alpha virt. eigenvalues --    3.29403   3.31604   3.34197   3.35743   3.37004
 Alpha virt. eigenvalues --    3.38593   3.39090   3.41032   3.41278   3.42854
 Alpha virt. eigenvalues --    3.43523   3.44600   3.46292   3.47241   3.49351
 Alpha virt. eigenvalues --    3.50155   3.51059   3.55320   3.56342   3.57611
 Alpha virt. eigenvalues --    3.59039   3.60927   3.61818   3.63084   3.66720
 Alpha virt. eigenvalues --    3.69245   3.73944   3.76385   3.82581   3.83658
 Alpha virt. eigenvalues --    3.84545   3.87749   3.94595   3.98934   4.03174
 Alpha virt. eigenvalues --    4.04543   4.05834   4.06988   4.07686   4.09872
 Alpha virt. eigenvalues --    4.12395   4.15874   4.20297   4.24410   4.27719
 Alpha virt. eigenvalues --    4.32188   4.38205   4.49425   4.58849   4.65712
 Alpha virt. eigenvalues --    4.72080   4.76251   4.76847   4.80812   4.81465
 Alpha virt. eigenvalues --    4.86117   4.89740  23.40545  23.62488  23.67951
 Alpha virt. eigenvalues --   23.77560  23.80878  23.83046  23.84332  23.86797
 Alpha virt. eigenvalues --   23.87746  23.89004  23.92413  23.93627  23.93796
 Alpha virt. eigenvalues --   23.94574  23.98956  23.99916  24.03016  24.05265
 Alpha virt. eigenvalues --   24.06388  24.07640  24.08970  24.11690  24.12186
 Alpha virt. eigenvalues --   24.12704  24.12876  24.15973  24.19761  24.19895
 Alpha virt. eigenvalues --   24.20631  24.27539
          Condensed to atoms (all electrons):
               1          2          3          4          5          6
     1  C   11.739729   1.270701  -0.251848   0.462867  -2.290115  -0.643295
     2  C    1.270701   7.604563   0.225589  -0.033975  -0.488339   0.857770
     3  C   -0.251848   0.225589   9.337954   1.890933   1.507648  -1.763348
     4  C    0.462867  -0.033975   1.890933  11.059948  -0.583775  -1.562550
     5  C   -2.290115  -0.488339   1.507648  -0.583775  11.329450   0.468188
     6  C   -0.643295   0.857770  -1.763348  -1.562550   0.468188  10.240189
     7  C   -0.812546  -0.514469  -0.302416  -0.358580   0.342513  -0.639295
     8  C   -0.217265  -0.195801  -0.617581  -0.170022  -0.025840   0.217911
     9  C    0.438662  -0.063831   2.142844  -0.205538  -0.267771  -0.796635
    10  C   -0.646725  -0.676643  -1.663005  -1.949502  -0.400710   0.167065
    11  C   -1.116843  -0.815770  -1.198853  -0.330899  -0.180963  -0.070468
    12  C   -0.202162  -0.344407  -0.631498  -0.173518  -0.148523   0.037353
    13  C    0.344559  -0.031077  -0.106906  -0.006312  -0.073221  -0.139329
    14  C   -0.077557  -0.343655  -0.742993  -0.374541  -0.075523   0.054240
    15  C    0.924675   0.324024  -0.295254  -0.484056  -0.577811  -0.125670
    16  C   -0.722068  -0.164633  -0.269416  -0.338601  -0.490184  -0.278517
    17  C   -0.514294   0.125286  -0.294749  -0.088312  -0.761422   0.272000
    18  C    0.389380   0.127296  -0.733812  -0.153000  -1.187304   0.022256
    19  C    0.125537   0.213045   0.363966  -0.070484  -0.047580   0.002626
    20  C    0.182003  -0.019755  -0.060306  -0.040444   0.141520  -0.129004
    21  C   -0.091463   0.054069   0.057702  -0.011116   0.040489  -0.045880
    22  C   -0.070988  -0.198497  -0.214201  -0.026618   0.009304  -0.000839
    23  C   -1.005903  -0.676911  -0.054689  -0.177313  -0.192067  -0.134752
    24  C    0.018145  -0.263323  -0.076762  -0.006800  -0.261908  -0.007662
    25  C   -0.332423   0.044506   0.276454  -0.058256   0.055707  -0.087660
    26  C   -0.805486  -0.282662  -0.304688  -0.032573   0.009219  -0.046310
    27  C   -0.196489  -0.106679  -0.437376  -0.061982  -0.128553   0.016778
    28  C    0.061639   0.106520  -0.039899   0.010864   0.003484  -0.000039
    29  C   -0.045496  -0.086557  -0.006524  -0.014747   0.042438  -0.009853
    30  C    0.005694   0.079285   0.020872   0.006994  -0.020628   0.001598
    31  H    0.000018   0.000028  -0.000014  -0.000002   0.000003  -0.000001
    32  H   -0.000538  -0.001599  -0.000398  -0.000015  -0.000004   0.000002
    33  H    0.000682   0.000080   0.000055   0.000004   0.000041   0.000002
    34  H    0.002111   0.001306   0.000138   0.000001   0.000264  -0.000018
    35  H    0.037723   0.005308   0.001419   0.000233   0.006493   0.000380
    36  H   -0.030869   0.015884  -0.001442   0.007564   0.025736   0.002930
    37  H   -0.072420   0.033108  -0.017970  -0.048103   0.374105  -0.001952
    38  H   -0.011654  -0.004823   0.030966  -0.087090   0.002733   0.370132
    39  H    0.009834  -0.005823   0.036864  -0.055158   0.008951   0.011728
    40  H   -0.000380  -0.003475  -0.025892  -0.043391  -0.001496   0.006680
    41  H    0.000526   0.004173   0.001591   0.009313   0.000158  -0.000422
    42  H   -0.000065  -0.000717   0.000935   0.000146  -0.000000   0.000032
    43  H    0.000012   0.000195   0.000142  -0.000021   0.000000  -0.000002
    44  H    0.000028  -0.000074  -0.000332   0.000043  -0.000007   0.000008
    45  H   -0.002741  -0.006899  -0.006329  -0.000035   0.000016   0.000325
    46  H    0.000164   0.000027   0.000194   0.000003   0.000009  -0.000003
               7          8          9         10         11         12
     1  C   -0.812546  -0.217265   0.438662  -0.646725  -1.116843  -0.202162
     2  C   -0.514469  -0.195801  -0.063831  -0.676643  -0.815770  -0.344407
     3  C   -0.302416  -0.617581   2.142844  -1.663005  -1.198853  -0.631498
     4  C   -0.358580  -0.170022  -0.205538  -1.949502  -0.330899  -0.173518
     5  C    0.342513  -0.025840  -0.267771  -0.400710  -0.180963  -0.148523
     6  C   -0.639295   0.217911  -0.796635   0.167065  -0.070468   0.037353
     7  C    8.973635   1.176374  -1.671805   1.726838   0.931643   0.315892
     8  C    1.176374  11.187980  -2.015483  -0.608156   0.708453  -0.899552
     9  C   -1.671805  -2.015483  12.032734   0.090318  -1.904482  -1.082488
    10  C    1.726838  -0.608156   0.090318  10.201995   0.480836   0.353214
    11  C    0.931643   0.708453  -1.904482   0.480836   9.501785   1.208102
    12  C    0.315892  -0.899552  -1.082488   0.353214   1.208102   8.659225
    13  C   -0.793778  -1.630195   0.259785  -0.486252  -0.657890  -0.485993
    14  C    0.268125   1.394880  -1.284908   0.112544   1.290467   0.781345
    15  C   -0.044688  -0.088796  -0.078163  -0.060339   0.347503   0.117103
    16  C   -0.411314   0.035979   0.043444  -0.307891  -1.176873  -0.374543
    17  C   -0.411438  -0.157414  -0.212651  -0.002303   0.802998   0.616052
    18  C   -0.703156  -0.371898  -0.281191  -0.099441   0.163565   0.819662
    19  C   -1.467707  -0.936597   0.563026  -0.280220  -0.809344  -0.754458
    20  C   -0.006280  -0.721226   0.147929  -0.004366  -0.723261   1.496478
    21  C    0.526516  -0.068952   0.128158  -0.029797  -0.945334  -1.756940
    22  C    0.019053  -0.239337  -0.282403   0.032427   0.091740   0.394826
    23  C   -0.074385   0.029199  -0.007083  -0.019568   0.266457  -0.005359
    24  C   -0.074212   0.011567  -0.002726   0.002938   0.189826   0.192099
    25  C    0.262787  -0.009541  -0.008373  -0.008067  -0.679173  -0.404167
    26  C   -0.080452   0.034285   0.034495  -0.039365   0.059371  -0.928017
    27  C   -0.595763  -0.010840   0.031045   0.012411   1.227003  -0.664162
    28  C    0.043556  -0.050524   0.021073  -0.017841  -0.367751   0.242624
    29  C    0.028107  -0.012444  -0.004162   0.002398   0.029650  -0.253874
    30  C   -0.012685   0.010883   0.007271  -0.003427  -0.098799   0.252212
[...]
 02749,0.00001321,0.00000285,-0.00000928,-0.00003592,0.00000070,-0.0000
 0768,0.00000928,-0.00000478,-0.00000861,-0.00000435,0.00004777,0.00000
 010,-0.00000106,-0.00000240,0.00000260,0.00000743,0.00000272,0.0000001
 1,-0.00000237,-0.00000035,0.00000113,-0.00000136,-0.00000265,0.0000007
 1,-0.00000400,-0.00000039,-0.00000413,-0.00000361,0.00000041,-0.000009
 48,-0.00002188,-0.00000186,-0.00000848,0.00001066,-0.00000551,-0.00003
 054,0.00006804,0.00004970,0.00084123,0.00010470,-0.00100088,0.11822826
 ,0.00000896,-0.00002490,-0.00000445,-0.00003237,0.00000904,0.00001503,
 -0.00001732,-0.00008064,-0.00000599,0.00000956,-0.00000940,-0.00000091
 ,0.00002428,0.00000557,0.00000269,-0.00000765,0.00002066,-0.00000064,0
 .00017549,-0.00001010,0.00001413,-0.00005699,0.00013554,-0.00023408,0.
 00000990,-0.00002096,-0.00003297,-0.00003036,0.00001982,0.00001950,-0.
 00020869,-0.00004906,-0.00005942,0.00079426,0.00029902,-0.00041313,0.0
 0098179,0.00213091,0.00179725,-0.00008805,-0.00004690,0.00014182,-0.00
 000998,-0.00001600,-0.00000459,-0.00001127,-0.00000347,-0.00000275,0.0
 0002656,-0.00005138,-0.00002664,-0.00000882,0.00006175,-0.00000029,0.0
 0164405,0.00307374,-0.00009978,0.00394765,-0.00170159,0.00155906,-0.01
 314665,-0.01730866,0.00738347,-0.10319918,-0.25152213,0.07684615,0.000
 00723,-0.00002906,-0.00000498,0.00001270,0.00001392,-0.00002195,-0.000
 06922,-0.00011758,-0.00004636,0.00023496,0.00005868,0.00027808,-0.0007
 9734,-0.00057478,0.00010181,-0.00013236,-0.00007480,-0.00007162,-0.000
 01946,0.00001173,0.00000704,0.00002564,0.00004138,0.00001701,0.0000329
 3,-0.00002069,0.00001517,0.00000133,-0.00000632,-0.00000723,0.00000904
 ,-0.00001147,0.00000518,0.00000693,-0.00001995,-0.00000315,-0.00000355
 ,-0.00000749,0.00000168,-0.00000181,-0.00000608,-0.00000170,-0.0000012
 5,-0.00000603,-0.00000178,-0.00000631,-0.00000188,-0.00000045,-0.00000
 616,-0.00000229,0.00000502,-0.00000738,0.00000502,-0.00000082,-0.00001
 151,0.00001318,0.00005868,-0.00055542,0.00039827,-0.00146149,0.1102764
 0,0.26491735,0.00000719,-0.00003005,-0.00000107,0.00002626,0.00003629,
 0.00000180,-0.00005453,-0.00006809,0.00000264,0.00004794,-0.00001082,-
 0.00000512,-0.00001383,0.00000347,0.00000024,0.00000702,-0.00000899,-0
 .00001013,0.00007154,0.00005668,0.00011658,0.00016789,-0.00007795,-0.0
 0075814,-0.00003690,-0.00003047,-0.00010342,0.00001309,0.00004047,0.00
 006500,-0.00010014,-0.00004376,-0.00051848,-0.00008997,-0.00050438,-0.
 00055081,0.00203898,0.00117030,0.00837573,-0.00001630,0.00049525,0.000
 22219,-0.00001331,0.00001555,0.00000513,0.00001086,-0.00001882,-0.0000
 0296,-0.00002881,0.00000319,0.00000483,-0.00000480,-0.00006986,0.00004
 023,0.00146056,0.00498875,0.00239107,-0.00051638,0.00120480,0.00416725
 ,0.00220036,0.00365334,0.00107248,0.04159989,0.07631011,-0.06390973,-0
 .00001535,0.00000078,0.00000206,-0.00000699,0.00001992,-0.00000514,-0.
 00001610,0.00002220,0.00001591,-0.00003457,0.00005111,-0.00003618,0.00
 017181,0.00005043,0.00014735,-0.00001700,0.00007735,-0.00006662,0.0000
 2398,0.00002145,0.00000976,0.00000908,-0.00003224,-0.00000278,-0.00001
 120,0.00000609,0.00000124,0.00003692,-0.00004652,0.00003356,-0.0000021
 6,0.00000198,0.00000158,-0.00000235,0.00000365,0.00000374,-0.00000078,
 0.00000102,0.00000247,-0.00000043,0.00000202,0.00000105,0.00000109,0.0
 0000281,-0.00000242,0.00000201,0.00000016,0.00000329,-0.00000107,0.000
 00482,0.00001780,0.00000425,-0.00000175,0.00000110,0.00000875,0.000034
 91,0.00020569,-0.00078444,-0.00155141,-0.00461508,-0.04570418,-0.08489
 977,0.05593860,0.00002355,0.00002009,-0.00000015,-0.00001130,-0.000081
 49,-0.00000938,-0.00011775,-0.00000079,-0.00000411,0.00003891,-0.00002
 578,0.00001703,-0.00003550,-0.00002878,-0.00000981,0.00002473,-0.00001
 341,-0.00000446,0.00013247,-0.00030820,-0.00008000,0.00004746,0.000086
 96,-0.00002303,-0.00000115,-0.00000964,0.00002489,-0.00000028,0.000009
 27,-0.00000674,-0.00068013,0.00036444,0.00012819,0.00130954,-0.0015357
 6,0.00141201,0.00062487,0.00011846,-0.00030539,-0.00013631,-0.00002588
 ,-0.00004358,-0.00002275,-0.00001858,-0.00000327,0.00003702,-0.0000276
 7,-0.00001407,-0.00001489,-0.00001643,-0.00002689,-0.00000536,0.000032
 52,0.00004209,0.00001154,0.00342410,-0.00036975,-0.00902680,-0.0016862
 9,0.00228018,-0.33141781,-0.03272601,0.04599442,-0.01458575,-0.0034041
 0,0.00320755,-0.00004293,-0.00001071,-0.00000411,0.00006031,0.00005743
 ,0.00001164,-0.00023598,-0.00012890,-0.00018146,0.00011908,-0.00022356
 ,0.00021145,-0.00177577,0.00039343,-0.00072663,-0.00235420,0.00489044,
 -0.00288013,-0.00020985,0.00035286,0.00009800,0.00084256,0.00066885,-0
 .00039412,-0.00000232,-0.00004379,0.00000358,-0.00110285,0.00236648,-0
 .00107034,-0.00002206,0.00006572,0.00014675,0.00001071,-0.00001710,0.0
 0000292,0.00000126,-0.00000164,-0.00000008,0.00000099,-0.00000370,-0.0
 0000027,-0.00000036,-0.00000391,0.00000174,-0.00000524,-0.00000828,0.0
 0000142,-0.00000658,-0.00000292,-0.00000332,-0.00000336,0.00000336,-0.
 00000191,0.00001228,0.00000811,0.00000658,-0.00072058,-0.00015718,0.00
 021247,0.00097958,0.00008052,-0.00044947,0.35888514,0.00016434,0.00000
 995,-0.00001039,-0.00009048,-0.00011212,-0.00002709,-0.00013104,0.0000
 1353,-0.00001897,-0.00009942,0.00013059,0.00004798,-0.00015362,-0.0000
 2414,-0.00000708,0.00008524,-0.00010657,-0.00000947,-0.00009543,-0.000
 39608,-0.00035249,-0.00017394,-0.00026471,0.00011509,0.00018423,0.0001
 1760,0.00005078,0.00000242,-0.00020099,-0.00000860,-0.00131463,0.00090
 598,0.00005456,-0.00061004,-0.00442812,0.00425421,-0.00044227,-0.00071
 811,0.00006231,0.00041533,0.00019857,-0.00026440,-0.00012302,-0.000033
 23,0.00000280,0.00011983,0.00002474,-0.00000104,-0.00027190,0.00000393
 ,0.00002635,0.00008179,0.00013123,0.00007309,0.00246218,-0.00349486,0.
 00207344,-0.02681408,0.00277740,0.00336208,-0.03175213,-0.05768727,0.0
 1046979,0.02737312,0.00421560,-0.00329124,-0.00003024,0.00005276,0.000
 00450,0.00010861,-0.00001539,0.00001398,-0.00003081,-0.00016232,-0.000
 13008,0.00043949,-0.00009389,0.00016726,-0.00022881,0.00042309,-0.0017
 8289,0.00107421,-0.00285152,0.00251165,-0.00038392,0.00018156,-0.00016
 185,0.00054008,-0.00011311,-0.00014376,-0.00011564,0.00007217,0.000018
 85,0.00230798,-0.00265607,-0.00048187,0.00001246,0.00006505,0.00005531
 ,-0.00000355,-0.00001420,-0.00000265,0.00000901,0.00000692,0.00000431,
 0.00000575,0.00000585,-0.00000263,0.00000077,-0.00000103,0.00000335,-0
 .00000231,-0.00001217,-0.00000297,-0.00000076,-0.00000502,-0.00000844,
 -0.00001217,0.00000227,-0.00000848,-0.00007486,0.00002935,0.00000359,0
 .00115450,-0.00003699,-0.00027743,-0.00039786,0.00066622,-0.00091644,0
 .02626603,0.06335866,-0.00005733,0.00006837,0.00003542,-0.00025545,0.0
 0000040,-0.00000803,0.00015253,-0.00026687,-0.00009403,0.00000661,-0.0
 0006650,0.00009129,0.00008882,0.00001777,0.00000037,-0.00005616,0.0000
 7027,0.00002903,0.00050566,0.00011696,-0.00100824,-0.00007599,0.000310
 18,0.00009092,-0.00005329,0.00003831,0.00012156,-0.00000466,0.00004324
 ,-0.00002730,0.00044467,-0.00092671,0.00039650,0.00215065,0.00507093,0
 .00704743,0.00000768,0.00053015,-0.00090276,-0.00034885,-0.00037379,-0
 .00052221,0.00010567,-0.00002187,-0.00001816,-0.00013834,-0.00012919,-
 0.00004481,0.00019071,0.00007315,0.00000846,-0.00008789,0.00017336,0.0
 0016237,-0.00094406,0.00170644,0.00456594,0.00768055,-0.00034846,0.003
 20006,0.04404122,0.01228868,-0.04668770,-0.00453339,-0.00087958,0.0045
 3497,0.00006166,0.00001298,-0.00000463,-0.00001148,-0.00005048,-0.0000
 9385,0.00024515,-0.00005480,0.00000236,0.00018562,-0.00030251,0.000374
 97,0.00047447,-0.00283762,-0.00340995,-0.00023945,0.00118559,0.0003712
 9,-0.00003641,-0.00036726,-0.00000816,-0.00044288,0.00011973,-0.000387
 81,0.00000205,0.00002778,0.00002153,0.00042761,-0.00026994,0.00056200,
 -0.00001367,-0.00007088,0.00001502,-0.00000630,-0.00001785,-0.00000322
 ,-0.00000697,-0.00000589,0.00001275,0.00000080,-0.00000063,0.00000113,
 -0.00000134,-0.00000239,-0.00000014,-0.00000178,0.00000406,0.00000354,
 0.00000299,0.00000397,-0.00001987,0.00000275,-0.00000074,-0.00000095,0
 .00002630,0.00001658,0.00001666,-0.00029022,0.00003681,0.00011406,-0.0
 0035526,-0.00101188,-0.00230821,-0.04732088,-0.01579025,0.03544811,-0.
 00017721,0.00016473,0.00004619,-0.00049900,-0.00026367,0.00007405,0.00
 049014,0.00010159,-0.00008029,-0.00037304,-0.00010629,-0.00008382,0.00
 014224,-0.00003441,0.00000812,-0.00002249,0.00018791,0.00005365,-0.000
 28663,-0.00012429,0.00017285,-0.00011069,-0.00010981,0.00001499,0.0001
 6272,0.00006457,0.00003479,0.00001713,-0.00018381,0.00001463,0.0002283
 3,0.00043751,-0.00006131,-0.00041518,0.00040326,-0.00061940,0.00037888
 ,-0.00005312,0.00049887,0.00021952,-0.00007797,-0.00005699,0.00025323,
 0.00007230,-0.00002384,-0.00020990,0.00045519,0.00033512,-0.00123249,-
 0.00075573,-0.00014961,0.00076855,-0.00046835,-0.00010534,0.00018623,0
 .00065066,-0.00029806,0.00227526,0.00535951,-0.02021081,-0.00130492,0.
 00017964,-0.00022912,-0.00026510,0.00056382,0.00103964,0.00073076,-0.0
 0014361,-0.00009049,-0.00049466,-0.00077879,0.00014956,0.00098066,0.00
 075671,0.00032102,0.00306133,0.00149954,-0.00351080,-0.05347404,-0.003
 85761,0.04058870,-0.00871093,-0.00399731,0.03153921,-0.00036509,0.0001
 6671,-0.00112354,0.00153094,-0.00013019,-0.00031489,-0.00017175,-0.000
 03334,0.00044511,-0.00636856,-0.00194663,0.00095130,-0.00003398,0.0000
 2940,0.00008656,-0.00000721,0.00000461,0.00001210,0.00000156,0.0000201
 9,-0.00004141,0.00001250,0.00000430,0.00001437,0.00000719,0.00000591,-
 0.00001287,0.00000243,0.00000508,-0.00000418,0.00000627,-0.00000707,-0
 .00000577,0.00000683,0.00000044,-0.00001588,0.00002644,0.00000478,0.00
 001369,-0.00001533,-0.00005547,-0.00011058,-0.00004862,0.00012591,0.00
 003468,-0.00008236,0.00006681,-0.00048821,0.06147120,-0.00017732,0.000
 07332,-0.00003245,-0.00019334,0.00013140,0.00018862,0.00016970,-0.0000
 1575,-0.00005515,-0.00005665,-0.00017940,-0.00002694,0.00024129,0.0000
 4412,0.00003437,-0.00011462,0.00021010,0.00002875,-0.00012689,0.000119
 38,-0.00002414,0.00009494,0.00009582,0.00000846,-0.00015638,-0.0000174
 5,-0.00002019,0.00002674,0.00013184,0.00001304,0.00004989,0.00033766,0
 .00004356,-0.00069849,0.00012015,0.00010128,-0.00014716,-0.00022271,-0
 .00047523,-0.00022838,0.00003993,0.00003889,0.00023330,0.00019404,-0.0
 0000891,0.00044123,-0.00036938,0.00085525,0.00089992,-0.00027044,-0.00
 038977,-0.00013526,0.00029619,-0.00002922,-0.00018648,-0.00057525,0.00
 027342,0.00032016,-0.00673058,0.02330442,0.00141600,0.00004074,0.00006
 806,0.00033663,-0.00078235,-0.00127273,0.00047753,-0.00083541,-0.00035
 872,-0.00090546,-0.00074500,0.00173209,-0.00030804,-0.00153748,-0.0007
 4611,0.00511117,-0.00783153,-0.03062550,-0.00232202,-0.03866534,0.0030
 0292,-0.00272566,-0.00105752,0.00840865,-0.00081561,0.00021261,-0.0008
 2948,0.00040397,0.00012405,0.00053012,-0.00004667,0.00001240,0.0001684
 9,-0.00230650,-0.00027046,0.00074306,0.00004476,0.00000035,0.00007371,
 0.00005532,-0.00007650,-0.00004121,-0.00003772,0.00007612,-0.00022082,
 0.00002791,0.00000497,0.00002730,0.00000377,-0.00000007,-0.00000744,-0
 .00000331,0.00001045,-0.00000440,-0.00000026,0.00000818,0.00000178,0.0
 0000546,-0.00000288,-0.00000038,-0.00001250,-0.00000737,0.00000147,0.0
 0004550,0.00004941,0.00014414,0.00006219,-0.00017243,0.00001061,-0.000
 14825,0.00036806,0.00074522,0.00145098,0.05745762,0.00008630,-0.000140
 47,-0.00003184,0.00027641,0.00021551,0.00011432,-0.00029744,-0.0000373
 4,-0.00000374,0.00019425,0.00006707,0.00003727,-0.00007927,0.00004093,
 -0.00000339,0.00000826,-0.00011933,-0.00002016,0.00007165,-0.00005317,
 0.00007619,0.00002849,0.00005359,-0.00001587,-0.00006518,-0.00004283,-
 0.00000339,-0.00000312,0.00008607,-0.00000286,-0.00063922,-0.00088495,
 -0.00030654,0.00165529,0.00062916,0.00115223,-0.00013176,0.00060508,0.
 00030127,0.00002096,-0.00006425,-0.00000612,-0.00011042,0.00004905,0.0
 0003461,0.00024560,-0.00071887,0.00022655,0.00228962,0.00022947,0.0006
 3342,-0.00124891,0.00033718,-0.00037239,0.00005510,-0.00009680,-0.0001
 3499,-0.00103126,0.00702639,-0.01453768,-0.00165398,-0.00030256,0.0003
 0236,-0.00004054,0.00053250,0.00034449,-0.00021846,0.00004928,-0.00011
 641,0.00003491,-0.00023788,0.00047105,-0.00251890,-0.00051738,-0.00009
 305,0.00188252,-0.00980321,-0.01210580,0.04548002,0.00765353,-0.272810
 49,0.00189937,0.00077185,-0.00289367,0.00121795,0.00085440,0.00011467,
 0.00056840,-0.00080512,-0.00040497,0.00010906,-0.00008877,-0.00001477,
 0.00038064,0.00054322,0.00145169,0.00004441,0.00001216,-0.00000257,0.0
 0001186,-0.00009120,-0.00001253,-0.00002540,0.00000864,-0.00007227,-0.
 00000322,-0.00000573,-0.00000239,0.00000186,-0.00000015,-0.00000313,-0
 .00000131,-0.00000060,0.00000029,-0.00000337,0.00000206,0.00000050,0.0
 0000389,0.00000231,-0.00000015,0.00000082,0.00000182,-0.00000842,-0.00
 003538,-0.00002515,-0.00006899,-0.00005687,0.00012636,0.00003831,0.000
 14194,-0.00022297,-0.00028195,-0.04851066,-0.00607855,0.29791138,0.000
 05591,-0.00004745,-0.00002705,0.00008184,0.00010737,0.00002991,-0.0000
 5006,0.00000883,0.00000672,0.00003792,-0.00001333,0.00000350,0.0000044
 0,0.00001894,0.00000587,-0.00001024,0.00000115,-0.00000063,-0.00011243
 ,0.00006520,-0.00000507,0.00006208,-0.00002547,-0.00000498,-0.00007551
 ,-0.00000878,-0.00000067,0.00002059,0.00005746,-0.00000022,0.00019781,
 0.00000354,-0.00005936,-0.00030443,0.00019328,0.00035538,-0.00004318,-
 0.00009410,0.00000019,-0.00001487,0.00002898,-0.00001483,-0.00002148,-
 0.00018308,-0.00000038,-0.00034854,0.00001758,-0.00004882,0.00035490,-
 0.00172764,-0.00070018,0.00013514,-0.00016181,-0.00002319,0.00012279,0
 .00002166,-0.00001256,-0.00018780,-0.00111797,0.00002548,-0.00021337,0
 .00080073,-0.00061221,-0.00012001,0.00023500,-0.00001830,-0.00011226,-
 0.00011273,-0.00001751,0.00021248,0.00015480,0.00013618,-0.00087495,-0
 .00025515,0.00020757,-0.00583112,0.00039770,0.00110252,-0.00553715,-0.
 02504429,-0.01700920,-0.05294865,-0.02938984,-0.02023364,-0.00320266,0
 .00300162,-0.00130367,0.00361788,0.01991058,0.01514470,0.00085852,-0.0
 0035913,0.00016025,0.00023713,0.00365306,0.00221642,0.00042457,0.00104
 178,-0.00087704,0.00001593,-0.00008868,-0.00004650,0.00001207,-0.00000
 554,-0.00000332,-0.00004850,-0.00003095,0.00000570,-0.00000095,0.00000
 088,-0.00000101,-0.00000092,0.00000244,-0.00000054,-0.00000107,0.00000
 413,0.00000001,0.00000169,-0.00000114,0.00000197,-0.00000276,-0.000000
 22,-0.00000920,0.00001255,0.00000506,-0.00000527,-0.00000473,-0.000006
 98,-0.00002307,-0.00054178,0.00047873,-0.00103389,0.00170884,-0.000065
 40,-0.00003489,0.06243440,-0.00014154,0.00008052,0.00003428,-0.0000089
 2,-0.00000029,0.00001329,0.00000121,0.00003170,0.00000325,-0.00002738,
 -0.00009166,-0.00000914,0.00009915,0.00003671,0.00000537,-0.00007960,0
 .00007238,0.00000918,-0.00025652,0.00002979,0.00000607,0.00007767,-0.0
 0011477,0.00000734,-0.00006205,0.00000121,-0.00000245,0.00004300,0.000
 03028,0.00000323,0.00029588,-0.00013878,-0.00003802,-0.00031329,0.0001
 1462,-0.00004157,-0.00010492,-0.00010779,0.00007167,0.00007519,0.00011
 329,-0.00000776,0.00022345,-0.00003746,0.00000825,-0.00039030,-0.00009
 354,0.00000663,0.00048328,-0.00048061,-0.00033448,-0.00000164,-0.00001
 776,0.00003397,0.00014935,0.00002534,-0.00010753,0.00046418,0.00003040
 ,0.00004995,0.00089549,-0.00067649,0.00150129,0.00002243,0.00029720,0.
 00011597,0.00010941,-0.00003317,-0.00002264,-0.00012782,-0.00008087,-0
 .00008846,0.00019739,0.00065072,-0.00022442,-0.00234969,0.00071880,0.0
 0043942,-0.00240335,-0.00952193,-0.00492027,-0.03010494,-0.21409359,-0
 .12299923,0.00439851,-0.00073349,0.00068882,-0.00264624,-0.02077730,-0
 .01248661,-0.00004567,0.00113079,0.00063518,0.00164801,0.00705562,0.00
 513320,-0.00041642,-0.00114533,0.00058493,0.00001330,0.00000355,0.0000
 1430,-0.00000726,-0.00002070,0.00000598,-0.00002134,-0.00001536,-0.000
 01467,-0.00000307,-0.00000591,-0.00000434,-0.00000604,0.00000311,-0.00
 000106,-0.00000706,0.00000333,-0.00000142,-0.00000036,0.00000331,0.000
 00069,-0.00000466,0.00000100,-0.00000859,0.00001122,-0.00000484,-0.000
 03205,-0.00000228,0.00001425,0.00002180,0.00144967,-0.00033318,0.00113
 512,0.00034539,0.00020642,0.00043968,0.02852918,0.23787047,-0.00012848
 ,0.00003741,0.00001958,0.00004899,0.00001708,-0.00001828,-0.00001661,0
 .00002796,0.00000566,0.00004170,-0.00010943,-0.00000359,0.00009645,0.0
 0001210,0.00000619,-0.00005663,0.00007209,0.00000780,-0.00006583,0.000
 01320,-0.00000480,0.00011343,0.00005071,-0.00001718,-0.00010235,-0.000
 04333,-0.00000597,0.00001626,0.00010210,0.00000038,0.00013950,-0.00012
 292,-0.00003979,-0.00013517,0.00020583,-0.00024181,0.00005338,-0.00000
 365,0.00000785,-0.00009146,0.00001112,0.00002379,0.00013323,0.00007005
 ,-0.00001257,-0.00004161,0.00005180,-0.00002194,0.00004845,0.00029883,
 0.00027962,-0.00002043,-0.00005782,0.00004553,0.00001279,-0.00017692,-
 0.00004375,-0.00011497,-0.00018034,0.00029173,-0.00101401,-0.00042623,
 0.00080832,0.00047508,0.00027059,-0.00001177,0.00020157,-0.00000647,0.
 00000652,-0.00016031,-0.00018474,-0.00010810,0.00074359,0.00042579,0.0
 0022619,0.00122708,0.00096270,0.00061178,0.00189254,0.00511540,0.00210
 106,-0.02121625,-0.12323849,-0.13346663,-0.00136987,-0.00011780,0.0002
 1652,0.00054150,0.01021599,0.00521477,0.00063418,-0.00054694,0.0003896
 6,-0.00431071,-0.02482979,-0.01918367,-0.00002296,0.00043783,-0.000117
 31,-0.00000576,0.00000444,-0.00001300,-0.00000331,-0.00000246,0.000006
 57,0.00000714,0.00000554,-0.00000089,-0.00000052,0.00000009,-0.0000018
 0,0.00000035,0.00000374,-0.00000039,-0.00000032,0.00000399,0.00000128,
 0.00000269,-0.00000143,0.00000382,-0.00000153,-0.00000513,-0.00000211,
 0.00006175,-0.00000994,-0.00002405,-0.00002454,0.00002371,0.00000758,-
 0.00001151,0.00054819,-0.00139578,-0.00030133,0.00069966,0.00111994,0.
 02272483,0.13037587,0.14333305\\0.00000301,0.00000021,0.00000147,0.000
 00756,0.00000332,0.00001095,-0.00000447,0.00000083,-0.00000601,0.00000
 081,0.00000393,0.00000118,-0.00000253,0.00000099,-0.00000594,-0.000000
 36,-0.00000148,-0.00000567,-0.00000110,-0.00000093,-0.00000748,0.00000
 189,0.00000165,-0.00000133,0.00000174,0.00000370,-0.00000701,0.0000007
 8,-0.00000321,-0.00000232,0.00000477,-0.00000829,0.00000170,0.00002344
 ,-0.00002980,0.00002882,-0.00001289,0.00000577,-0.00001598,-0.00000292
 ,0.00000162,0.00000159,-0.00000873,-0.00000360,0.00000158,0.00000415,0
 .00000159,0.00000805,0.00001302,0.00000833,-0.00000620,-0.00000579,0.0
 0001158,0.00000966,-0.00000318,-0.00001950,0.00000500,-0.00009338,0.00
 005992,0.00003445,0.00005631,-0.00003873,0.00002767,0.00000305,-0.0000
 1572,-0.00002461,-0.00000880,-0.00000118,-0.00000121,0.00000424,0.0000
 0604,0.00000351,-0.00000152,-0.00001817,0.00000562,-0.00005850,-0.0000
 6930,-0.00003197,0.00005822,0.00006770,-0.00003605,0.00002910,0.000046
 32,-0.00001358,-0.00000467,-0.00001159,-0.00000092,0.00000489,0.000022
 16,0.00002052,0.00000048,-0.00000300,0.00000627,0.00000956,-0.00001582
 ,0.00000824,-0.00000044,0.00000055,0.00000640,-0.00000063,-0.00000262,
 0.00000319,0.00000010,-0.00000144,0.00000657,-0.00000031,-0.00000042,0
 .00000008,0.00000057,-0.00000066,0.00000109,-0.00000039,0.00000040,-0.
 00000075,-0.00000018,0.00000106,-0.00000244,-0.00000043,0.00000061,-0.
 00000282,-0.00000148,-0.00000044,-0.00000356,0.00000233,0.00000214,0.0
 0000172,0.00000128,-0.00000303,-0.00000121,0.00000041,0.00000738,0.000
 01231,-0.00001698,-0.00001576,-0.00003312,-0.00000204,0.00000688,0.000
 00255\\\@


 FROM AN ANONYMOUS WRITER, ON PERSPECTIVE:

 MAN, DESPITE HIS ARTISTIC PRETENSIONS, HIS SOPHISTICATION AND MANY 
 ACCOMPLISHMENTS, OWES THE FACT OF HIS EXISTENCE TO A SIX-INCH LAYER OF 
 TOPSOIL AND THE FACT THAT IT RAINS.
 Job cpu time:       1 days  0 hours 23 minutes 50.5 seconds.
 Elapsed time:       0 days  1 hours 13 minutes 23.7 seconds.
 File lengths (MBytes):  RWF=   2285 Int=      0 D2E=      0 Chk=     47 Scr=      1
 Normal termination of Gaussian 16 at Tue Jun 18 20:36:21 2019.
