 Entering Gaussian System, Link 0=/share/apps/gaussian16/g16/g16
 Initial command:
 /share/apps/gaussian16/g16/l1.exe "/home/amen01//scratch/1002/Gau-43859.inp" -scrdir="/home/amen01//scratch/1002/"
 Entering Link 1 = /share/apps/gaussian16/g16/l1.exe PID=     43860.
  
 Copyright (c) 1988-2017, Gaussian, Inc.  All Rights Reserved.
  
 This is part of the Gaussian(R) 16 program.  It is based on
 the Gaussian(R) 09 system (copyright 2009, Gaussian, Inc.),
 the Gaussian(R) 03 system (copyright 2003, Gaussian, Inc.),
 the Gaussian(R) 98 system (copyright 1998, Gaussian, Inc.),
 the Gaussian(R) 94 system (copyright 1995, Gaussian, Inc.),
 the Gaussian 92(TM) system (copyright 1992, Gaussian, Inc.),
 the Gaussian 90(TM) system (copyright 1990, Gaussian, Inc.),
 the Gaussian 88(TM) system (copyright 1988, Gaussian, Inc.),
 the Gaussian 86(TM) system (copyright 1986, Carnegie Mellon
 University), and the Gaussian 82(TM) system (copyright 1983,
 Carnegie Mellon University). Gaussian is a federally registered
 trademark of Gaussian, Inc.
  
 This software contains proprietary and confidential information,
 including trade secrets, belonging to Gaussian, Inc.
  
 This software is provided under written license and may be
 used, copied, transmitted, or stored only in accord with that
 written license.
  
 The following legend is applicable only to US Government
 contracts under FAR:
  
                    RESTRICTED RIGHTS LEGEND
  
 Use, reproduction and disclosure by the US Government is
 subject to restrictions as set forth in subparagraphs (a)
 and (c) of the Commercial Computer Software - Restricted
 Rights clause in FAR 52.227-19.
  
 Gaussian, Inc.
 340 Quinnipiac St., Bldg. 40, Wallingford CT 06492
  
  
 ---------------------------------------------------------------
 Warning -- This program may not be used in any manner that
 competes with the business of Gaussian, Inc. or will provide
 assistance to any competitor of Gaussian, Inc.  The licensee
 of this program is prohibited from giving any competitor of
 Gaussian, Inc. access to this program.  By using this program,
 the user acknowledges that Gaussian, Inc. is engaged in the
 business of creating and licensing software in the field of
 computational chemistry and represents and warrants to the
 licensee that it is not a competitor of Gaussian, Inc. and that
 it will not use this program in any manner prohibited above.
 ---------------------------------------------------------------
  

 Cite this work as:
 Gaussian 16, Revision B.01,
 M. J. Frisch, G. W. Trucks, H. B. Schlegel, G. E. Scuseria, 
 M. A. Robb, J. R. Cheeseman, G. Scalmani, V. Barone, 
 G. A. Petersson, H. Nakatsuji, X. Li, M. Caricato, A. V. Marenich, 
 J. Bloino, B. G. Janesko, R. Gomperts, B. Mennucci, H. P. Hratchian, 
 J. V. Ortiz, A. F. Izmaylov, J. L. Sonnenberg, D. Williams-Young, 
 F. Ding, F. Lipparini, F. Egidi, J. Goings, B. Peng, A. Petrone, 
 T. Henderson, D. Ranasinghe, V. G. Zakrzewski, J. Gao, N. Rega, 
 G. Zheng, W. Liang, M. Hada, M. Ehara, K. Toyota, R. Fukuda, 
 J. Hasegawa, M. Ishida, T. Nakajima, Y. Honda, O. Kitao, H. Nakai, 
 T. Vreven, K. Throssell, J. A. Montgomery, Jr., J. E. Peralta, 
 F. Ogliaro, M. J. Bearpark, J. J. Heyd, E. N. Brothers, K. N. Kudin, 
 V. N. Staroverov, T. A. Keith, R. Kobayashi, J. Normand, 
 K. Raghavachari, A. P. Rendell, J. C. Burant, S. S. Iyengar, 
 J. Tomasi, M. Cossi, J. M. Millam, M. Klene, C. Adamo, R. Cammi, 
 J. W. Ochterski, R. L. Martin, K. Morokuma, O. Farkas, 
 J. B. Foresman, and D. J. Fox, Gaussian, Inc., Wallingford CT, 2016.
 
 ******************************************
 Gaussian 16:  ES64L-G16RevB.01 20-Dec-2017
                 6-Sep-2019 
 ******************************************
 %nprocshared=20
 Will use up to   20 processors via shared memory.
 %mem=180GB
 %chk=7-memb-dir-3bcis2.chk
 -------------------------------------------
 # opt freq b3lyp/6-311+g(d,p) int=grid=fine
 -------------------------------------------
 1/18=20,19=15,26=3,38=1/1,3;
 2/9=110,12=2,17=6,18=5,40=1/2;
 3/5=4,6=6,7=111,11=2,25=1,30=1,71=1,74=-5,75=-4/1,2,3;
 4//1;
 5/5=2,38=5/2;
 6/7=2,8=2,9=2,10=2,28=1/1;
 7//1,2,3,16;
 1/18=20,19=15,26=3/3(2);
 2/9=110/2;
 99//99;
 2/9=110/2;
 3/5=4,6=6,7=111,11=2,25=1,30=1,71=1,74=-5,75=-4/1,2,3;
 4/5=5,16=3,69=1/1;
 5/5=2,38=5/2;
 7//1,2,3,16;
 1/18=20,19=15,26=3/3(-5);
 2/9=110/2;
 6/7=2,8=2,9=2,10=2,19=2,28=1/1;
 99/9=1/99;
 -----------------
 7-memb-dir-3bcis2
 -----------------
 Symbolic Z-matrix:
 Charge =  0 Multiplicity = 1
 C                     1.7232   -2.7044    0.0704 
 C                     1.5133   -1.3928    0.5062 
 C                     2.5717   -0.4615    0.5442 
 C                     3.8863   -0.7573    0.1795 
 C                     3.0874   -3.0625   -0.1584 
 C                     4.131    -2.129    -0.1071 
 C                     2.0177    0.8138    0.5432 
 C                     2.7503    1.9347    0.1296 
 C                     4.169     1.6821   -0.0734 
 C                     4.7056    0.4105   -0.0514 
 C                     0.5877    0.6887    0.5506 
 C                    -0.1823    1.797     0.192 
 C                     0.5663    3.0178   -0.2046 
 C                     2.0078    3.0703   -0.228 
 C                     0.5311   -3.4141   -0.2869 
 C                    -0.7164   -2.7962   -0.2748 
 C                    -0.9072   -1.4079    0.1697 
 C                     0.2771   -0.7132    0.5347 
 C                    -0.2652    4.0957   -0.8002 
 C                    -1.5979    1.7482    0.1211 
 C                    -2.2874    2.7798   -0.5135 
 C                    -1.6372    3.9375   -0.958 
 C                    -1.888    -3.4774   -0.7686 
 C                    -3.1      -2.874    -0.7972 
 C                    -3.3086   -1.5416   -0.2733 
 C                    -2.1618   -0.8065    0.1862 
 C                    -2.3288    0.5779    0.8369 
 C                    -3.7775    0.9255    1.0758 
 C                    -4.5854   -1.037    -0.1155 
 C                    -4.801     0.1828    0.604 
 H                    -5.8217    0.4941    0.8041 
 H                    -3.9772    1.8179    1.6606 
 H                    -1.8125    0.5167    1.8117 
 H                    -5.4367   -1.6087   -0.4669 
 H                    -3.9663   -3.4077   -1.1748 
 H                    -1.7761   -4.4943   -1.1309 
 H                     0.5984   -4.4335   -0.6552 
 H                     3.321    -4.0766   -0.4675 
 H                     5.1304   -2.4558   -0.3765 
 H                     5.7597    0.2876   -0.2808 
 H                     4.8159    2.5172   -0.3221 
 H                     2.4845    3.9531   -0.639 
 H                     0.2459    4.9993   -1.1101 
 H                    -2.2094    4.7507   -1.3881 
 H                    -3.3641    2.7113   -0.6089 
 H                     0.11414   3.43687   0.54104 
 

 GradGradGradGradGradGradGradGradGradGradGradGradGradGradGradGradGradGrad
 Berny optimization.
 Initialization pass.
                           ----------------------------
                           !    Initial Parameters    !
                           ! (Angstroms and Degrees)  !
 --------------------------                            --------------------------
 ! Name  Definition              Value          Derivative Info.                !
 --------------------------------------------------------------------------------
 ! R1    R(1,2)                  1.398          estimate D2E/DX2                !
 ! R2    R(1,5)                  1.4289         estimate D2E/DX2                !
 ! R3    R(1,15)                 1.4326         estimate D2E/DX2                !
 ! R4    R(2,3)                  1.4103         estimate D2E/DX2                !
 ! R5    R(2,18)                 1.411          estimate D2E/DX2                !
 ! R6    R(3,4)                  1.396          estimate D2E/DX2                !
 ! R7    R(3,7)                  1.3904         estimate D2E/DX2                !
 ! R8    R(4,6)                  1.4225         estimate D2E/DX2                !
 ! R9    R(4,10)                 1.4451         estimate D2E/DX2                !
 ! R10   R(5,6)                  1.4011         estimate D2E/DX2                !
 ! R11   R(5,38)                 1.0856         estimate D2E/DX2                !
 ! R12   R(6,39)                 1.0854         estimate D2E/DX2                !
 ! R13   R(7,8)                  1.4015         estimate D2E/DX2                !
 ! R14   R(7,11)                 1.4355         estimate D2E/DX2                !
 ! R15   R(8,9)                  1.4552         estimate D2E/DX2                !
 ! R16   R(8,14)                 1.4031         estimate D2E/DX2                !
 ! R17   R(9,10)                 1.3804         estimate D2E/DX2                !
 ! R18   R(9,41)                 1.0852         estimate D2E/DX2                !
 ! R19   R(10,40)                1.0858         estimate D2E/DX2                !
 ! R20   R(11,12)                1.3964         estimate D2E/DX2                !
 ! R21   R(11,18)                1.436          estimate D2E/DX2                !
 ! R22   R(12,13)                1.4859         estimate D2E/DX2                !
 ! R23   R(12,20)                1.4182         estimate D2E/DX2                !
 ! R24   R(13,14)                1.4426         estimate D2E/DX2                !
 ! R25   R(13,19)                1.4859         estimate D2E/DX2                !
 ! R26   R(13,46)                0.9675         estimate D2E/DX2                !
 ! R27   R(14,42)                1.0842         estimate D2E/DX2                !
 ! R28   R(15,16)                1.3922         estimate D2E/DX2                !
 ! R29   R(15,37)                1.086          estimate D2E/DX2                !
 ! R30   R(16,17)                1.4702         estimate D2E/DX2                !
 ! R31   R(16,23)                1.4424         estimate D2E/DX2                !
 ! R32   R(17,18)                1.4207         estimate D2E/DX2                !
 ! R33   R(17,26)                1.3914         estimate D2E/DX2                !
 ! R34   R(19,22)                1.3901         estimate D2E/DX2                !
 ! R35   R(19,43)                1.0834         estimate D2E/DX2                !
 ! R36   R(20,21)                1.3937         estimate D2E/DX2                !
 ! R37   R(20,27)                1.5544         estimate D2E/DX2                !
 ! R38   R(21,22)                1.4002         estimate D2E/DX2                !
 ! R39   R(21,45)                1.0831         estimate D2E/DX2                !
 ! R40   R(22,44)                1.0834         estimate D2E/DX2                !
 ! R41   R(23,24)                1.3542         estimate D2E/DX2                !
 ! R42   R(23,36)                1.0853         estimate D2E/DX2                !
 ! R43   R(24,25)                1.4468         estimate D2E/DX2                !
 ! R44   R(24,35)                1.0853         estimate D2E/DX2                !
 ! R45   R(25,26)                1.4376         estimate D2E/DX2                !
 ! R46   R(25,29)                1.3819         estimate D2E/DX2                !
 ! R47   R(26,27)                1.5388         estimate D2E/DX2                !
 ! R48   R(27,28)                1.5089         estimate D2E/DX2                !
 ! R49   R(27,33)                1.1048         estimate D2E/DX2                !
 ! R50   R(28,30)                1.3497         estimate D2E/DX2                !
 ! R51   R(28,32)                1.0855         estimate D2E/DX2                !
 ! R52   R(29,30)                1.4325         estimate D2E/DX2                !
 ! R53   R(29,34)                1.084          estimate D2E/DX2                !
 ! R54   R(30,31)                1.0857         estimate D2E/DX2                !
 ! A1    A(2,1,5)              115.3668         estimate D2E/DX2                !
 ! A2    A(2,1,15)             114.6826         estimate D2E/DX2                !
 ! A3    A(5,1,15)             129.0769         estimate D2E/DX2                !
 ! A4    A(1,2,3)              121.016          estimate D2E/DX2                !
 ! A5    A(1,2,18)             126.1389         estimate D2E/DX2                !
 ! A6    A(3,2,18)             109.8104         estimate D2E/DX2                !
 ! A7    A(2,3,4)              124.04           estimate D2E/DX2                !
 ! A8    A(2,3,7)              107.8566         estimate D2E/DX2                !
 ! A9    A(4,3,7)              124.7071         estimate D2E/DX2                !
 ! A10   A(3,4,6)              114.7688         estimate D2E/DX2                !
 ! A11   A(3,4,10)             113.8545         estimate D2E/DX2                !
 ! A12   A(6,4,10)             130.5053         estimate D2E/DX2                !
 ! A13   A(1,5,6)              122.5671         estimate D2E/DX2                !
 ! A14   A(1,5,38)             119.0226         estimate D2E/DX2                !
 ! A15   A(6,5,38)             118.1983         estimate D2E/DX2                !
 ! A16   A(4,6,5)              121.4462         estimate D2E/DX2                !
 ! A17   A(4,6,39)             119.9145         estimate D2E/DX2                !
 ! A18   A(5,6,39)             118.4317         estimate D2E/DX2                !
 ! A19   A(3,7,8)              121.702          estimate D2E/DX2                !
 ! A20   A(3,7,11)             108.4804         estimate D2E/DX2                !
 ! A21   A(8,7,11)             126.2958         estimate D2E/DX2                !
 ! A22   A(7,8,9)              114.3269         estimate D2E/DX2                !
 ! A23   A(7,8,14)             116.4806         estimate D2E/DX2                !
 ! A24   A(9,8,14)             128.376          estimate D2E/DX2                !
 ! A25   A(8,9,10)             122.4564         estimate D2E/DX2                !
 ! A26   A(8,9,41)             118.6543         estimate D2E/DX2                !
 ! A27   A(10,9,41)            118.7384         estimate D2E/DX2                !
 ! A28   A(4,10,9)             121.7752         estimate D2E/DX2                !
 ! A29   A(4,10,40)            119.5187         estimate D2E/DX2                !
 ! A30   A(9,10,40)            118.5754         estimate D2E/DX2                !
 ! A31   A(7,11,12)            118.6093         estimate D2E/DX2                !
 ! A32   A(7,11,18)            107.4873         estimate D2E/DX2                !
 ! A33   A(12,11,18)           130.7493         estimate D2E/DX2                !
 ! A34   A(11,12,13)           116.2838         estimate D2E/DX2                !
 ! A35   A(11,12,20)           122.408          estimate D2E/DX2                !
 ! A36   A(13,12,20)           121.1837         estimate D2E/DX2                !
 ! A37   A(12,13,14)           122.5213         estimate D2E/DX2                !
 ! A38   A(12,13,19)           114.8999         estimate D2E/DX2                !
 ! A39   A(12,13,46)            85.1077         estimate D2E/DX2                !
 ! A40   A(14,13,19)           121.7515         estimate D2E/DX2                !
 ! A41   A(14,13,46)           117.6273         estimate D2E/DX2                !
 ! A42   A(19,13,46)            74.5251         estimate D2E/DX2                !
 ! A43   A(8,14,13)            119.6808         estimate D2E/DX2                !
 ! A44   A(8,14,42)            121.5294         estimate D2E/DX2                !
 ! A45   A(13,14,42)           118.3664         estimate D2E/DX2                !
 ! A46   A(1,15,16)            121.5732         estimate D2E/DX2                !
 ! A47   A(1,15,37)            119.8695         estimate D2E/DX2                !
 ! A48   A(16,15,37)           118.3659         estimate D2E/DX2                !
 ! A49   A(15,16,17)           122.5504         estimate D2E/DX2                !
 ! A50   A(15,16,23)           121.0145         estimate D2E/DX2                !
 ! A51   A(17,16,23)           116.3635         estimate D2E/DX2                !
 ! A52   A(16,17,18)           115.5468         estimate D2E/DX2                !
 ! A53   A(16,17,26)           121.9224         estimate D2E/DX2                !
 ! A54   A(18,17,26)           122.4964         estimate D2E/DX2                !
 ! A55   A(2,18,11)            106.3162         estimate D2E/DX2                !
 ! A56   A(2,18,17)            119.3165         estimate D2E/DX2                !
 ! A57   A(11,18,17)           131.3401         estimate D2E/DX2                !
 ! A58   A(13,19,22)           121.0141         estimate D2E/DX2                !
 ! A59   A(13,19,43)           117.1089         estimate D2E/DX2                !
 ! A60   A(22,19,43)           121.8751         estimate D2E/DX2                !
 ! A61   A(12,20,21)           119.4141         estimate D2E/DX2                !
 ! A62   A(12,20,27)           118.1791         estimate D2E/DX2                !
 ! A63   A(21,20,27)           122.2995         estimate D2E/DX2                !
 ! A64   A(20,21,22)           121.7905         estimate D2E/DX2                !
 ! A65   A(20,21,45)           119.0198         estimate D2E/DX2                !
 ! A66   A(22,21,45)           119.0746         estimate D2E/DX2                !
 ! A67   A(19,22,21)           121.0895         estimate D2E/DX2                !
 ! A68   A(19,22,44)           118.7468         estimate D2E/DX2                !
 ! A69   A(21,22,44)           120.0916         estimate D2E/DX2                !
 ! A70   A(16,23,24)           121.5851         estimate D2E/DX2                !
 ! A71   A(16,23,36)           118.2319         estimate D2E/DX2                !
 ! A72   A(24,23,36)           120.1805         estimate D2E/DX2                !
 ! A73   A(23,24,25)           122.1226         estimate D2E/DX2                !
 ! A74   A(23,24,35)           120.1739         estimate D2E/DX2                !
 ! A75   A(25,24,35)           117.6301         estimate D2E/DX2                !
 ! A76   A(24,25,26)           118.1402         estimate D2E/DX2                !
 ! A77   A(24,25,29)           120.7187         estimate D2E/DX2                !
 ! A78   A(26,25,29)           120.919          estimate D2E/DX2                !
 ! A79   A(17,26,25)           119.6361         estimate D2E/DX2                !
 ! A80   A(17,26,27)           119.4547         estimate D2E/DX2                !
 ! A81   A(25,26,27)           120.5724         estimate D2E/DX2                !
 ! A82   A(20,27,26)           115.5688         estimate D2E/DX2                !
 ! A83   A(20,27,28)           110.5443         estimate D2E/DX2                !
 ! A84   A(20,27,33)           103.1958         estimate D2E/DX2                !
 ! A85   A(26,27,28)           112.2355         estimate D2E/DX2                !
 ! A86   A(26,27,33)           105.8165         estimate D2E/DX2                !
 ! A87   A(28,27,33)           108.7693         estimate D2E/DX2                !
 ! A88   A(27,28,30)           123.0905         estimate D2E/DX2                !
 ! A89   A(27,28,32)           116.8297         estimate D2E/DX2                !
 ! A90   A(30,28,32)           120.0794         estimate D2E/DX2                !
 ! A91   A(25,29,30)           120.4862         estimate D2E/DX2                !
 ! A92   A(25,29,34)           119.7357         estimate D2E/DX2                !
 ! A93   A(30,29,34)           119.585          estimate D2E/DX2                !
 ! A94   A(28,30,29)           122.0051         estimate D2E/DX2                !
 ! A95   A(28,30,31)           119.3865         estimate D2E/DX2                !
 ! A96   A(29,30,31)           118.5686         estimate D2E/DX2                !
 ! D1    D(5,1,2,3)              7.6755         estimate D2E/DX2                !
 ! D2    D(5,1,2,18)           165.9124         estimate D2E/DX2                !
 ! D3    D(15,1,2,3)          -162.6134         estimate D2E/DX2                !
 ! D4    D(15,1,2,18)           -4.3766         estimate D2E/DX2                !
 ! D5    D(2,1,5,6)             -7.3298         estimate D2E/DX2                !
 ! D6    D(2,1,5,38)           178.0597         estimate D2E/DX2                !
 ! D7    D(15,1,5,6)           161.2833         estimate D2E/DX2                !
 ! D8    D(15,1,5,38)          -13.3273         estimate D2E/DX2                !
 ! D9    D(2,1,15,16)            3.9275         estimate D2E/DX2                !
 ! D10   D(2,1,15,37)          178.8164         estimate D2E/DX2                !
 ! D11   D(5,1,15,16)         -164.7496         estimate D2E/DX2                !
 ! D12   D(5,1,15,37)           10.1392         estimate D2E/DX2                !
 ! D13   D(1,2,3,4)             -0.8576         estimate D2E/DX2                !
 ! D14   D(1,2,3,7)            159.114          estimate D2E/DX2                !
 ! D15   D(18,2,3,4)          -162.2996         estimate D2E/DX2                !
 ! D16   D(18,2,3,7)            -2.328          estimate D2E/DX2                !
 ! D17   D(1,2,18,11)         -158.524          estimate D2E/DX2                !
 ! D18   D(1,2,18,17)            3.9766         estimate D2E/DX2                !
 ! D19   D(3,2,18,11)            1.7363         estimate D2E/DX2                !
 ! D20   D(3,2,18,17)          164.2369         estimate D2E/DX2                !
 ! D21   D(2,3,4,6)             -6.4784         estimate D2E/DX2                !
 ! D22   D(2,3,4,10)           163.9802         estimate D2E/DX2                !
 ! D23   D(7,3,4,6)           -163.1161         estimate D2E/DX2                !
 ! D24   D(7,3,4,10)             7.3425         estimate D2E/DX2                !
 ! D25   D(2,3,7,8)           -158.0958         estimate D2E/DX2                !
 ! D26   D(2,3,7,11)             1.9606         estimate D2E/DX2                !
 ! D27   D(4,3,7,8)              1.7087         estimate D2E/DX2                !
 ! D28   D(4,3,7,11)           161.7651         estimate D2E/DX2                !
 ! D29   D(3,4,6,5)              6.7676         estimate D2E/DX2                !
 ! D30   D(3,4,6,39)          -178.5508         estimate D2E/DX2                !
 ! D31   D(10,4,6,5)          -161.7315         estimate D2E/DX2                !
 ! D32   D(10,4,6,39)           12.9501         estimate D2E/DX2                !
 ! D33   D(3,4,10,9)            -7.9185         estimate D2E/DX2                !
 ! D34   D(3,4,10,40)          176.2969         estimate D2E/DX2                !
 ! D35   D(6,4,10,9)           160.6644         estimate D2E/DX2                !
 ! D36   D(6,4,10,40)          -15.1202         estimate D2E/DX2                !
 ! D37   D(1,5,6,4)              0.0222         estimate D2E/DX2                !
 ! D38   D(1,5,6,39)          -174.7359         estimate D2E/DX2                !
 ! D39   D(38,5,6,4)           174.675          estimate D2E/DX2                !
 ! D40   D(38,5,6,39)           -0.0832         estimate D2E/DX2                !
 ! D41   D(3,7,8,9)             -9.7667         estimate D2E/DX2                !
 ! D42   D(3,7,8,14)           160.7662         estimate D2E/DX2                !
 ! D43   D(11,7,8,9)          -166.1019         estimate D2E/DX2                !
 ! D44   D(11,7,8,14)            4.431          estimate D2E/DX2                !
 ! D45   D(3,7,11,12)         -162.9641         estimate D2E/DX2                !
 ! D46   D(3,7,11,18)           -0.9004         estimate D2E/DX2                !
 ! D47   D(8,7,11,12)           -4.0682         estimate D2E/DX2                !
 ! D48   D(8,7,11,18)          157.9955         estimate D2E/DX2                !
 ! D49   D(7,8,9,10)             9.0321         estimate D2E/DX2                !
 ! D50   D(7,8,9,41)          -175.4924         estimate D2E/DX2                !
 ! D51   D(14,8,9,10)         -160.1435         estimate D2E/DX2                !
 ! D52   D(14,8,9,41)           15.3319         estimate D2E/DX2                !
 ! D53   D(7,8,14,13)           -2.3428         estimate D2E/DX2                !
 ! D54   D(7,8,14,42)         -174.7518         estimate D2E/DX2                !
 ! D55   D(9,8,14,13)          166.6355         estimate D2E/DX2                !
 ! D56   D(9,8,14,42)           -5.7736         estimate D2E/DX2                !
 ! D57   D(8,9,10,4)            -0.1527         estimate D2E/DX2                !
 ! D58   D(8,9,10,40)          175.6703         estimate D2E/DX2                !
 ! D59   D(41,9,10,4)         -175.6246         estimate D2E/DX2                !
 ! D60   D(41,9,10,40)           0.1985         estimate D2E/DX2                !
 ! D61   D(7,11,12,13)           1.4964         estimate D2E/DX2                !
 ! D62   D(7,11,12,20)         177.481          estimate D2E/DX2                !
 ! D63   D(18,11,12,13)       -155.6909         estimate D2E/DX2                !
 ! D64   D(18,11,12,20)         20.2937         estimate D2E/DX2                !
 ! D65   D(7,11,18,2)           -0.5107         estimate D2E/DX2                !
 ! D66   D(7,11,18,17)        -160.0719         estimate D2E/DX2                !
 ! D67   D(12,11,18,2)         158.5809         estimate D2E/DX2                !
 ! D68   D(12,11,18,17)         -0.9803         estimate D2E/DX2                !
 ! D69   D(11,12,13,14)          0.221          estimate D2E/DX2                !
 ! D70   D(11,12,13,19)        169.9639         estimate D2E/DX2                !
 ! D71   D(11,12,13,46)       -119.6066         estimate D2E/DX2                !
 ! D72   D(20,12,13,14)       -175.8165         estimate D2E/DX2                !
 ! D73   D(20,12,13,19)         -6.0735         estimate D2E/DX2                !
 ! D74   D(20,12,13,46)         64.356          estimate D2E/DX2                !
 ! D75   D(11,12,20,21)       -166.1502         estimate D2E/DX2                !
 ! D76   D(11,12,20,27)         17.5287         estimate D2E/DX2                !
 ! D77   D(13,12,20,21)          9.6411         estimate D2E/DX2                !
 ! D78   D(13,12,20,27)       -166.68           estimate D2E/DX2                !
 ! D79   D(12,13,14,8)           0.2167         estimate D2E/DX2                !
 ! D80   D(12,13,14,42)        172.8648         estimate D2E/DX2                !
 ! D81   D(19,13,14,8)        -168.8341         estimate D2E/DX2                !
 ! D82   D(19,13,14,42)          3.8141         estimate D2E/DX2                !
 ! D83   D(46,13,14,8)         102.8994         estimate D2E/DX2                !
 ! D84   D(46,13,14,42)        -84.4524         estimate D2E/DX2                !
 ! D85   D(12,13,19,22)          0.0204         estimate D2E/DX2                !
 ! D86   D(12,13,19,43)       -179.4985         estimate D2E/DX2                !
 ! D87   D(14,13,19,22)        169.8505         estimate D2E/DX2                !
 ! D88   D(14,13,19,43)         -9.6684         estimate D2E/DX2                !
 ! D89   D(46,13,19,22)        -76.9138         estimate D2E/DX2                !
 ! D90   D(46,13,19,43)        103.5673         estimate D2E/DX2                !
 ! D91   D(1,15,16,17)          -3.3379         estimate D2E/DX2                !
 ! D92   D(1,15,16,23)         173.4708         estimate D2E/DX2                !
 ! D93   D(37,15,16,17)       -178.3011         estimate D2E/DX2                !
 ! D94   D(37,15,16,23)         -1.4925         estimate D2E/DX2                !
 ! D95   D(15,16,17,18)          2.5888         estimate D2E/DX2                !
 ! D96   D(15,16,17,26)       -179.4926         estimate D2E/DX2                !
 ! D97   D(23,16,17,18)       -174.3588         estimate D2E/DX2                !
 ! D98   D(23,16,17,26)          3.5598         estimate D2E/DX2                !
 ! D99   D(15,16,23,24)       -178.1108         estimate D2E/DX2                !
 ! D100  D(15,16,23,36)          1.3044         estimate D2E/DX2                !
 ! D101  D(17,16,23,24)         -1.1128         estimate D2E/DX2                !
 ! D102  D(17,16,23,36)        178.3023         estimate D2E/DX2                !
 ! D103  D(16,17,18,2)          -2.7136         estimate D2E/DX2                !
 ! D104  D(16,17,18,11)        154.6818         estimate D2E/DX2                !
 ! D105  D(26,17,18,2)         179.381          estimate D2E/DX2                !
 ! D106  D(26,17,18,11)        -23.2237         estimate D2E/DX2                !
 ! D107  D(16,17,26,25)         -1.5766         estimate D2E/DX2                !
 ! D108  D(16,17,26,27)        171.7991         estimate D2E/DX2                !
 ! D109  D(18,17,26,25)        176.1968         estimate D2E/DX2                !
 ! D110  D(18,17,26,27)        -10.4274         estimate D2E/DX2                !
 ! D111  D(13,19,22,21)          2.5263         estimate D2E/DX2                !
 ! D112  D(13,19,22,44)        179.4406         estimate D2E/DX2                !
 ! D113  D(43,19,22,21)       -177.978          estimate D2E/DX2                !
 ! D114  D(43,19,22,44)         -1.0637         estimate D2E/DX2                !
 ! D115  D(12,20,21,22)         -7.0541         estimate D2E/DX2                !
 ! D116  D(12,20,21,45)        176.8847         estimate D2E/DX2                !
 ! D117  D(27,20,21,22)        169.1092         estimate D2E/DX2                !
 ! D118  D(27,20,21,45)         -6.952          estimate D2E/DX2                !
 ! D119  D(12,20,27,26)        -70.9111         estimate D2E/DX2                !
 ! D120  D(12,20,27,28)        160.238          estimate D2E/DX2                !
 ! D121  D(12,20,27,33)         44.0829         estimate D2E/DX2                !
 ! D122  D(21,20,27,26)        112.8803         estimate D2E/DX2                !
 ! D123  D(21,20,27,28)        -15.9706         estimate D2E/DX2                !
 ! D124  D(21,20,27,33)       -132.1257         estimate D2E/DX2                !
 ! D125  D(20,21,22,19)          0.9659         estimate D2E/DX2                !
 ! D126  D(20,21,22,44)       -175.9073         estimate D2E/DX2                !
 ! D127  D(45,21,22,19)        177.025          estimate D2E/DX2                !
 ! D128  D(45,21,22,44)          0.1518         estimate D2E/DX2                !
 ! D129  D(16,23,24,25)         -3.2714         estimate D2E/DX2                !
 ! D130  D(16,23,24,35)        179.9205         estimate D2E/DX2                !
 ! D131  D(36,23,24,25)        177.3247         estimate D2E/DX2                !
 ! D132  D(36,23,24,35)          0.5166         estimate D2E/DX2                !
 ! D133  D(23,24,25,26)          5.2695         estimate D2E/DX2                !
 ! D134  D(23,24,25,29)       -169.3646         estimate D2E/DX2                !
 ! D135  D(35,24,25,26)       -177.845          estimate D2E/DX2                !
 ! D136  D(35,24,25,29)          7.5209         estimate D2E/DX2                !
 ! D137  D(24,25,26,17)         -2.7466         estimate D2E/DX2                !
 ! D138  D(24,25,26,27)       -176.0469         estimate D2E/DX2                !
 ! D139  D(29,25,26,17)        171.8763         estimate D2E/DX2                !
 ! D140  D(29,25,26,27)         -1.4241         estimate D2E/DX2                !
 ! D141  D(24,25,29,30)        169.5692         estimate D2E/DX2                !
 ! D142  D(24,25,29,34)         -5.3608         estimate D2E/DX2                !
 ! D143  D(26,25,29,30)         -4.9149         estimate D2E/DX2                !
 ! D144  D(26,25,29,34)       -179.8449         estimate D2E/DX2                !
 ! D145  D(17,26,27,20)         66.2574         estimate D2E/DX2                !
 ! D146  D(17,26,27,28)       -165.7266         estimate D2E/DX2                !
 ! D147  D(17,26,27,33)        -47.2306         estimate D2E/DX2                !
 ! D148  D(25,26,27,20)       -120.4302         estimate D2E/DX2                !
 ! D149  D(25,26,27,28)          7.5858         estimate D2E/DX2                !
 ! D150  D(25,26,27,33)        126.0818         estimate D2E/DX2                !
 ! D151  D(20,27,28,30)        122.2199         estimate D2E/DX2                !
 ! D152  D(20,27,28,32)        -58.003          estimate D2E/DX2                !
 ! D153  D(26,27,28,30)         -8.4081         estimate D2E/DX2                !
 ! D154  D(26,27,28,32)        171.369          estimate D2E/DX2                !
 ! D155  D(33,27,28,30)       -125.1467         estimate D2E/DX2                !
 ! D156  D(33,27,28,32)         54.6304         estimate D2E/DX2                !
 ! D157  D(27,28,30,29)          2.8972         estimate D2E/DX2                !
 ! D158  D(27,28,30,31)       -179.428          estimate D2E/DX2                !
 ! D159  D(32,28,30,29)       -176.8729         estimate D2E/DX2                !
 ! D160  D(32,28,30,31)          0.8019         estimate D2E/DX2                !
 ! D161  D(25,29,30,28)          4.3509         estimate D2E/DX2                !
 ! D162  D(25,29,30,31)       -173.3422         estimate D2E/DX2                !
 ! D163  D(34,29,30,28)        179.2885         estimate D2E/DX2                !
 ! D164  D(34,29,30,31)          1.5954         estimate D2E/DX2                !
 --------------------------------------------------------------------------------
 Trust Radius=3.00D-01 FncErr=1.00D-07 GrdErr=1.00D-06 EigMax=2.50D+02 EigMin=1.00D-04
 Number of steps in this run=    276 maximum allowed number of steps=    276.
 GradGradGradGradGradGradGradGradGradGradGradGradGradGradGradGradGradGrad

                          Input orientation:                          
 ---------------------------------------------------------------------
 Center     Atomic      Atomic             Coordinates (Angstroms)
 Number     Number       Type             X           Y           Z
 ---------------------------------------------------------------------
      1          6           0        1.723200   -2.704400    0.070400
      2          6           0        1.513300   -1.392800    0.506200
      3          6           0        2.571700   -0.461500    0.544200
      4          6           0        3.886300   -0.757300    0.179500
      5          6           0        3.087400   -3.062500   -0.158400
      6          6           0        4.131000   -2.129000   -0.107100
      7          6           0        2.017700    0.813800    0.543200
      8          6           0        2.750300    1.934700    0.129600
      9          6           0        4.169000    1.682100   -0.073400
     10          6           0        4.705600    0.410500   -0.051400
     11          6           0        0.587700    0.688700    0.550600
     12          6           0       -0.182300    1.797000    0.192000
     13          6           0        0.566300    3.017800   -0.204600
     14          6           0        2.007800    3.070300   -0.228000
     15          6           0        0.531100   -3.414100   -0.286900
     16          6           0       -0.716400   -2.796200   -0.274800
     17          6           0       -0.907200   -1.407900    0.169700
     18          6           0        0.277100   -0.713200    0.534700
     19          6           0       -0.265200    4.095700   -0.800200
     20          6           0       -1.597900    1.748200    0.121100
     21          6           0       -2.287400    2.779800   -0.513500
     22          6           0       -1.637200    3.937500   -0.958000
     23          6           0       -1.888000   -3.477400   -0.768600
     24          6           0       -3.100000   -2.874000   -0.797200
     25          6           0       -3.308600   -1.541600   -0.273300
     26          6           0       -2.161800   -0.806500    0.186200
     27          6           0       -2.328800    0.577900    0.836900
     28          6           0       -3.777500    0.925500    1.075800
     29          6           0       -4.585400   -1.037000   -0.115500
     30          6           0       -4.801000    0.182800    0.604000
     31          1           0       -5.821700    0.494100    0.804100
     32          1           0       -3.977200    1.817900    1.660600
     33          1           0       -1.812500    0.516700    1.811700
     34          1           0       -5.436700   -1.608700   -0.466900
     35          1           0       -3.966300   -3.407700   -1.174800
     36          1           0       -1.776100   -4.494300   -1.130900
     37          1           0        0.598400   -4.433500   -0.655200
     38          1           0        3.321000   -4.076600   -0.467500
     39          1           0        5.130400   -2.455800   -0.376500
     40          1           0        5.759700    0.287600   -0.280800
     41          1           0        4.815900    2.517200   -0.322100
     42          1           0        2.484500    3.953100   -0.639000
     43          1           0        0.245900    4.999300   -1.110100
     44          1           0       -2.209400    4.750700   -1.388100
     45          1           0       -3.364100    2.711300   -0.608900
     46          1           0        0.114140    3.436870    0.541040
 ---------------------------------------------------------------------
                    Distance matrix (angstroms):
                    1          2          3          4          5
     1  C    0.000000
     2  C    1.397954   0.000000
     3  C    2.444389   1.410310   0.000000
     4  C    2.912405   2.478250   1.395950   0.000000
     5  C    1.428855   2.389013   2.743136   2.462999   0.000000
     6  C    2.481953   2.787558   2.374061   1.422525   1.401126
     7  C    3.562022   2.263818   1.390434   2.468258   4.081936
     8  C    4.751809   3.569909   2.438353   2.922302   5.016830
     9  C    5.024341   4.104106   2.743687   2.468714   4.867064
    10  C    4.314180   3.708583   2.380893   1.445104   3.832982
    11  C    3.610136   2.278453   2.293307   3.620690   4.563188
    12  C    4.889613   3.626101   3.579020   4.803968   5.867577
    13  C    5.844452   4.566775   4.085078   5.041955   6.582410
    14  C    5.789404   4.550038   3.658946   4.283146   6.227489
    15  C    1.432634   2.383145   3.684104   4.305053   2.583564
    16  C    2.465611   2.747918   4.114995   5.054537   3.814887
    17  C    2.934242   2.443825   3.624730   4.837460   4.336148
    18  C    2.504328   1.410978   2.308383   3.626905   3.727920
    19  C    7.138140   5.915520   5.533849   6.461143   7.930426
    20  C    5.554991   4.437764   4.737864   6.029709   6.721086
    21  C    6.819260   5.735477   5.935959   7.148839   7.946511
    22  C    7.514302   6.362518   6.270777   7.337854   8.482995
    23  C    3.787112   4.188020   5.541482   6.452936   5.029820
    24  C    4.903545   5.017504   6.307748   7.364968   6.223144
    25  C    5.175833   4.886766   6.034306   7.251672   6.575344
    26  C    4.325351   3.735306   4.759539   6.048304   5.723844
    27  C    5.270647   4.330676   5.018060   6.390806   6.601391
    28  C    6.666686   5.804440   6.520637   7.897405   8.034566
    29  C    6.527880   6.140623   7.210443   8.481448   7.935764
    30  C    7.154428   6.508645   7.401041   8.748324   8.563882
    31  H    8.227651   7.579668   8.451620   9.808231   9.640948
    32  H    7.448120   6.464273   7.023539   8.405947   8.776995
    33  H    5.090067   4.051107   4.667402   6.063289   6.379732
    34  H    7.263155   7.021114   8.153089   9.384085   8.652687
    35  H    5.866478   6.075492   7.374313   8.397742   7.134908
    36  H    4.109983   4.808279   6.162207   6.909782   5.162310
    37  H    2.186654   3.381087   4.594481   5.002145   2.884714
    38  H    2.173760   3.379150   3.828046   3.428692   1.085592
    39  H    3.445364   3.872020   3.372220   2.177573   2.142312
    40  H    5.036739   4.634115   3.377147   2.193928   4.287113
    41  H    6.081444   5.184723   3.828781   3.440655   5.843592
    42  H    6.738333   5.552779   4.571243   4.982254   7.057840
    43  H    7.932401   6.713991   6.161687   6.932101   8.600725
    44  H    8.554010   7.428961   7.332103   8.363791   9.519157
    45  H    7.461359   6.471176   6.828618   8.075956   8.669577
    46  H    6.365986   5.028377   4.608351   5.652518   7.181316
                    6          7          8          9         10
     6  C    0.000000
     7  C    3.680896   0.000000
     8  C    4.298374   1.401494   0.000000
     9  C    3.811438   2.400465   1.455241   0.000000
    10  C    2.604290   2.782266   2.485789   1.380359   0.000000
    11  C    4.574601   1.435481   2.531125   3.768545   4.170959
    12  C    5.840162   2.435164   2.936494   4.360900   5.086570
    13  C    6.261481   2.742879   2.460620   3.844575   4.894414
    14  C    5.617412   2.384668   1.403129   2.573283   3.792604
    15  C    3.826629   4.557871   5.805858   6.265074   5.666522
    16  C    4.895974   4.601796   5.879027   6.630450   6.303247
    17  C    5.097064   3.691950   4.954986   5.947689   5.904150
    18  C    4.155592   2.315489   3.645847   4.610221   4.606281
    19  C    7.652049   4.217490   3.824616   5.100572   6.232997
    20  C    6.921347   3.758169   4.352206   5.770558   6.446186
    21  C    8.090571   4.849294   5.148417   6.563820   7.397916
    22  C    8.414189   5.036804   4.944111   6.291367   7.313875
    23  C    6.203558   5.948925   7.184109   7.986926   7.688023
    24  C    7.301960   6.448829   7.629454   8.609314   8.501268
    25  C    7.464604   5.880821   6.996946   8.145349   8.251505
    26  C    6.436953   4.496781   5.625487   6.807316   6.978447
    27  C    7.067352   4.362794   5.304567   6.653519   7.092241
    28  C    8.560000   5.820694   6.672777   8.064736   8.573144
    29  C    8.784541   6.889142   7.918559   9.167050   9.403300
    30  C    9.253686   6.848104   7.766360   9.119631   9.531885
    31  H   10.332820   7.850253   8.718341  10.099279  10.562335
    32  H    9.189434   6.180261   6.900497   8.329812   8.961179
    33  H    6.782825   4.045713   5.065504   6.378879   6.779974
    34  H    9.588590   7.902967   8.940831  10.161382  10.349689
    35  H    8.266881   7.522024   8.680750   9.659309   9.541621
    36  H    6.444893   6.735834   7.962989   8.637733   8.199684
    37  H    4.253281   5.566393   6.767611   7.105508   6.379499
    38  H    2.139891   5.161019   6.067780   5.834128   4.714268
    39  H    1.085438   4.607063   5.019711   4.258917   2.915788
    40  H    2.919382   3.867612   3.455120   2.125552   1.085751
    41  H    4.701328   3.388250   2.193181   1.085230   2.126883
    42  H    6.323434   3.386843   2.176082   2.883554   4.222390
    43  H    8.180017   4.836433   4.147366   5.241114   6.485897
    44  H    9.443088   6.090770   5.901855   7.199217   8.272927
    45  H    8.936265   5.821650   6.207606   7.621916   8.409789
    46  H    6.894502   3.240994   3.061885   4.460790   5.530950
                   11         12         13         14         15
    11  C    0.000000
    12  C    1.396361   0.000000
    13  C    2.448569   1.485950   0.000000
    14  C    2.880090   2.567923   1.442646   0.000000
    15  C    4.187789   5.281463   6.432523   6.650681   0.000000
    16  C    3.811363   4.647650   5.954229   6.468329   1.392194
    17  C    2.602987   3.285934   4.679543   5.358140   2.510384
    18  C    1.435984   2.574800   3.814520   4.229883   2.834502
    19  C    3.762944   2.505066   1.485934   2.558395   7.569324
    20  C    2.466548   1.418214   2.530163   3.856280   5.598968
    21  C    3.710958   2.427977   2.880220   4.314469   6.808795
    22  C    4.216723   2.832132   2.503772   3.817193   7.694019
    23  C    5.022526   5.625963   6.966298   7.638186   2.467405
    24  C    5.301748   5.595510   6.964642   7.858009   3.706346
    25  C    4.564450   4.597446   5.983953   7.038166   4.271971
    26  C    3.150898   3.270576   4.713865   5.708477   3.778242
    27  C    2.932613   2.551385   3.926759   5.113919   5.037660
    28  C    4.403054   3.803430   4.988561   6.306327   6.265231
    29  C    5.493878   5.245322   6.556627   7.768710   5.644338
    30  C    5.412659   4.909967   6.123640   7.442421   6.493280
    31  H    6.417362   5.820227   6.942124   8.306811   7.538062
    32  H    4.831719   4.069212   5.055900   6.399652   7.175747
    33  H    2.716784   2.630617   3.997456   5.027518   5.034657
    34  H    6.527384   6.296162   7.583489   8.796061   6.237508
    35  H    6.363679   6.578427   7.922929   8.862888   4.584214
    36  H    5.939569   6.623497   7.923163   8.506251   2.683718
    37  H    5.262224   6.336116   7.464981   7.646955   1.085979
    38  H    5.587087   6.870752   7.614985   7.270491   2.873163
    39  H    5.602099   6.828930   7.128875   6.349052   4.698928
    40  H    5.253731   6.148918   5.867811   4.671505   6.406315
    41  H    4.688570   5.075923   4.280597   2.863599   7.317176
    42  H    3.958447   3.528619   2.177839   1.084205   7.629901
    43  H    4.632065   3.483324   2.202028   2.757432   8.458386
    44  H    5.299261   3.915379   3.479673   4.685547   8.682565
    45  H    4.588254   3.406059   3.963010   5.397340   7.266140
    46  H    2.788689   1.702610   0.967495   2.076474   6.913402
                   16         17         18         19         20
    16  C    0.000000
    17  C    1.470157   0.000000
    18  C    2.445654   1.420704   0.000000
    19  C    6.926609   5.625165   5.020116   0.000000
    20  C    4.646004   3.231160   3.121727   2.852304   0.000000
    21  C    5.797999   4.461899   4.458299   2.429626   1.393674
    22  C    6.830619   5.511616   5.246114   1.390076   2.441114
    23  C    1.442400   2.474915   3.745270   7.745084   5.308730
    24  C    2.441414   2.809398   4.224668   7.524149   4.946141
    25  C    2.879848   2.445577   3.767805   6.427990   3.728918
    26  C    2.502121   1.391393   2.465439   5.348050   2.617005
    27  C    3.901315   2.531700   2.923864   4.394708   1.554409
    28  C    5.004548   3.808464   4.406576   5.089774   2.517726
    29  C    4.253154   3.707838   4.916453   6.743705   4.091268
    30  C    5.131344   4.228548   5.157007   6.152727   3.597710
    31  H    6.168808   5.307766   6.222982   6.813222   4.458670
    32  H    5.972312   4.696112   5.076730   5.002285   2.834782
    33  H    4.065738   2.686972   2.740403   4.693123   2.102564
    34  H    4.871169   4.578422   5.869637   7.706859   5.133313
    35  H    3.427212   3.894223   5.309347   8.374932   5.819964
    36  H    2.177020   3.460117   4.613737   8.728132   6.369307
    37  H    2.134047   3.478728   3.919149   8.574035   6.606042
    38  H    4.239948   5.040403   4.645664   8.930734   7.646589
    39  H    5.857584   6.152158   5.236550   8.497892   7.949292
    40  H    7.172847   6.893854   5.632543   7.146385   7.511934
    41  H    7.670776   6.957165   5.636515   5.342080   6.474922
    42  H    7.478733   6.395150   5.293821   2.758110   4.701630
    43  H    7.898960   6.634737   5.944661   1.083399   3.935112
    44  H    7.773300   6.484660   6.303495   2.134143   3.415644
    45  H    6.120008   4.859052   5.127705   3.399462   2.140076
    46  H    6.340864   4.965161   4.153273   1.541714   2.441114
                   21         22         23         24         25
    21  C    0.000000
    22  C    1.400218   0.000000
    23  C    6.275121   7.421557   0.000000
    24  C    5.718939   6.968656   1.354198   0.000000
    25  C    4.446914   5.769136   2.451683   1.446815   0.000000
    26  C    3.656078   4.908150   2.849617   2.474237   1.437589
    27  C    2.583342   3.871290   4.383765   3.896235   2.585504
    28  C    2.860892   4.217745   5.133960   4.289911   2.850705
    29  C    4.472938   5.843573   3.695681   2.458800   1.381934
    30  C    3.783041   5.152402   4.875107   3.768393   2.443454
    31  H    4.410416   5.698424   5.806909   4.616916   3.408891
    32  H    2.916742   4.101874   6.189182   5.368816   3.933603
    33  H    3.279284   4.404979   4.755679   4.467758   3.289702
    34  H    5.401777   6.740750   4.021981   2.677732   2.137941
    35  H    6.445245   7.708675   2.118770   1.085308   2.174305
    36  H    7.318138   8.434716   1.085297   2.118830   3.435473
    37  H    7.770432   8.669673   2.666303   4.016263   4.875816
    38  H    8.858131   9.436638   5.251988   6.540962   7.100390
    39  H    9.080420   9.328067   7.103193   8.251749   8.489001
    40  H    8.427397   8.276140   8.538178   9.421076   9.250951
    41  H    7.110729   6.638081   9.004269   9.589173   9.082056
    42  H    4.915629   4.134056   8.622522   8.821619   7.992839
    43  H    3.420485   2.167168   8.747834   8.560479   7.491200
    44  H    2.157651   1.083371   8.257645   7.699245   6.484139
    45  H    1.083086   2.146537   6.364305   5.594710   4.266482
    46  H    2.703921   2.359013   7.316478   7.207542   6.096184
                   26         27         28         29         30
    26  C    0.000000
    27  C    1.538786   0.000000
    28  C    2.530158   1.508851   0.000000
    29  C    2.453159   2.933805   2.433784   0.000000
    30  C    2.849324   2.514382   1.349722   1.432507   0.000000
    31  H    3.932967   3.494059   2.106818   2.172181   1.085715
    32  H    3.515254   2.221104   1.085472   3.416854   2.113907
    33  H    2.124881   1.104783   2.137730   3.717130   3.240549
    34  H    3.434390   4.017481   3.399270   1.083990   2.181837
    35  H    3.445981   4.755350   4.886458   2.669386   4.092987
    36  H    3.934893   5.468540   6.184607   4.569040   5.833966
    37  H    4.634845   5.992411   7.131882   6.220874   7.214522
    38  H    6.417318   7.435460   8.819948   8.477867   9.233498
    39  H    7.497533   8.143423   9.638104   9.822316  10.322611
    40  H    8.010325   8.170518   9.654298  10.430867  10.598219
    41  H    7.745557   7.493391   8.850659  10.052834   9.939409
    42  H    6.702451   6.061197   7.163766   8.669408   8.296910
    43  H    6.417533   5.474365   6.128764   7.795358   7.183872
    44  H    5.776085   4.730448   4.812681   6.384541   5.616989
    45  H    3.801661   2.777333   2.489617   3.973005   3.151051
    46  H    4.828251   3.772161   4.662382   6.521674   5.895043
                   31         32         33         34         35
    31  H    0.000000
    32  H    2.426565   0.000000
    33  H    4.133939   2.530193   0.000000
    34  H    2.487053   4.289287   4.779557   0.000000
    35  H    4.752115   5.945293   5.381352   2.428909   0.000000
    36  H    6.707849   7.244390   5.811225   4.708246   2.445323
    37  H    8.223654   8.085731   6.033450   6.666137   4.707307
    38  H   10.300351   9.619650   7.255755   9.098782   7.352037
    39  H   11.403693  10.264632   7.863068  10.601384   9.181141
    40  H   11.633936  10.045799   7.859342  11.357375  10.442679
    41  H   10.886680   9.040947   7.245053  11.052594  10.628197
    42  H    9.112638   7.183370   6.023204   9.680323   9.802106
    43  H    7.795945   5.969310   5.733030   8.739068   9.403428
    44  H    5.997758   4.584867   5.321936   7.190691   8.348155
    45  H    3.598936   2.514893   3.617048   4.793562   6.174548
    46  H    6.630482   4.540214   3.722084   7.568721   8.151211
                   36         37         38         39         40
    36  H    0.000000
    37  H    2.422445   0.000000
    38  H    5.157034   2.752301   0.000000
    39  H    7.240466   4.952575   2.430885   0.000000
    40  H    8.965351   7.004854   5.002835   2.816278   0.000000
    41  H    9.657627   8.136983   6.762697   4.983232   2.421483
    42  H    9.473819   8.596086   8.074975   6.938566   4.928604
    43  H    9.706563   9.450339   9.604225   8.942876   7.299989
    44  H    9.258722   9.631740  10.457249  10.335843   9.200648
    45  H    7.396952   8.170172   9.528176   9.945324   9.445936
    46  H    8.322971   7.975476   8.231241   7.792837   6.516569
                   41         42         43         44         45
    41  H    0.000000
    42  H    2.756385   0.000000
    43  H    5.259911   2.515512   0.000000
    44  H    7.448471   4.819752   2.483462   0.000000
    45  H    8.187327   5.979055   4.303283   2.469744   0.000000
    46  H    4.867992   2.697702   2.277018   3.293413   3.734564
                   46
    46  H    0.000000
 Stoichiometry    C30H16
 Framework group  C1[X(C30H16)]
 Deg. of freedom   132
 Full point group                 C1      NOp   1
 Largest Abelian subgroup         C1      NOp   1
 Largest concise Abelian subgroup C1      NOp   1
                         Standard orientation:                         
 ---------------------------------------------------------------------
 Center     Atomic      Atomic             Coordinates (Angstroms)
 Number     Number       Type             X           Y           Z
 ---------------------------------------------------------------------
      1          6           0        1.723757   -2.701694    0.069672
      2          6           0        1.513608   -1.390256    0.505839
      3          6           0        2.571831   -0.458766    0.544104
      4          6           0        3.886489   -0.754216    0.179328
      5          6           0        3.088026   -3.059472   -0.159222
      6          6           0        4.131450   -2.125789   -0.107655
      7          6           0        2.017590    0.816429    0.543459
      8          6           0        2.749981    1.937583    0.130177
      9          6           0        4.168729    1.685308   -0.072888
     10          6           0        4.705569    0.413804   -0.051241
     11          6           0        0.587614    0.691057    0.550818
     12          6           0       -0.182594    1.799312    0.192524
     13          6           0        0.565777    3.020364   -0.203730
     14          6           0        2.007268    3.073143   -0.227109
     15          6           0        0.531793   -3.411519   -0.287832
     16          6           0       -0.715824   -2.793858   -0.275565
     17          6           0       -0.906888   -1.405719    0.169323
     18          6           0        0.277279   -0.710897    0.534523
     19          6           0       -0.265924    4.098274   -0.799032
     20          6           0       -1.598184    1.750264    0.121604
     21          6           0       -2.287876    2.781912   -0.512710
     22          6           0       -1.637893    3.939859   -0.956883
     23          6           0       -1.887293   -3.475141   -0.769561
     24          6           0       -3.099406   -2.871962   -0.797997
     25          6           0       -3.308261   -1.539748   -0.273725
     26          6           0       -2.161602   -0.804560    0.185986
     27          6           0       -2.328866    0.579626    0.837073
     28          6           0       -3.777633    0.926885    1.076064
     29          6           0       -4.585157   -1.035434   -0.115790
     30          6           0       -4.800990    0.184124    0.604051
     31          1           0       -5.821750    0.495175    0.804233
     32          1           0       -3.977504    1.819083    1.661113
     33          1           0       -1.812559    0.518250    1.811858
     34          1           0       -5.436347   -1.607196   -0.467354
     35          1           0       -3.965604   -3.405720   -1.175751
     36          1           0       -1.775199   -4.491918   -1.132145
     37          1           0        0.599288   -4.430803   -0.656417
     38          1           0        3.321819   -4.073441   -0.468605
     39          1           0        5.130912   -2.452325   -0.377142
     40          1           0        5.759694    0.291167   -0.280671
     41          1           0        4.815473    2.520600   -0.321351
     42          1           0        2.483803    3.956148   -0.637859
     43          1           0        0.245007    5.002057   -1.108677
     44          1           0       -2.210245    4.753071   -1.386758
     45          1           0       -3.364563    2.713235   -0.608134
     46          1           0        0.113535    3.439140    0.542025
 ---------------------------------------------------------------------
 Rotational constants (GHZ):           0.2521813           0.1747125           0.1076922
 Standard basis: 6-311+G(d,p) (5D, 7F)
 There are   786 symmetry adapted cartesian basis functions of A   symmetry.
 There are   756 symmetry adapted basis functions of A   symmetry.
   756 basis functions,  1208 primitive gaussians,   786 cartesian basis functions
    98 alpha electrons       98 beta electrons
       nuclear repulsion energy      2648.9516933820 Hartrees.
 NAtoms=   46 NActive=   46 NUniq=   46 SFac= 1.00D+00 NAtFMM=   60 NAOKFM=F Big=F
 Integral buffers will be    131072 words long.
 Raffenetti 2 integral format.
 Two-electron integral symmetry is turned on.
 One-electron integrals computed using PRISM.
 NBasis=   756 RedAO= T EigKep=  1.00D-06  NBF=   756
 NBsUse=   737 1.00D-06 EigRej=  8.70D-07 NBFU=   737
 ExpMin= 4.38D-02 ExpMax= 4.56D+03 ExpMxC= 6.82D+02 IAcc=2 IRadAn=         4 AccDes= 0.00D+00
 Harris functional with IExCor=  402 and IRadAn=       4 diagonalized for initial guess.
 HarFok:  IExCor=  402 AccDes= 0.00D+00 IRadAn=         4 IDoV= 1 UseB2=F ITyADJ=14
 ICtDFT=  3500011 ScaDFX=  1.000000  1.000000  1.000000  1.000000
 FoFCou: FMM=F IPFlag=           0 FMFlag=      100000 FMFlg1=           0
         NFxFlg=           0 DoJE=T BraDBF=F KetDBF=T FulRan=T
         wScrn=  0.000000 ICntrl=       500 IOpCl=  0 I1Cent=   200000004 NGrid=           0
         NMat0=    1 NMatS0=      1 NMatT0=    0 NMatD0=    1 NMtDS0=    0 NMtDT0=    0
 Petite list used in FoFCou.
 Requested convergence on RMS density matrix=1.00D-08 within 128 cycles.
 Requested convergence on MAX density matrix=1.00D-06.
 Requested convergence on             energy=1.00D-06.
 No special actions if energy rises.
 Restarting incremental Fock formation.
 SCF Done:  E(RB3LYP) =  -1152.95131930     A.U. after   21 cycles
            NFock= 21  Conv=0.67D-08     -V/T= 2.0042

 **********************************************************************

            Population analysis using the SCF Density.

 **********************************************************************

 Orbital symmetries:
       Occupied  (A) (A) (A) (A) (A) (A) (A) (A) (A) (A) (A) (A)
                 (A) (A) (A) (A) (A) (A) (A) (A) (A) (A) (A) (A)
                 (A) (A) (A) (A) (A) (A) (A) (A) (A) (A) (A) (A)
                 (A) (A) (A) (A) (A) (A) (A) (A) (A) (A) (A) (A)
                 (A) (A) (A) (A) (A) (A) (A) (A) (A) (A) (A) (A)
                 (A) (A) (A) (A) (A) (A) (A) (A) (A) (A) (A) (A)
                 (A) (A) (A) (A) (A) (A) (A) (A) (A) (A) (A) (A)
                 (A) (A) (A) (A) (A) (A) (A) (A) (A) (A) (A) (A)
                 (A) (A)
       Virtual   (A) (A) (A) (A) (A) (A) (A) (A) (A) (A) (A) (A)
                 (A) (A) (A) (A) (A) (A) (A) (A) (A) (A) (A) (A)
                 (A) (A) (A) (A) (A) (A) (A) (A) (A) (A) (A) (A)
                 (A) (A) (A) (A) (A) (A) (A) (A) (A) (A) (A) (A)
                 (A) (A) (A) (A) (A) (A) (A) (A) (A) (A) (A) (A)
                 (A) (A) (A) (A) (A) (A) (A) (A) (A) (A) (A) (A)
                 (A) (A) (A) (A) (A) (A) (A) (A) (A) (A) (A) (A)
                 (A) (A) (A) (A) (A) (A) (A) (A) (A) (A) (A) (A)
                 (A) (A) (A) (A) (A) (A) (A) (A) (A) (A) (A) (A)
                 (A) (A) (A) (A) (A) (A) (A) (A) (A) (A) (A) (A)
                 (A) (A) (A) (A) (A) (A) (A) (A) (A) (A) (A) (A)
                 (A) (A) (A) (A) (A) (A) (A) (A) (A) (A) (A) (A)
                 (A) (A) (A) (A) (A) (A) (A) (A) (A) (A) (A) (A)
                 (A) (A) (A) (A) (A) (A) (A) (A) (A) (A) (A) (A)
                 (A) (A) (A) (A) (A) (A) (A) (A) (A) (A) (A) (A)
                 (A) (A) (A) (A) (A) (A) (A) (A) (A) (A) (A) (A)
                 (A) (A) (A) (A) (A) (A) (A) (A) (A) (A) (A) (A)
                 (A) (A) (A) (A) (A) (A) (A) (A) (A) (A) (A) (A)
                 (A) (A) (A) (A) (A) (A) (A) (A) (A) (A) (A) (A)
                 (A) (A) (A) (A) (A) (A) (A) (A) (A) (A) (A) (A)
                 (A) (A) (A) (A) (A) (A) (A) (A) (A) (A) (A) (A)
                 (A) (A) (A) (A) (A) (A) (A) (A) (A) (A) (A) (A)
                 (A) (A) (A) (A) (A) (A) (A) (A) (A) (A) (A) (A)
                 (A) (A) (A) (A) (A) (A) (A) (A) (A) (A) (A) (A)
                 (A) (A) (A) (A) (A) (A) (A) (A) (A) (A) (A) (A)
                 (A) (A) (A) (A) (A) (A) (A) (A) (A) (A) (A) (A)
                 (A) (A) (A) (A) (A) (A) (A) (A) (A) (A) (A) (A)
                 (A) (A) (A) (A) (A) (A) (A) (A) (A) (A) (A) (A)
                 (A) (A) (A) (A) (A) (A) (A) (A) (A) (A) (A) (A)
                 (A) (A) (A) (A) (A) (A) (A) (A) (A) (A) (A) (A)
                 (A) (A) (A) (A) (A) (A) (A) (A) (A) (A) (A) (A)
                 (A) (A) (A) (A) (A) (A) (A) (A) (A) (A) (A) (A)
                 (A) (A) (A) (A) (A) (A) (A) (A) (A) (A) (A) (A)
                 (A) (A) (A) (A) (A) (A) (A) (A) (A) (A) (A) (A)
                 (A) (A) (A) (A) (A) (A) (A) (A) (A) (A) (A) (A)
                 (A) (A) (A) (A) (A) (A) (A) (A) (A) (A) (A) (A)
                 (A) (A) (A) (A) (A) (A) (A) (A) (A) (A) (A) (A)
                 (A) (A) (A) (A) (A) (A) (A) (A) (A) (A) (A) (A)
                 (A) (A) (A) (A) (A) (A) (A) (A) (A) (A) (A) (A)
                 (A) (A) (A) (A) (A) (A) (A) (A) (A) (A) (A) (A)
                 (A) (A) (A) (A) (A) (A) (A) (A) (A) (A) (A) (A)
                 (A) (A) (A) (A) (A) (A) (A) (A) (A) (A) (A) (A)
                 (A) (A) (A) (A) (A) (A) (A) (A) (A) (A) (A) (A)
                 (A) (A) (A) (A) (A) (A) (A) (A) (A) (A) (A) (A)
                 (A) (A) (A) (A) (A) (A) (A) (A) (A) (A) (A) (A)
                 (A) (A) (A) (A) (A) (A) (A) (A) (A) (A) (A) (A)
                 (A) (A) (A) (A) (A) (A) (A) (A) (A) (A) (A) (A)
                 (A) (A) (A) (A) (A) (A) (A) (A) (A) (A) (A) (A)
                 (A) (A) (A) (A) (A) (A) (A) (A) (A) (A) (A) (A)
                 (A) (A) (A) (A) (A) (A) (A) (A) (A) (A) (A) (A)
                 (A) (A) (A) (A) (A) (A) (A) (A) (A) (A) (A) (A)
                 (A) (A) (A) (A) (A) (A) (A) (A) (A) (A) (A) (A)
                 (A) (A) (A) (A) (A) (A) (A) (A) (A) (A) (A) (A)
                 (A) (A) (A)
 The electronic state is 1-A.
 Alpha  occ. eigenvalues --  -10.23741 -10.22825 -10.22556 -10.21557 -10.21150
 Alpha  occ. eigenvalues --  -10.20603 -10.20169 -10.20007 -10.19148 -10.18917
 Alpha  occ. eigenvalues --  -10.18692 -10.18611 -10.18561 -10.18557 -10.18335
 Alpha  occ. eigenvalues --  -10.18217 -10.18096 -10.18054 -10.18044 -10.17780
 Alpha  occ. eigenvalues --  -10.17617 -10.17293 -10.17286 -10.17209 -10.17186
 Alpha  occ. eigenvalues --  -10.17039 -10.16768 -10.16579 -10.16208 -10.15926
 Alpha  occ. eigenvalues --   -0.93773  -0.90571  -0.87664  -0.84804  -0.84042
 Alpha  occ. eigenvalues --   -0.83825  -0.81060  -0.79878  -0.78828  -0.77518
 Alpha  occ. eigenvalues --   -0.75622  -0.74167  -0.72836  -0.71167  -0.70618
 Alpha  occ. eigenvalues --   -0.67370  -0.65916  -0.65315  -0.62849  -0.62020
 Alpha  occ. eigenvalues --   -0.60557  -0.59261  -0.58662  -0.57269  -0.55927
 Alpha  occ. eigenvalues --   -0.53335  -0.52463  -0.51297  -0.50721  -0.50577
 Alpha  occ. eigenvalues --   -0.49355  -0.49264  -0.47632  -0.46718  -0.45909
 Alpha  occ. eigenvalues --   -0.45405  -0.44849  -0.44497  -0.43778  -0.42841
 Alpha  occ. eigenvalues --   -0.42553  -0.41912  -0.41833  -0.40650  -0.40504
 Alpha  occ. eigenvalues --   -0.40379  -0.39892  -0.39010  -0.38481  -0.37490
 Alpha  occ. eigenvalues --   -0.36274  -0.35789  -0.35425  -0.34788  -0.34390
 Alpha  occ. eigenvalues --   -0.34240  -0.33675  -0.32509  -0.31795  -0.31667
 Alpha  occ. eigenvalues --   -0.29395  -0.28617  -0.26866  -0.26077  -0.23078
 Alpha  occ. eigenvalues --   -0.22077  -0.19987  -0.15649
 Alpha virt. eigenvalues --   -0.10156  -0.09005  -0.04937  -0.04133  -0.01637
 Alpha virt. eigenvalues --   -0.01078  -0.00239   0.00537   0.00737   0.01137
 Alpha virt. eigenvalues --    0.01283   0.01708   0.01803   0.02873   0.03217
 Alpha virt. eigenvalues --    0.03290   0.03555   0.03887   0.03981   0.04737
 Alpha virt. eigenvalues --    0.04950   0.05147   0.05487   0.06085   0.06202
 Alpha virt. eigenvalues --    0.06593   0.06695   0.07138   0.07437   0.08031
 Alpha virt. eigenvalues --    0.08583   0.08737   0.09023   0.09078   0.09668
 Alpha virt. eigenvalues --    0.10069   0.10121   0.10202   0.10420   0.10725
 Alpha virt. eigenvalues --    0.11050   0.11673   0.12255   0.12610   0.12970
 Alpha virt. eigenvalues --    0.13606   0.13709   0.14001   0.14056   0.14440
 Alpha virt. eigenvalues --    0.14527   0.14710   0.14994   0.15313   0.15649
 Alpha virt. eigenvalues --    0.16167   0.16396   0.16455   0.16620   0.16779
 Alpha virt. eigenvalues --    0.17015   0.17299   0.17468   0.17624   0.18050
 Alpha virt. eigenvalues --    0.18208   0.18299   0.18504   0.18938   0.19187
 Alpha virt. eigenvalues --    0.19366   0.19449   0.19661   0.19824   0.20129
 Alpha virt. eigenvalues --    0.20175   0.20579   0.20784   0.20945   0.21068
 Alpha virt. eigenvalues --    0.21259   0.21418   0.21479   0.21638   0.22078
 Alpha virt. eigenvalues --    0.22595   0.22694   0.23010   0.23198   0.23506
 Alpha virt. eigenvalues --    0.23558   0.23924   0.24109   0.24394   0.24540
 Alpha virt. eigenvalues --    0.24790   0.25045   0.25288   0.25623   0.25706
 Alpha virt. eigenvalues --    0.26040   0.26222   0.26294   0.26437   0.26698
 Alpha virt. eigenvalues --    0.26900   0.27113   0.27366   0.27592   0.27790
 Alpha virt. eigenvalues --    0.28056   0.28289   0.28686   0.29212   0.29296
 Alpha virt. eigenvalues --    0.29513   0.30193   0.30291   0.30410   0.30555
 Alpha virt. eigenvalues --    0.30765   0.31310   0.31745   0.31925   0.32099
 Alpha virt. eigenvalues --    0.32293   0.32610   0.32861   0.33279   0.33561
 Alpha virt. eigenvalues --    0.33952   0.34336   0.34603   0.34806   0.35256
 Alpha virt. eigenvalues --    0.35477   0.35659   0.36645   0.36873   0.37183
 Alpha virt. eigenvalues --    0.37587   0.37803   0.38277   0.38325   0.38555
 Alpha virt. eigenvalues --    0.39164   0.39611   0.40421   0.40624   0.41426
 Alpha virt. eigenvalues --    0.41553   0.42035   0.43732   0.43921   0.44615
 Alpha virt. eigenvalues --    0.44707   0.45334   0.45911   0.47338   0.47767
 Alpha virt. eigenvalues --    0.48805   0.49205   0.49991   0.50099   0.50692
 Alpha virt. eigenvalues --    0.51330   0.51883   0.52814   0.53031   0.53763
 Alpha virt. eigenvalues --    0.54095   0.54368   0.54831   0.55237   0.55600
 Alpha virt. eigenvalues --    0.55948   0.56082   0.56357   0.56928   0.57304
 Alpha virt. eigenvalues --    0.57508   0.58105   0.58472   0.58727   0.58934
 Alpha virt. eigenvalues --    0.59353   0.59900   0.60071   0.60480   0.60592
 Alpha virt. eigenvalues --    0.61204   0.61321   0.62026   0.62605   0.62918
 Alpha virt. eigenvalues --    0.63052   0.64203   0.64687   0.65126   0.65707
 Alpha virt. eigenvalues --    0.66014   0.66318   0.67039   0.67347   0.67615
 Alpha virt. eigenvalues --    0.67950   0.68060   0.68919   0.69393   0.69699
 Alpha virt. eigenvalues --    0.70070   0.70188   0.70934   0.71073   0.71668
 Alpha virt. eigenvalues --    0.71826   0.72213   0.72605   0.72796   0.73452
 Alpha virt. eigenvalues --    0.73584   0.73752   0.74192   0.74413   0.74725
 Alpha virt. eigenvalues --    0.74882   0.75459   0.75979   0.76225   0.76578
 Alpha virt. eigenvalues --    0.76813   0.77226   0.77479   0.77825   0.78395
 Alpha virt. eigenvalues --    0.78841   0.79211   0.80345   0.81391   0.81558
 Alpha virt. eigenvalues --    0.82281   0.82477   0.82756   0.83928   0.84061
 Alpha virt. eigenvalues --    0.84420   0.85042   0.85241   0.85742   0.85798
 Alpha virt. eigenvalues --    0.86509   0.87514   0.87828   0.87960   0.88594
 Alpha virt. eigenvalues --    0.89225   0.89680   0.89951   0.90741   0.90962
 Alpha virt. eigenvalues --    0.91480   0.91857   0.92317   0.93069   0.93369
 Alpha virt. eigenvalues --    0.93510   0.93714   0.94111   0.94929   0.95094
 Alpha virt. eigenvalues --    0.95944   0.96535   0.96816   0.97079   0.97986
 Alpha virt. eigenvalues --    0.98235   0.99244   0.99724   1.00232   1.00931
 Alpha virt. eigenvalues --    1.01546   1.01756   1.02356   1.03150   1.03629
 Alpha virt. eigenvalues --    1.04629   1.05044   1.05454   1.06303   1.06915
 Alpha virt. eigenvalues --    1.07375   1.07839   1.08742   1.09071   1.09509
 Alpha virt. eigenvalues --    1.10354   1.10863   1.11235   1.11447   1.12575
 Alpha virt. eigenvalues --    1.13366   1.14820   1.15876   1.16277   1.19020
 Alpha virt. eigenvalues --    1.19360   1.19633   1.20737   1.22006   1.22257
 Alpha virt. eigenvalues --    1.24019   1.25540   1.26159   1.27511   1.28571
 Alpha virt. eigenvalues --    1.29202   1.30747   1.32212   1.33217   1.34259
 Alpha virt. eigenvalues --    1.35387   1.36087   1.37259   1.37816   1.39596
 Alpha virt. eigenvalues --    1.40906   1.41440   1.42160   1.43560   1.44273
 Alpha virt. eigenvalues --    1.45455   1.46233   1.46681   1.47241   1.48357
 Alpha virt. eigenvalues --    1.48891   1.49126   1.49715   1.51083   1.51852
 Alpha virt. eigenvalues --    1.51981   1.52129   1.53233   1.53438   1.53861
 Alpha virt. eigenvalues --    1.54471   1.55319   1.56028   1.56866   1.57154
 Alpha virt. eigenvalues --    1.57739   1.58145   1.58381   1.58986   1.59294
 Alpha virt. eigenvalues --    1.60730   1.60968   1.62203   1.62592   1.63159
 Alpha virt. eigenvalues --    1.64341   1.65212   1.65867   1.66212   1.67616
 Alpha virt. eigenvalues --    1.68062   1.68658   1.69610   1.69973   1.70809
 Alpha virt. eigenvalues --    1.71152   1.73013   1.73205   1.73415   1.74472
 Alpha virt. eigenvalues --    1.75067   1.75314   1.75756   1.76363   1.77038
 Alpha virt. eigenvalues --    1.77906   1.78226   1.79046   1.79306   1.80984
 Alpha virt. eigenvalues --    1.81585   1.81766   1.82497   1.83236   1.83819
 Alpha virt. eigenvalues --    1.85489   1.85973   1.86369   1.86839   1.87407
 Alpha virt. eigenvalues --    1.88079   1.88197   1.88749   1.89715   1.90307
 Alpha virt. eigenvalues --    1.90422   1.91028   1.91831   1.92129   1.93029
 Alpha virt. eigenvalues --    1.93659   1.94646   1.95167   1.95747   1.96078
 Alpha virt. eigenvalues --    1.96928   1.97120   1.97818   1.98156   1.99239
 Alpha virt. eigenvalues --    1.99985   2.00677   2.00884   2.01970   2.02866
 Alpha virt. eigenvalues --    2.03858   2.04855   2.05585   2.06542   2.06578
 Alpha virt. eigenvalues --    2.07118   2.07649   2.09805   2.10408   2.11561
 Alpha virt. eigenvalues --    2.11747   2.12335   2.12938   2.13708   2.15478
 Alpha virt. eigenvalues --    2.16016   2.17154   2.18918   2.19175   2.19795
 Alpha virt. eigenvalues --    2.20774   2.21514   2.22162   2.23033   2.23581
 Alpha virt. eigenvalues --    2.24714   2.25758   2.26669   2.27634   2.28405
 Alpha virt. eigenvalues --    2.29365   2.30554   2.32765   2.33352   2.34936
 Alpha virt. eigenvalues --    2.36247   2.37188   2.37735   2.39520   2.40580
 Alpha virt. eigenvalues --    2.41170   2.41827   2.43617   2.44302   2.45631
 Alpha virt. eigenvalues --    2.46434   2.48710   2.50126   2.51496   2.51820
 Alpha virt. eigenvalues --    2.53921   2.54630   2.55516   2.56639   2.57169
 Alpha virt. eigenvalues --    2.59014   2.59319   2.60277   2.61664   2.62763
 Alpha virt. eigenvalues --    2.64373   2.65908   2.67057   2.68454   2.69256
 Alpha virt. eigenvalues --    2.69702   2.70835   2.71235   2.71900   2.72093
 Alpha virt. eigenvalues --    2.72591   2.72775   2.73284   2.74114   2.74402
 Alpha virt. eigenvalues --    2.75386   2.75700   2.76436   2.76714   2.76767
 Alpha virt. eigenvalues --    2.77120   2.77646   2.78244   2.78312   2.78706
 Alpha virt. eigenvalues --    2.79267   2.79924   2.80305   2.81440   2.82008
 Alpha virt. eigenvalues --    2.83033   2.83782   2.84040   2.85565   2.86261
 Alpha virt. eigenvalues --    2.86576   2.87364   2.87766   2.88677   2.89605
 Alpha virt. eigenvalues --    2.90799   2.91438   2.92752   2.93847   2.94105
 Alpha virt. eigenvalues --    2.95134   2.96783   2.99099   3.00302   3.01493
 Alpha virt. eigenvalues --    3.02242   3.03948   3.05063   3.07274   3.08518
 Alpha virt. eigenvalues --    3.09441   3.10443   3.13449   3.14870   3.15314
 Alpha virt. eigenvalues --    3.15980   3.18098   3.18543   3.20470   3.20825
 Alpha virt. eigenvalues --    3.21921   3.22766   3.23165   3.23489   3.25926
 Alpha virt. eigenvalues --    3.28176   3.29015   3.32819   3.34030   3.34714
 Alpha virt. eigenvalues --    3.35746   3.36270   3.37804   3.38146   3.39509
 Alpha virt. eigenvalues --    3.41840   3.41976   3.42763   3.43420   3.44046
 Alpha virt. eigenvalues --    3.46913   3.48724   3.49590   3.51282   3.53669
 Alpha virt. eigenvalues --    3.55159   3.56641   3.57841   3.61185   3.61747
 Alpha virt. eigenvalues --    3.62866   3.64679   3.69342   3.73071   3.74656
 Alpha virt. eigenvalues --    3.78098   3.83056   3.84576   3.88467   3.95964
 Alpha virt. eigenvalues --    3.99900   4.01040   4.04256   4.05819   4.06942
 Alpha virt. eigenvalues --    4.08438   4.10096   4.11292   4.16845   4.20840
 Alpha virt. eigenvalues --    4.24853   4.29453   4.32873   4.35472   4.51593
 Alpha virt. eigenvalues --    4.60368   4.67789   4.72521   4.73961   4.75614
 Alpha virt. eigenvalues --    4.77678   4.82578   4.88483   4.91139  23.42775
 Alpha virt. eigenvalues --   23.63628  23.67224  23.77264  23.82228  23.83046
 Alpha virt. eigenvalues --   23.85297  23.87886  23.88262  23.90473  23.92847
 Alpha virt. eigenvalues --   23.96640  23.97298  24.00333  24.01611  24.03660
 Alpha virt. eigenvalues --   24.05725  24.07172  24.07289  24.08531  24.09981
 Alpha virt. eigenvalues --   24.10185  24.11843  24.12382  24.13059  24.13425
 Alpha virt. eigenvalues --   24.14188  24.18132  24.22758  24.24067
          Condensed to atoms (all electrons):
               1          2          3          4          5          6
     1  C   15.991670   0.401731  -3.356702   2.830373  -4.590712   1.316657
     2  C    0.401731  11.246945   1.553577  -2.296002  -1.608242   2.204407
     3  C   -3.356702   1.553577  13.517154  -0.776842   3.298259  -1.988806
     4  C    2.830373  -2.296002  -0.776842  14.732929  -1.002511  -1.888192
     5  C   -4.590712  -1.608242   3.298259  -1.002511  13.061850  -1.255723
     6  C    1.316657   2.204407  -1.988806  -1.888192  -1.255723  11.417974
     7  C   -2.237529  -1.435207   1.705316  -1.395287   1.238989  -2.140278
     8  C    0.161340  -2.701115  -2.248099   1.866069   0.650641  -1.051573
     9  C    0.473074   1.633986   2.130955  -0.976016  -0.717123   1.286745
    10  C    0.124649  -2.494550  -3.261385  -0.986868   0.325355  -1.102004
    11  C   -3.293026  -0.618667  -0.011054  -2.384794   0.592875  -0.972703
    12  C   -0.173718  -0.920447  -0.479412   0.234692   0.028848  -0.280467
    13  C   -0.084263  -0.041825  -0.092430  -0.170235  -0.041384  -0.009365
    14  C   -0.062701  -0.021416  -0.392913  -0.433559  -0.114265   0.095629
    15  C    0.938127  -0.453547  -0.658244   0.305731  -0.774298  -0.414025
    16  C    0.112869  -0.452177  -0.041039  -0.779202  -0.089703   0.062299
    17  C   -0.121917   0.395366  -0.758631   0.464970  -1.163865   0.190150
    18  C   -0.247797   2.311681  -0.883192  -1.066843  -1.782785   0.493772
    19  C    0.074957   0.102694   0.118653   0.062562  -0.036849   0.021014
    20  C    0.129710   0.100267  -0.365779  -0.263522  -0.016046   0.022663
    21  C    0.168347   0.212878   0.139136   0.061979  -0.013022   0.012569
    22  C   -0.035037  -0.031027  -0.109820  -0.057051   0.006077  -0.001190
    23  C   -1.567337  -0.709244   0.227283  -0.117086   0.210792  -0.273731
    24  C    0.106600  -0.125551  -0.181435  -0.020195  -0.302437   0.020933
    25  C    0.319546  -0.237694   0.131301   0.043554  -0.045745   0.017629
    26  C   -0.779842  -0.132627  -0.590322  -0.114551  -0.113050   0.023927
    27  C   -0.687253  -0.041265  -0.637905   0.502223  -0.128595  -0.157901
    28  C   -0.091823   0.240516  -0.055984   0.082467  -0.009818  -0.014462
    29  C   -0.050799  -0.143732  -0.023602  -0.013857   0.000181   0.000715
    30  C   -0.028360  -0.034052  -0.009524   0.002264  -0.009642  -0.000526
    31  H    0.000041   0.000052  -0.000009  -0.000002   0.000004  -0.000000
    32  H   -0.000054   0.000315   0.000154   0.000014  -0.000015   0.000000
    33  H   -0.004189  -0.022813   0.002745  -0.004071   0.000076  -0.000537
    34  H    0.000323  -0.000370   0.000079   0.000005   0.000014   0.000003
    35  H    0.001674   0.000953   0.000240   0.000052   0.000359  -0.000010
    36  H    0.044352   0.008413   0.000718   0.000230   0.005053   0.000760
    37  H   -0.057417  -0.004251   0.003621   0.005377   0.048572   0.005994
    38  H   -0.093017   0.027312  -0.017876  -0.044121   0.376695   0.004536
    39  H   -0.042175  -0.026398   0.056649  -0.065037   0.053684   0.311406
    40  H    0.011427   0.015688   0.046815  -0.083858  -0.009741   0.043989
    41  H   -0.000519  -0.003403  -0.022040  -0.042763  -0.000858   0.003445
    42  H    0.000535   0.001171   0.004331   0.005614   0.000091  -0.000124
    43  H   -0.000107  -0.000502   0.000323  -0.000043   0.000001   0.000025
    44  H    0.000014   0.000136   0.000269   0.000013  -0.000002  -0.000002
    45  H   -0.000129  -0.000200  -0.000449   0.000012  -0.000025   0.000009
    46  H   -0.002750  -0.008009  -0.017972  -0.005809  -0.000252   0.000483
               7          8          9         10         11         12
     1  C   -2.237529   0.161340   0.473074   0.124649  -3.293026  -0.173718
     2  C   -1.435207  -2.701115   1.633986  -2.494550  -0.618667  -0.920447
     3  C    1.705316  -2.248099   2.130955  -3.261385  -0.011054  -0.479412
     4  C   -1.395287   1.866069  -0.976016  -0.986868  -2.384794   0.234692
     5  C    1.238989   0.650641  -0.717123   0.325355   0.592875   0.028848
     6  C   -2.140278  -1.051573   1.286745  -1.102004  -0.972703  -0.280467
     7  C   10.127179   0.278728  -1.294570   1.434530   1.854431   0.014665
     8  C    0.278728  16.020311  -5.185538   2.775476   0.010635   0.657992
     9  C   -1.294570  -5.185538  12.770620  -2.606444  -1.351036  -1.321994
    10  C    1.434530   2.775476  -2.606444  12.367258   0.324188   0.582119
    11  C    1.854431   0.010635  -1.351036   0.324188  11.849886   1.170116
    12  C    0.014665   0.657992  -1.321994   0.582119   1.170116  10.219966
    13  C    0.254355  -1.641397   0.312296  -0.429596   0.076498  -1.101113
    14  C   -0.086544   0.037439  -0.146835  -0.364728   0.828543   0.149616
    15  C   -0.039275   0.066958  -0.107811   0.226649  -0.258024   0.127265
    16  C   -0.339458   0.030990   0.109607  -0.226101  -0.286971  -0.361720
    17  C   -0.651291  -0.203060  -0.013301   0.022674   0.157224  -0.111141
    18  C   -0.682456  -2.219155   0.428405  -0.700647   0.308148   0.067114
    19  C   -0.870282  -0.347242  -0.052498  -0.062668  -0.317946   0.113777
    20  C   -0.450123  -0.652662   0.316051  -0.157004   0.389047   0.770558
    21  C    0.652681  -0.206061   0.179110  -0.106281  -1.795190  -1.264445
    22  C    0.133803  -0.186255  -0.035406  -0.006277  -0.115960  -0.873831
    23  C    0.110798   0.083200  -0.041421   0.026412   0.549098   0.118442
    24  C   -0.092935  -0.069281   0.004951  -0.006015  -0.239875   0.122921
    25  C   -0.039567  -0.026886   0.009802  -0.017369  -0.736559   0.062400
    26  C   -0.239042   0.106160   0.087437  -0.051289   0.572937  -1.288378
    27  C   -0.267560   0.060007  -0.311009   0.180590   0.459114  -0.212555
    28  C    0.215834  -0.188685  -0.037673   0.003511  -0.518734   0.617641
    29  C   -0.016606   0.015032   0.002028   0.000172   0.042255  -0.252994
[...]
 ,-0.00004422,0.00010220,0.00013288,0.00042200,0.00000715,-0.00004904,0
 .00003204,0.00001888,-0.00001305,-0.00000811,0.00002021,0.00004493,0.0
 0003764,-0.00000632,0.00000052,-0.00000101,0.00000127,-0.00000466,-0.0
 0002680,-0.00003971,-0.00009169,0.00007687,-0.00000323,-0.00000675,-0.
 00000243,-0.00000415,-0.00000357,-0.00000151,0.00000312,-0.00000358,-0
 .00000135,0.00000169,-0.00000208,-0.00000448,-0.00000412,-0.00000269,-
 0.00000303,0.00000349,0.00000241,-0.00000110,0.00000481,-0.00000396,0.
 00000643,-0.00000893,0.00000738,-0.00000425,-0.00025901,-0.00028974,0.
 00010634,0.12419306,-0.00001300,0.00007425,-0.00001520,0.00003840,-0.0
 0010934,-0.00005051,0.00013286,-0.00008556,0.00002306,-0.00004003,0.00
 007174,0.00005096,0.00010017,-0.00002198,-0.00001850,-0.00006278,-0.00
 009810,-0.00002339,-0.00018472,0.00032641,-0.00006841,0.00050236,-0.00
 015407,-0.00031760,-0.00008436,-0.00002643,0.00005260,0.00000415,-0.00
 008254,-0.00000914,-0.00085417,-0.00050539,0.00019408,0.00350828,0.000
 39856,0.00287342,-0.00869585,-0.01238399,0.00399715,-0.00232170,0.0006
 3870,-0.00061571,0.00001266,-0.00000724,-0.00000021,-0.00003461,0.0000
 0397,-0.00001506,0.00009426,-0.00004907,0.00001186,0.00010101,-0.00004
 623,0.00010626,-0.11681001,-0.23985935,0.07722724,-0.00023576,0.000388
 91,-0.00080807,-0.00203514,0.00345979,0.00348248,0.00087688,0.00081052
 ,0.00350444,0.00000201,-0.00000706,-0.00000391,-0.00001170,-0.00000993
 ,-0.00000854,0.00002511,-0.00005211,-0.00001181,-0.00008931,-0.0000495
 2,0.00015117,-0.00012601,-0.00030875,-0.00065425,0.00002437,-0.0001047
 4,0.00005831,0.00004847,0.00004633,0.00001561,-0.00002653,0.00000833,0
 .00003321,0.00000068,-0.00000260,-0.00000246,0.00001358,-0.00000742,-0
 .00004157,0.00003449,0.00008980,-0.00005788,-0.00000223,-0.00000424,-0
 .00000395,-0.00000139,-0.00000303,-0.00000080,-0.00000209,-0.00000140,
 -0.00000222,-0.00000173,-0.00000494,0.00000485,0.00000566,-0.00000295,
 0.00000241,0.00000575,-0.00000756,-0.00000097,0.00000891,-0.00000523,-
 0.00000431,0.00002224,0.00000726,0.00000233,0.00100723,0.00040703,0.00
 001701,0.12422220,0.24905834,0.00002457,-0.00013562,-0.00022184,-0.000
 30672,0.00029919,-0.00010529,-0.00016401,0.00046949,0.00020379,0.00030
 904,-0.00013205,-0.00004803,-0.00013987,-0.00002513,0.00005676,0.00003
 762,0.00020699,0.00003100,0.00086655,-0.00032985,-0.00040879,-0.000185
 89,0.00000362,0.00000787,-0.00002336,0.00000368,-0.00000599,-0.0000375
 6,-0.00002960,0.00001091,0.00013583,0.00195187,0.00016383,-0.00236621,
 -0.00053729,-0.00116416,0.00870371,0.01577945,-0.00169550,0.00066680,-
 0.00010228,0.00002819,0.00001038,0.00004420,0.00004020,0.00003702,0.00
 006653,-0.00002133,-0.00002885,0.00002567,0.00000329,-0.00051194,-0.00
 062323,0.00080214,0.03496986,0.07746017,-0.06805129,-0.00072086,0.0005
 0309,-0.00127427,-0.00414416,0.00301575,0.00704306,-0.00415710,-0.0050
 3729,0.00845338,-0.00005242,-0.00000663,-0.00001108,0.00000224,-0.0000
 0104,-0.00002608,-0.00016265,-0.00009976,-0.00009438,-0.00013142,0.000
 07162,0.00028285,0.00002538,-0.00081638,-0.00065859,-0.00008862,-0.000
 28728,0.00009894,0.00020991,-0.00013417,-0.00005152,0.00007672,0.00022
 042,0.00013543,0.00001127,0.00000217,0.00000102,0.00002907,0.00000129,
 -0.00006226,-0.00004508,0.00010340,-0.00005845,0.00000290,-0.00000807,
 -0.00000342,0.00000504,-0.00000613,-0.00000398,0.00000346,0.00000706,0
 .00000312,0.00000454,0.00000745,0.00001253,-0.00001121,0.00000337,0.00
 001941,-0.00000846,0.00001431,-0.00001013,-0.00000807,-0.00000629,0.00
 000189,-0.00002020,0.00000321,0.00001338,-0.00053823,-0.00012632,0.000
 22222,-0.03465059,-0.08681778,0.05997827,-0.00003829,0.00000040,-0.000
 01324,-0.00000002,-0.00000486,0.00000759,-0.00003581,0.00011220,-0.000
 05536,0.00004126,-0.00001505,0.00001973,0.00003601,-0.00006973,-0.0000
 1181,-0.00006997,0.00003305,0.00001357,0.00004852,-0.00020345,0.000092
 28,-0.00044850,-0.00001085,0.00003641,0.00004436,0.00009425,0.00009179
 ,-0.00005948,-0.00003498,0.00000074,0.00023687,0.00018940,0.00016239,-
 0.00066892,-0.00079111,0.00016988,-0.00284182,-0.00307470,-0.00181435,
 0.00042196,0.00054171,-0.00080221,0.00003348,-0.00000760,0.00000668,-0
 .00003639,0.00004474,0.00000973,0.00011494,-0.00007661,-0.00005195,-0.
 00005314,-0.00000210,-0.00004204,-0.01204036,0.02181495,-0.01928110,-0
 .00144094,-0.00289651,0.00066226,0.01041470,-0.01217143,0.00999290,-0.
 12075135,0.08600564,-0.08020238,-0.00000592,0.00000325,0.00000349,-0.0
 0003271,-0.00003177,-0.00001931,0.00004774,-0.00012353,-0.00006108,-0.
 00011884,0.00015319,0.00019105,0.00040585,-0.00056541,0.00008746,0.000
 16414,-0.00000516,-0.00009241,0.00010211,0.00006916,0.00005727,-0.0001
 0410,0.00001631,0.00001364,-0.00000471,-0.00001255,-0.00000083,-0.0000
 0652,0.00000664,-0.00000135,-0.00007444,-0.00009029,0.00008795,-0.0000
 0046,-0.00000048,-0.00000301,0.00000506,-0.00000433,-0.00000409,-0.000
 00315,0.00000559,0.00000111,0.00000067,0.00000477,-0.00000010,-0.00000
 286,0.00000623,0.00000251,-0.00000098,-0.00000301,-0.00000374,-0.00000
 789,0.00001119,-0.00000965,-0.00001149,-0.00000784,-0.00000452,-0.0000
 9087,-0.00003634,-0.00000261,0.00028845,0.00079780,0.00187358,0.126319
 08,0.00000125,0.00001452,0.00001223,0.00007398,-0.00001595,-0.00000349
 ,0.00010736,-0.00020769,-0.00006789,-0.00015005,0.00000987,0.00004490,
 0.00003884,-0.00003977,-0.00001429,-0.00004019,-0.00005958,-0.00000990
 ,-0.00041336,0.00005200,0.00010230,-0.00038249,0.00004881,-0.00004907,
 0.00003662,0.00003184,0.00001716,-0.00002084,0.00006222,0.00000744,0.0
 0066560,-0.00001674,0.00012362,-0.00102639,0.00039039,-0.00040580,-0.0
 0345593,0.00301250,0.00384346,0.00003705,0.00084515,-0.00083521,0.0000
 2249,-0.00003003,-0.00001082,-0.00002063,0.00003158,-0.00001332,-0.000
 01821,-0.00010356,-0.00005167,0.00001079,0.00006874,-0.00001271,-0.003
 85555,0.00696500,-0.00305041,-0.00340134,-0.00205757,0.00201957,0.0133
 0354,-0.01284186,0.01328537,0.08678187,-0.17375204,0.11324999,0.000020
 71,-0.00000702,0.00000100,-0.00003425,-0.00000522,-0.00001914,0.000186
 58,-0.00010049,0.00004104,-0.00013568,-0.00004195,0.00017428,0.0008185
 7,-0.00027266,-0.00004923,0.00021885,-0.00000624,-0.00004310,-0.000031
 42,0.00006550,0.00001226,-0.00010318,0.00002514,-0.00000349,-0.0000277
 8,-0.00001333,0.00000342,0.00000283,0.00002057,-0.00001299,-0.00012632
 ,-0.00019437,0.00019762,-0.00000949,-0.00001154,0.00000029,-0.00000514
 ,-0.00001447,-0.00000212,-0.00000033,-0.00000769,0.00000118,0.00000083
 ,-0.00000951,0.00000005,0.00000147,-0.00000453,-0.00000236,0.00000799,
 -0.00000659,-0.00000156,0.00000544,0.00000840,0.00000025,0.00000687,0.
 00000218,-0.00000087,0.00000381,-0.00003101,-0.00002067,0.00132284,-0.
 00099210,-0.00318146,-0.09081258,0.17965170,-0.00007043,0.00001541,0.0
 0001843,0.00006078,-0.00001794,-0.00001168,0.00015671,-0.00026352,-0.0
 0006142,-0.00018395,0.00013584,0.00004983,0.00011056,0.00005294,-0.000
 01171,-0.00004909,-0.00018229,-0.00002808,-0.00024034,0.00025443,-0.00
 000995,-0.00038779,-0.00042123,-0.00013609,-0.00001604,0.00012347,-0.0
 0000572,-0.00003554,0.00000294,0.00004643,0.00030588,0.00001750,-0.000
 12141,0.00017477,0.00011577,-0.00010322,-0.00346219,0.00241196,0.00863
 019,-0.00059437,0.00139223,-0.00100379,0.00006164,0.00000306,-0.000004
 35,-0.00004867,0.00000137,-0.00001445,0.00013804,-0.00001850,0.0000427
 1,-0.00004411,-0.00006255,0.00001768,-0.00351223,0.00650703,-0.0010921
 4,0.00179334,0.00188018,0.00136260,-0.00537634,0.00525803,-0.00263685,
 -0.08054037,0.11291939,-0.13355292,0.00002511,-0.00000080,0.00000288,0
 .00000117,0.00001564,0.00000987,0.00010062,0.00002759,0.00003876,-0.00
 005143,0.00004449,-0.00002895,-0.00062938,0.00002234,-0.00007160,0.000
 09104,0.00007654,0.00009540,-0.00008241,0.00010571,0.00003238,-0.00003
 738,-0.00014294,-0.00007649,0.00002144,0.00000706,-0.00000224,0.000015
 03,-0.00000281,-0.00001444,0.00001413,0.00010442,-0.00007303,0.0000034
 8,0.00000393,0.00000364,0.00000413,0.00000630,0.00000561,-0.00000118,0
 .00000448,0.00000227,-0.00000085,0.00000342,0.00000462,0.00000238,0.00
 000449,0.00000167,-0.00000618,-0.00000202,0.00000402,-0.00000961,0.000
 01470,0.00000351,-0.00000567,-0.00000790,-0.00000041,-0.00000875,-0.00
 003206,0.00003036,0.00184026,-0.00321324,-0.00424437,0.08938908,-0.125
 13788,0.13223793,-0.00007606,-0.00000401,-0.00000616,0.00010340,0.0000
 6658,0.00003131,-0.00008820,-0.00007180,-0.00020894,0.00000485,0.00006
 664,-0.00002176,0.00001621,0.00004566,0.00000830,0.00000841,-0.0000222
 2,0.00003208,0.00007196,0.00026138,0.00020633,0.00006115,-0.00009768,0
 .00011824,-0.00000146,0.00003991,-0.00000067,-0.00000417,-0.00003174,-
 0.00000580,-0.00061021,-0.00038850,0.00039764,0.00045493,0.00083536,-0
 .00273838,0.00036284,0.00027455,0.00040661,-0.00006308,0.00003967,-0.0
 0013178,0.00002927,-0.00001792,0.00000240,-0.00004162,-0.00003033,-0.0
 0000830,-0.00003706,0.00000088,0.00003408,-0.00001505,0.00019614,-0.00
 006113,0.00012693,-0.00256158,0.00106788,-0.01104706,-0.00058162,-0.00
 394106,-0.32331059,-0.01232768,-0.05220796,-0.00946097,0.00150095,-0.0
 0437449,0.00001925,-0.00005111,-0.00000332,0.00000624,0.00006746,0.000
 04121,0.00012790,-0.00001041,-0.00015838,0.00001151,0.00031044,-0.0000
 6234,-0.00077157,-0.00058494,0.00189535,0.00038617,-0.00028473,0.00094
 340,-0.00002402,0.00039428,0.00001968,-0.00024860,-0.00070263,0.000200
 54,-0.00005232,-0.00007349,0.00016433,0.00007761,-0.00084583,0.0003708
 6,-0.00023610,-0.00013498,-0.00007941,-0.00000545,-0.00000513,-0.00001
 293,0.00000199,-0.00000302,-0.00000081,0.00000484,0.00000700,-0.000005
 92,0.00000159,0.00000842,-0.00000176,-0.00000082,0.00000462,-0.0000023
 2,-0.00000248,0.00000098,0.00000534,-0.00000560,0.00000359,0.00000054,
 -0.00000685,-0.00000444,-0.00000700,0.00000019,-0.00002852,-0.00002673
 ,-0.00055561,0.00007243,-0.00008908,0.00060629,-0.00005809,0.00028194,
 0.34421488,-0.00004696,0.00021302,0.00014381,0.00048039,-0.00007217,-0
 .00003923,0.00007355,-0.00063990,0.00003350,-0.00025384,0.00005199,0.0
 0014805,-0.00001803,0.00010617,-0.00001534,0.00009561,-0.00012426,-0.0
 0004196,-0.00088119,-0.00013784,-0.00092894,0.00009939,0.00008070,0.00
 003629,0.00005581,0.00003582,0.00000385,0.00009658,0.00010062,-0.00002
 267,0.00144864,0.00013939,-0.00010779,-0.00046166,-0.00076269,0.006403
 32,0.00033822,-0.00034545,-0.00011290,-0.00004096,-0.00001676,-0.00003
 569,-0.00008631,-0.00008551,-0.00006326,0.00013382,-0.00005758,-0.0000
 4393,0.00010368,0.00003194,0.00007222,-0.00005499,0.00026773,0.0001796
 3,-0.00137291,-0.00301969,0.00299132,0.02470875,0.00593503,0.00575586,
 -0.01313492,-0.05167490,0.00498596,-0.02516291,0.00125413,-0.00408297,
 -0.00009942,-0.00001867,-0.00000381,0.00008278,-0.00005520,-0.00012292
 ,-0.00006079,0.00005183,0.00005384,-0.00037783,-0.00028082,0.00035438,
 0.00028370,-0.00111643,-0.00209221,-0.00007587,0.00005160,0.00046197,-
 0.00031013,-0.00015420,-0.00014315,-0.00029987,-0.00065508,-0.00022578
 ,-0.00002891,-0.00002984,0.00011917,-0.00013072,-0.00012614,0.00037636
 ,0.00027790,0.00053624,-0.00035785,-0.00000051,0.00002962,0.00001083,0
 .00000562,-0.00000427,-0.00000470,-0.00000189,-0.00000443,0.00000787,-
 0.00000529,-0.00000326,-0.00000116,0.00001437,-0.00000620,0.00000166,-
 0.00000782,0.00000003,-0.00000811,-0.00000760,0.00000597,-0.00000817,0
 .00001480,-0.00000583,0.00000404,0.00008320,0.00002774,-0.00002117,-0.
 00099170,-0.00030606,-0.00055656,0.00073867,0.00041608,-0.00070898,0.0
 1480343,0.05051894,0.00005802,0.00001260,0.00000660,0.00023896,-0.0000
 2642,-0.00006545,-0.00033215,-0.00019446,0.00015844,0.00020951,-0.0000
 6408,0.00016890,-0.00004330,-0.00008404,0.00001805,-0.00007699,0.00011
 579,0.00000629,-0.00046398,0.00024747,-0.00100703,-0.00007738,0.000265
 29,-0.00018917,-0.00002001,-0.00001982,0.00006628,-0.00005217,-0.00003
 821,0.00000289,-0.00096529,-0.00075987,-0.00066713,-0.00247463,0.00727
 630,0.00615383,0.00028611,0.00024515,-0.00045463,0.00028448,-0.0001104
 5,-0.00008877,-0.00003039,0.00001908,0.00002689,0.00011610,-0.00006966
 ,-0.00005091,0.00013009,0.00002878,0.00001149,-0.00000594,-0.00031463,
 0.00023508,0.00146254,0.00327982,0.00120368,-0.01539915,-0.00029994,0.
 00380471,-0.05124272,0.00691381,-0.05559711,0.00983696,-0.00009794,0.0
 0608854,-0.00012951,0.00000872,-0.00000620,0.00003502,0.00002071,-0.00
 008532,-0.00068927,-0.00027088,-0.00023101,-0.00027844,-0.00019411,0.0
 0081492,-0.00044439,-0.00403318,-0.00355880,-0.00041710,0.00001766,-0.
 00013710,0.00065571,-0.00052836,-0.00024191,0.00049965,0.00071856,0.00
 040113,0.00006007,0.00005504,0.00004460,0.00050131,0.00042035,-0.00112
 909,0.00035642,0.00066324,-0.00032313,0.00000283,-0.00006595,-0.000018
 48,-0.00000749,-0.00001300,-0.00000157,0.00000685,0.00000067,0.0000139
 9,-0.00000463,0.00000621,-0.00000618,-0.00000751,-0.00000142,0.0000011
 0,0.00000416,0.00001145,-0.00002512,0.00000580,-0.00000429,-0.00001066
 ,-0.00000436,0.00000712,0.00000340,-0.00005913,0.00002336,-0.00000207,
 0.00058671,0.00012084,0.00002096,0.00012013,-0.00097887,-0.00048424,0.
 05793849,-0.01234785,0.04513571,-0.00060580,-0.00004880,-0.00001919,0.
 00077900,-0.00007655,-0.00010966,0.00000030,-0.00138429,-0.00074840,-0
 .00109357,0.00049067,0.00062715,0.00049658,-0.00057999,-0.00020103,-0.
 00076889,-0.00040383,-0.00003402,-0.00360392,0.00004038,0.00137619,-0.
 00172402,0.00045562,-0.00084737,-0.00051628,-0.00058303,-0.00130504,0.
 00023125,0.00022725,-0.00009912,0.00416510,0.00130843,0.00188466,0.000
 02376,-0.00783322,-0.01059131,-0.02629852,0.01052717,0.02627783,-0.015
 57885,0.01306270,0.02389983,0.00061599,-0.00013794,-0.00005688,-0.0004
 2889,0.00000388,0.00000503,0.00173797,-0.00050782,0.00006583,-0.000557
 59,-0.00065033,-0.00008532,0.00024689,-0.00323959,-0.01400816,0.000517
 99,0.00026831,0.00177141,0.00113485,0.00185476,-0.00110148,-0.00277393
 ,0.00042973,-0.00088518,0.00013537,0.00008934,0.00005512,-0.00016975,-
 0.00015359,-0.00008497,0.00085080,-0.00032604,0.00000347,-0.00089885,0
 .00043092,0.00035461,-0.00050347,-0.00037047,-0.00045521,0.00066592,-0
 .00013736,0.00005484,-0.00004198,0.00078220,0.00035201,-0.00046486,-0.
 00034563,-0.00007122,0.00002577,-0.00003100,-0.00002983,-0.00001188,0.
 00004923,-0.00013960,-0.00008484,-0.00009728,-0.00020442,0.00000428,0.
 00002684,-0.00001798,0.00001639,0.00001402,0.00000434,-0.00002432,0.00
 002168,0.00000510,-0.00002016,0.00000366,-0.00002404,0.00000244,0.0000
 0335,0.00002744,0.00002385,-0.00006066,-0.00003280,0.00006514,-0.00002
 059,0.00013960,-0.00002675,0.00000065,0.00007079,-0.00000806,-0.000921
 15,-0.00110507,0.00033647,-0.00002882,0.00058706,-0.00038157,0.0004530
 6,0.00080275,-0.00003345,-0.00002589,-0.00017001,0.04454407,-0.0003393
 7,0.00090542,-0.00002037,0.00156650,-0.00026161,-0.00054970,0.00010002
 ,-0.00199096,0.00012889,-0.00065707,0.00045720,0.00042164,0.00079774,0
 .00019686,-0.00001645,-0.00040737,-0.00089255,-0.00018781,-0.00164108,
 0.00093575,-0.00115309,0.00024321,-0.00041156,0.00009134,0.00009624,-0
 .00005447,0.00004704,0.00001647,0.00005695,0.00000302,0.00080602,-0.00
 134101,0.00259745,-0.00114516,-0.01923143,-0.02434761,0.01005061,-0.06
 346909,-0.07986654,0.00197109,0.00090709,-0.00303809,-0.00014238,-0.00
 007310,-0.00008682,0.00006580,-0.00016517,-0.00012714,0.00022122,-0.00
 015532,0.00020148,-0.00100415,0.00072670,0.00171011,0.00070571,0.00668
 192,0.01751472,-0.00030148,0.00058245,-0.00011040,-0.00086599,-0.00154
 760,0.00226251,0.00320776,0.00100034,0.00051134,0.00002844,0.00004155,
 -0.00000350,0.00003673,-0.00001820,0.00002023,0.00021793,0.00009725,0.
 00012594,-0.00043589,0.00004203,0.00058014,-0.00139213,-0.00131861,-0.
 00072509,0.00107831,0.00001583,0.00032305,-0.00043802,0.00063426,0.000
 20478,-0.00024663,-0.00093173,-0.00062837,-0.00000663,-0.00000310,-0.0
 0000685,0.00001058,0.00004304,-0.00000420,0.00034264,0.00032992,-0.000
 17152,-0.00000232,0.00000657,0.00004247,-0.00000052,0.00001374,0.00000
 858,-0.00000009,0.00000191,-0.00000243,-0.00001645,-0.00001651,0.00001
 934,0.00003100,-0.00002031,0.00005647,-0.00000807,-0.00000666,-0.00004
 247,0.00001025,-0.00000164,-0.00001467,-0.00001574,0.00000239,0.000010
 82,0.00002706,-0.00018167,-0.00036877,-0.00030996,-0.00049100,-0.00126
 381,0.00040315,-0.00087867,-0.00131799,-0.00007798,-0.00015138,0.00003
 941,-0.01257997,0.07993418,0.00047841,-0.00022828,-0.00015097,-0.00048
 123,0.00043884,0.00001626,-0.00090654,0.00143686,0.00028680,0.00092308
 ,-0.00101372,-0.00033451,-0.00090350,-0.00010436,0.00014690,0.00052060
 ,0.00120376,0.00017143,0.00126368,-0.00195235,-0.00059878,-0.00044252,
 0.00314242,-0.00037650,0.00083960,-0.00043690,-0.00001263,0.00006000,0
 .00038845,-0.00001485,-0.00292843,0.00086956,0.00069214,-0.00128341,-0
 .00516711,-0.00280214,0.02367048,-0.08246341,-0.20736578,0.00936245,-0
 .00440334,-0.00384107,-0.00035990,-0.00005505,0.00001265,0.00030658,-0
 .00004555,0.00002886,-0.00064089,0.00021008,-0.00009419,0.00037470,-0.
 00004230,0.00041234,-0.00685957,-0.00239200,-0.02642068,0.00117558,-0.
 00103512,0.00080202,0.00012300,-0.00065181,-0.00070202,0.00151409,0.00
 332216,0.00002690,-0.00016618,-0.00001847,-0.00005020,0.00009424,-0.00
 004026,-0.00000746,-0.00082731,0.00009780,-0.00007629,0.00064921,0.000
 19188,-0.00026278,0.00010715,0.00007896,0.00046138,-0.00037735,-0.0001
 1721,-0.00037326,0.00038255,-0.00058003,-0.00016432,0.00021770,0.00041
 511,0.00016025,-0.00001386,0.00000934,0.00001349,-0.00005065,-0.000003
 62,0.00007760,0.00023552,0.00007371,0.00036635,0.00000005,-0.00001040,
 0.00000693,-0.00000520,-0.00000187,-0.00000544,0.00000452,-0.00000716,
 -0.00000035,0.00000565,0.00000359,0.00000360,-0.00001176,-0.00000427,-
 0.00001564,-0.00000399,0.00003452,-0.00002392,-0.00000457,-0.00000192,
 -0.00000152,-0.00002045,-0.00000642,0.00001980,0.00072254,0.00010282,0
 .00025327,-0.00018017,0.00083616,0.00058632,-0.00061605,0.00084085,0.0
 0114877,-0.00001010,-0.00004683,-0.00000643,-0.02593776,0.08713290,0.2
 3800764\\-0.00001803,0.00000741,-0.00000225,0.00001671,-0.00001275,-0.
 00001561,0.00000685,-0.00001339,-0.00000639,-0.00001496,0.00000561,0.0
 0000674,0.00001292,0.00000188,-0.00000331,-0.00001138,-0.00001690,-0.0
 0000514,-0.00001072,0.00002754,0.00003346,0.00000337,-0.00002518,0.000
 00201,0.00000401,0.00000328,-0.00000067,0.00000580,-0.00000404,-0.0000
 1352,0.00002645,0.00000518,0.00002025,-0.00008614,-0.00005330,-0.00003
 405,0.00007621,0.00002670,0.00002193,-0.00004434,0.00000471,0.00001353
 ,-0.00000527,0.00000121,0.00000442,0.00000443,-0.00000984,0.00000242,0
 .00001674,0.00000585,0.00001266,-0.00002788,0.00001347,-0.00002744,-0.
 00003199,0.00001296,-0.00003202,0.00008445,-0.00000091,0.00001661,0.00
 000252,0.00004853,-0.00002131,0.00000567,-0.00003448,0.00002913,-0.000
 00647,0.00000581,-0.00000406,0.00000456,-0.00000041,-0.00000440,0.0000
 0278,0.00000917,0.00000875,-0.00001294,-0.00000306,-0.00000857,-0.0000
 1231,0.00000373,-0.00001558,-0.00000399,-0.00001201,0.00001628,-0.0000
 0781,0.00000652,-0.00000042,-0.00000258,-0.00000508,0.00000007,-0.0000
 0003,0.00000613,0.00000094,-0.00000276,-0.00000238,0.00000185,-0.00000
 049,-0.00000582,0.00000259,-0.00000043,0.00000358,0.00000085,-0.000003
 41,0.00000344,-0.00000095,-0.00000283,0.00000154,-0.00000368,-0.000001
 82,0.00000090,-0.00000494,-0.00000300,-0.00000204,-0.00000240,0.000000
 20,0.00000036,-0.00000182,-0.00000011,-0.00000355,0.00000331,-0.000002
 31,-0.00000152,0.00000322,0.00001164,-0.00000711,-0.00000865,0.0000045
 8,-0.00000062,0.00000710,0.00000525,0.00001087,0.00000450,0.00000890,-
 0.00000300,0.00000120,0.00000996,0.00000104,0.00000336\\\@


 SEEN ON A WALL AT THE UNIVERSITY OF ILLINOIS AT CHICAGO CIRCLE:

 TO DO IS TO BE  -- SOCRATES
 TO BE IS TO DO  -- SARTRE
 OO BE DO BE DO  -- SINATRA
 Job cpu time:       1 days  1 hours  9 minutes 59.7 seconds.
 Elapsed time:       0 days  1 hours 15 minutes 43.0 seconds.
 File lengths (MBytes):  RWF=   2289 Int=      0 D2E=      0 Chk=     49 Scr=      1
 Normal termination of Gaussian 16 at Fri Sep  6 18:05:14 2019.
