 Entering Gaussian System, Link 0=/share/apps/gaussian16/g16/g16
 Initial command:
 /share/apps/gaussian16/g16/l1.exe "/home/amen01//scratch/469/Gau-25819.inp" -scrdir="/home/amen01//scratch/469/"
 Entering Link 1 = /share/apps/gaussian16/g16/l1.exe PID=     25820.
  
 Copyright (c) 1988-2017, Gaussian, Inc.  All Rights Reserved.
  
 This is part of the Gaussian(R) 16 program.  It is based on
 the Gaussian(R) 09 system (copyright 2009, Gaussian, Inc.),
 the Gaussian(R) 03 system (copyright 2003, Gaussian, Inc.),
 the Gaussian(R) 98 system (copyright 1998, Gaussian, Inc.),
 the Gaussian(R) 94 system (copyright 1995, Gaussian, Inc.),
 the Gaussian 92(TM) system (copyright 1992, Gaussian, Inc.),
 the Gaussian 90(TM) system (copyright 1990, Gaussian, Inc.),
 the Gaussian 88(TM) system (copyright 1988, Gaussian, Inc.),
 the Gaussian 86(TM) system (copyright 1986, Carnegie Mellon
 University), and the Gaussian 82(TM) system (copyright 1983,
 Carnegie Mellon University). Gaussian is a federally registered
 trademark of Gaussian, Inc.
  
 This software contains proprietary and confidential information,
 including trade secrets, belonging to Gaussian, Inc.
  
 This software is provided under written license and may be
 used, copied, transmitted, or stored only in accord with that
 written license.
  
 The following legend is applicable only to US Government
 contracts under FAR:
  
                    RESTRICTED RIGHTS LEGEND
  
 Use, reproduction and disclosure by the US Government is
 subject to restrictions as set forth in subparagraphs (a)
 and (c) of the Commercial Computer Software - Restricted
 Rights clause in FAR 52.227-19.
  
 Gaussian, Inc.
 340 Quinnipiac St., Bldg. 40, Wallingford CT 06492
  
  
 ---------------------------------------------------------------
 Warning -- This program may not be used in any manner that
 competes with the business of Gaussian, Inc. or will provide
 assistance to any competitor of Gaussian, Inc.  The licensee
 of this program is prohibited from giving any competitor of
 Gaussian, Inc. access to this program.  By using this program,
 the user acknowledges that Gaussian, Inc. is engaged in the
 business of creating and licensing software in the field of
 computational chemistry and represents and warrants to the
 licensee that it is not a competitor of Gaussian, Inc. and that
 it will not use this program in any manner prohibited above.
 ---------------------------------------------------------------
  

 Cite this work as:
 Gaussian 16, Revision B.01,
 M. J. Frisch, G. W. Trucks, H. B. Schlegel, G. E. Scuseria, 
 M. A. Robb, J. R. Cheeseman, G. Scalmani, V. Barone, 
 G. A. Petersson, H. Nakatsuji, X. Li, M. Caricato, A. V. Marenich, 
 J. Bloino, B. G. Janesko, R. Gomperts, B. Mennucci, H. P. Hratchian, 
 J. V. Ortiz, A. F. Izmaylov, J. L. Sonnenberg, D. Williams-Young, 
 F. Ding, F. Lipparini, F. Egidi, J. Goings, B. Peng, A. Petrone, 
 T. Henderson, D. Ranasinghe, V. G. Zakrzewski, J. Gao, N. Rega, 
 G. Zheng, W. Liang, M. Hada, M. Ehara, K. Toyota, R. Fukuda, 
 J. Hasegawa, M. Ishida, T. Nakajima, Y. Honda, O. Kitao, H. Nakai, 
 T. Vreven, K. Throssell, J. A. Montgomery, Jr., J. E. Peralta, 
 F. Ogliaro, M. J. Bearpark, J. J. Heyd, E. N. Brothers, K. N. Kudin, 
 V. N. Staroverov, T. A. Keith, R. Kobayashi, J. Normand, 
 K. Raghavachari, A. P. Rendell, J. C. Burant, S. S. Iyengar, 
 J. Tomasi, M. Cossi, J. M. Millam, M. Klene, C. Adamo, R. Cammi, 
 J. W. Ochterski, R. L. Martin, K. Morokuma, O. Farkas, 
 J. B. Foresman, and D. J. Fox, Gaussian, Inc., Wallingford CT, 2016.
 
 ******************************************
 Gaussian 16:  ES64L-G16RevB.01 20-Dec-2017
                12-Jun-2019 
 ******************************************
 %nprocshared=20
 Will use up to   20 processors via shared memory.
 %mem=100GB
 %chk=7-memb-hadd-4a.chk
 -------------------------------------------
 # opt freq b3lyp/6-311+g(d,p) int=grid=fine
 -------------------------------------------
 1/18=20,19=15,26=3,38=1/1,3;
 2/9=110,12=2,17=6,18=5,40=1/2;
 3/5=4,6=6,7=111,11=2,25=1,30=1,71=1,74=-5,75=-4/1,2,3;
 4//1;
 5/5=2,38=5/2;
 6/7=2,8=2,9=2,10=2,28=1/1;
 7//1,2,3,16;
 1/18=20,19=15,26=3/3(2);
 2/9=110/2;
 99//99;
 2/9=110/2;
 3/5=4,6=6,7=111,11=2,25=1,30=1,71=1,74=-5,75=-4/1,2,3;
 4/5=5,16=3,69=1/1;
 5/5=2,38=5/2;
 7//1,2,3,16;
 1/18=20,19=15,26=3/3(-5);
 2/9=110/2;
 6/7=2,8=2,9=2,10=2,19=2,28=1/1;
 99/9=1/99;
 --------------
 7-memb-hadd-4a
 --------------
 Symbolic Z-matrix:
 Charge =  0 Multiplicity = 1
 C                    -6.9709    0.01439  -0.29435 
 C                    -5.74884   0.63239  -0.15839 
 C                    -4.60044  -0.05513   0.03795 
 C                    -4.49046  -1.43352   0.09944 
 C                    -6.94481  -1.41259  -0.26232 
 C                    -5.72272  -2.125    -0.06837 
 C                    -3.57626   0.81685   0.17238 
 C                    -2.27274   0.41688   0.3685 
 C                    -2.07375  -0.99382   0.45588 
 C                    -3.16585  -1.9044    0.32199 
 C                    -4.05637   2.1104    0.04077 
 C                    -3.18857   3.17929   0.01864 
 C                    -1.79699   2.84247   0.22456 
 C                    -1.36412   1.49325   0.42399 
 C                    -8.03823   0.92503  -0.40686 
 C                    -7.82216   2.33723  -0.31443 
 C                    -6.50963   2.91878  -0.18375 
 C                    -5.48295   1.99577  -0.14178 
 C                    -0.84427   3.86028   0.17878 
 C                    -3.62302   4.5049   -0.33845 
 C                    -2.56344   5.45125  -0.35218 
 C                    -1.22317   5.16296  -0.10654 
 C                    -8.9255    3.17642  -0.28758 
 C                    -8.76465   4.53436  -0.04462 
 C                    -7.49844   5.10616   0.13448 
 C                    -6.30106   4.33821   0.00334 
 C                    -5.03454   5.05632   0.10858 
 C                    -5.07685   6.42323   0.49692 
 C                    -7.46478   6.46457   0.46185 
 C                    -6.2656    7.1142    0.67916 
 H                    -6.25107   8.16417   0.95755 
 H                    -4.16222   6.99594   0.6359 
 H                    -8.38586   7.03318   0.57714 
 H                    -9.66214   5.1475    0.02729 
 H                    -9.93317   2.78073  -0.39286 
 H                    -9.04943   0.53409  -0.50053 
 H                    -7.87329  -1.96906  -0.3671 
 H                    -5.7389   -3.21174  -0.03763 
 H                    -2.97863  -2.97348   0.38767 
 H                    -1.07168  -1.38586   0.61361 
 H                    -0.30763   1.27748   0.56963 
 H                     0.20903   3.64461   0.3431 
 H                    -0.48625   5.9589   -0.1482 
 H                    -3.96066   4.36571  -1.40855 
 

 GradGradGradGradGradGradGradGradGradGradGradGradGradGradGradGradGradGrad
 Berny optimization.
 Initialization pass.
                           ----------------------------
                           !    Initial Parameters    !
                           ! (Angstroms and Degrees)  !
 --------------------------                            --------------------------
 ! Name  Definition              Value          Derivative Info.                !
 --------------------------------------------------------------------------------
 ! R1    R(1,2)                  1.3762         estimate D2E/DX2                !
 ! R2    R(1,5)                  1.4276         estimate D2E/DX2                !
 ! R3    R(1,15)                 1.4075         estimate D2E/DX2                !
 ! R4    R(2,3)                  1.3528         estimate D2E/DX2                !
 ! R5    R(2,18)                 1.3892         estimate D2E/DX2                !
 ! R6    R(3,4)                  1.3841         estimate D2E/DX2                !
 ! R7    R(3,7)                  1.3518         estimate D2E/DX2                !
 ! R8    R(4,6)                  1.4229         estimate D2E/DX2                !
 ! R9    R(4,10)                 1.4233         estimate D2E/DX2                !
 ! R10   R(5,6)                  1.4278         estimate D2E/DX2                !
 ! R11   R(5,37)                 1.0875         estimate D2E/DX2                !
 ! R12   R(6,38)                 1.0873         estimate D2E/DX2                !
 ! R13   R(7,8)                  1.3775         estimate D2E/DX2                !
 ! R14   R(7,11)                 1.386          estimate D2E/DX2                !
 ! R15   R(8,9)                  1.4273         estimate D2E/DX2                !
 ! R16   R(8,14)                 1.4097         estimate D2E/DX2                !
 ! R17   R(9,10)                 1.4282         estimate D2E/DX2                !
 ! R18   R(9,40)                 1.0875         estimate D2E/DX2                !
 ! R19   R(10,39)                1.0873         estimate D2E/DX2                !
 ! R20   R(11,12)                1.377          estimate D2E/DX2                !
 ! R21   R(11,18)                1.4428         estimate D2E/DX2                !
 ! R22   R(12,13)                1.4465         estimate D2E/DX2                !
 ! R23   R(12,20)                1.44           estimate D2E/DX2                !
 ! R24   R(13,14)                1.4309         estimate D2E/DX2                !
 ! R25   R(13,19)                1.3949         estimate D2E/DX2                !
 ! R26   R(14,41)                1.0881         estimate D2E/DX2                !
 ! R27   R(15,16)                1.4316         estimate D2E/DX2                !
 ! R28   R(15,36)                1.0882         estimate D2E/DX2                !
 ! R29   R(16,17)                1.4415         estimate D2E/DX2                !
 ! R30   R(16,23)                1.3865         estimate D2E/DX2                !
 ! R31   R(17,18)                1.3812         estimate D2E/DX2                !
 ! R32   R(17,26)                1.4468         estimate D2E/DX2                !
 ! R33   R(19,22)                1.3863         estimate D2E/DX2                !
 ! R34   R(19,42)                1.0876         estimate D2E/DX2                !
 ! R35   R(20,21)                1.4207         estimate D2E/DX2                !
 ! R36   R(20,27)                1.58           estimate D2E/DX2                !
 ! R37   R(20,44)                1.1307         estimate D2E/DX2                !
 ! R38   R(21,22)                1.3928         estimate D2E/DX2                !
 ! R39   R(22,43)                1.0855         estimate D2E/DX2                !
 ! R40   R(23,24)                1.3888         estimate D2E/DX2                !
 ! R41   R(23,35)                1.0877         estimate D2E/DX2                !
 ! R42   R(24,25)                1.4008         estimate D2E/DX2                !
 ! R43   R(24,34)                1.0893         estimate D2E/DX2                !
 ! R44   R(25,26)                1.4285         estimate D2E/DX2                !
 ! R45   R(25,29)                1.3977         estimate D2E/DX2                !
 ! R46   R(26,27)                1.4597         estimate D2E/DX2                !
 ! R47   R(27,28)                1.4216         estimate D2E/DX2                !
 ! R48   R(28,30)                1.387          estimate D2E/DX2                !
 ! R49   R(28,32)                1.0881         estimate D2E/DX2                !
 ! R50   R(29,30)                1.381          estimate D2E/DX2                !
 ! R51   R(29,33)                1.0886         estimate D2E/DX2                !
 ! R52   R(30,31)                1.0863         estimate D2E/DX2                !
 ! A1    A(2,1,5)              115.4954         estimate D2E/DX2                !
 ! A2    A(2,1,15)             113.0007         estimate D2E/DX2                !
 ! A3    A(5,1,15)             131.4803         estimate D2E/DX2                !
 ! A4    A(1,2,3)              122.6806         estimate D2E/DX2                !
 ! A5    A(1,2,18)             127.7261         estimate D2E/DX2                !
 ! A6    A(3,2,18)             109.5464         estimate D2E/DX2                !
 ! A7    A(2,3,4)              125.4513         estimate D2E/DX2                !
 ! A8    A(2,3,7)              109.255          estimate D2E/DX2                !
 ! A9    A(4,3,7)              125.2927         estimate D2E/DX2                !
 ! A10   A(3,4,6)              114.1975         estimate D2E/DX2                !
 ! A11   A(3,4,10)             114.2269         estimate D2E/DX2                !
 ! A12   A(6,4,10)             131.5754         estimate D2E/DX2                !
 ! A13   A(1,5,6)              121.1602         estimate D2E/DX2                !
 ! A14   A(1,5,37)             119.5844         estimate D2E/DX2                !
 ! A15   A(6,5,37)             119.2437         estimate D2E/DX2                !
 ! A16   A(4,6,5)              120.9823         estimate D2E/DX2                !
 ! A17   A(4,6,38)             119.6866         estimate D2E/DX2                !
 ! A18   A(5,6,38)             119.3275         estimate D2E/DX2                !
 ! A19   A(3,7,8)              122.9427         estimate D2E/DX2                !
 ! A20   A(3,7,11)             109.2764         estimate D2E/DX2                !
 ! A21   A(8,7,11)             127.7542         estimate D2E/DX2                !
 ! A22   A(7,8,9)              115.3156         estimate D2E/DX2                !
 ! A23   A(7,8,14)             113.1927         estimate D2E/DX2                !
 ! A24   A(9,8,14)             131.4814         estimate D2E/DX2                !
 ! A25   A(8,9,10)             121.1843         estimate D2E/DX2                !
 ! A26   A(8,9,40)             119.5788         estimate D2E/DX2                !
 ! A27   A(10,9,40)            119.2315         estimate D2E/DX2                !
 ! A28   A(4,10,9)             121.0218         estimate D2E/DX2                !
 ! A29   A(4,10,39)            119.6673         estimate D2E/DX2                !
 ! A30   A(9,10,39)            119.3104         estimate D2E/DX2                !
 ! A31   A(7,11,12)            120.5094         estimate D2E/DX2                !
 ! A32   A(7,11,18)            106.2821         estimate D2E/DX2                !
 ! A33   A(12,11,18)           133.0616         estimate D2E/DX2                !
 ! A34   A(11,12,13)           115.04           estimate D2E/DX2                !
 ! A35   A(11,12,20)           121.9008         estimate D2E/DX2                !
 ! A36   A(13,12,20)           122.678          estimate D2E/DX2                !
 ! A37   A(12,13,14)           122.0341         estimate D2E/DX2                !
 ! A38   A(12,13,19)           118.8489         estimate D2E/DX2                !
 ! A39   A(14,13,19)           119.0757         estimate D2E/DX2                !
 ! A40   A(8,14,13)            121.2974         estimate D2E/DX2                !
 ! A41   A(8,14,41)            118.665          estimate D2E/DX2                !
 ! A42   A(13,14,41)           119.9576         estimate D2E/DX2                !
 ! A43   A(1,15,16)            121.2381         estimate D2E/DX2                !
 ! A44   A(1,15,36)            118.6271         estimate D2E/DX2                !
 ! A45   A(16,15,36)           120.0129         estimate D2E/DX2                !
 ! A46   A(15,16,17)           122.7671         estimate D2E/DX2                !
 ! A47   A(15,16,23)           118.568          estimate D2E/DX2                !
 ! A48   A(17,16,23)           118.5964         estimate D2E/DX2                !
 ! A49   A(16,17,18)           114.2021         estimate D2E/DX2                !
 ! A50   A(16,17,26)           122.5998         estimate D2E/DX2                !
 ! A51   A(18,17,26)           122.9919         estimate D2E/DX2                !
 ! A52   A(2,18,11)            105.5895         estimate D2E/DX2                !
 ! A53   A(2,18,17)            120.8783         estimate D2E/DX2                !
 ! A54   A(11,18,17)           133.2922         estimate D2E/DX2                !
 ! A55   A(13,19,22)           120.3792         estimate D2E/DX2                !
 ! A56   A(13,19,42)           120.7837         estimate D2E/DX2                !
 ! A57   A(22,19,42)           118.8226         estimate D2E/DX2                !
 ! A58   A(12,20,21)           112.9909         estimate D2E/DX2                !
 ! A59   A(12,20,27)           121.3772         estimate D2E/DX2                !
 ! A60   A(12,20,44)           102.2081         estimate D2E/DX2                !
 ! A61   A(21,20,27)           115.8838         estimate D2E/DX2                !
 ! A62   A(21,20,44)           107.1908         estimate D2E/DX2                !
 ! A63   A(27,20,44)            92.5195         estimate D2E/DX2                !
 ! A64   A(20,21,22)           125.3178         estimate D2E/DX2                !
 ! A65   A(19,22,21)           119.5912         estimate D2E/DX2                !
 ! A66   A(19,22,43)           120.754          estimate D2E/DX2                !
 ! A67   A(21,22,43)           119.6531         estimate D2E/DX2                !
 ! A68   A(16,23,24)           120.2            estimate D2E/DX2                !
 ! A69   A(16,23,35)           121.0095         estimate D2E/DX2                !
 ! A70   A(24,23,35)           118.6804         estimate D2E/DX2                !
 ! A71   A(23,24,25)           121.746          estimate D2E/DX2                !
 ! A72   A(23,24,34)           117.8054         estimate D2E/DX2                !
 ! A73   A(25,24,34)           120.4332         estimate D2E/DX2                !
 ! A74   A(24,25,26)           121.7676         estimate D2E/DX2                !
 ! A75   A(24,25,29)           116.6427         estimate D2E/DX2                !
 ! A76   A(26,25,29)           121.5866         estimate D2E/DX2                !
 ! A77   A(17,26,25)           114.7366         estimate D2E/DX2                !
 ! A78   A(17,26,27)           128.0997         estimate D2E/DX2                !
 ! A79   A(25,26,27)           117.1402         estimate D2E/DX2                !
 ! A80   A(20,27,26)           125.6649         estimate D2E/DX2                !
 ! A81   A(20,27,28)           116.0688         estimate D2E/DX2                !
 ! A82   A(26,27,28)           117.832          estimate D2E/DX2                !
 ! A83   A(27,28,30)           122.7107         estimate D2E/DX2                !
 ! A84   A(27,28,32)           121.0626         estimate D2E/DX2                !
 ! A85   A(30,28,32)           116.1967         estimate D2E/DX2                !
 ! A86   A(25,29,30)           120.9929         estimate D2E/DX2                !
 ! A87   A(25,29,33)           120.8029         estimate D2E/DX2                !
 ! A88   A(30,29,33)           118.1863         estimate D2E/DX2                !
 ! A89   A(28,30,29)           119.2874         estimate D2E/DX2                !
 ! A90   A(28,30,31)           120.2451         estimate D2E/DX2                !
 ! A91   A(29,30,31)           120.4361         estimate D2E/DX2                !
 ! D1    D(5,1,2,3)             -2.1442         estimate D2E/DX2                !
 ! D2    D(5,1,2,18)          -179.385          estimate D2E/DX2                !
 ! D3    D(15,1,2,3)           176.2944         estimate D2E/DX2                !
 ! D4    D(15,1,2,18)           -0.9463         estimate D2E/DX2                !
 ! D5    D(2,1,5,6)              1.4466         estimate D2E/DX2                !
 ! D6    D(2,1,5,37)          -179.8052         estimate D2E/DX2                !
 ! D7    D(15,1,5,6)          -176.6348         estimate D2E/DX2                !
 ! D8    D(15,1,5,37)            2.1134         estimate D2E/DX2                !
 ! D9    D(2,1,15,16)           -2.923          estimate D2E/DX2                !
 ! D10   D(2,1,15,36)         -178.9079         estimate D2E/DX2                !
 ! D11   D(5,1,15,16)          175.1958         estimate D2E/DX2                !
 ! D12   D(5,1,15,36)           -0.7892         estimate D2E/DX2                !
 ! D13   D(1,2,3,4)              1.4217         estimate D2E/DX2                !
 ! D14   D(1,2,3,7)           -178.2399         estimate D2E/DX2                !
 ! D15   D(18,2,3,4)           179.106          estimate D2E/DX2                !
 ! D16   D(18,2,3,7)            -0.5556         estimate D2E/DX2                !
 ! D17   D(1,2,18,11)          179.2862         estimate D2E/DX2                !
 ! D18   D(1,2,18,17)            4.203          estimate D2E/DX2                !
 ! D19   D(3,2,18,11)            1.7505         estimate D2E/DX2                !
 ! D20   D(3,2,18,17)         -173.3327         estimate D2E/DX2                !
 ! D21   D(2,3,4,6)              0.1576         estimate D2E/DX2                !
 ! D22   D(2,3,4,10)          -179.7138         estimate D2E/DX2                !
 ! D23   D(7,3,4,6)            179.7662         estimate D2E/DX2                !
 ! D24   D(7,3,4,10)            -0.1052         estimate D2E/DX2                !
 ! D25   D(2,3,7,8)           -179.2008         estimate D2E/DX2                !
 ! D26   D(2,3,7,11)            -0.9506         estimate D2E/DX2                !
 ! D27   D(4,3,7,8)              1.1369         estimate D2E/DX2                !
 ! D28   D(4,3,7,11)           179.3871         estimate D2E/DX2                !
 ! D29   D(3,4,6,5)             -0.8153         estimate D2E/DX2                !
 ! D30   D(3,4,6,38)           179.8884         estimate D2E/DX2                !
 ! D31   D(10,4,6,5)           179.028          estimate D2E/DX2                !
 ! D32   D(10,4,6,38)           -0.2683         estimate D2E/DX2                !
 ! D33   D(3,4,10,9)            -0.3644         estimate D2E/DX2                !
 ! D34   D(3,4,10,39)          179.8785         estimate D2E/DX2                !
 ! D35   D(6,4,10,9)           179.7923         estimate D2E/DX2                !
 ! D36   D(6,4,10,39)            0.0353         estimate D2E/DX2                !
 ! D37   D(1,5,6,4)              0.0045         estimate D2E/DX2                !
 ! D38   D(1,5,6,38)           179.3033         estimate D2E/DX2                !
 ! D39   D(37,5,6,4)          -178.7479         estimate D2E/DX2                !
 ! D40   D(37,5,6,38)            0.5509         estimate D2E/DX2                !
 ! D41   D(3,7,8,9)             -1.5411         estimate D2E/DX2                !
 ! D42   D(3,7,8,14)           177.4286         estimate D2E/DX2                !
 ! D43   D(11,7,8,9)          -179.4519         estimate D2E/DX2                !
 ! D44   D(11,7,8,14)           -0.4822         estimate D2E/DX2                !
 ! D45   D(3,7,11,12)         -174.1464         estimate D2E/DX2                !
 ! D46   D(3,7,11,18)            1.9996         estimate D2E/DX2                !
 ! D47   D(8,7,11,12)            3.9962         estimate D2E/DX2                !
 ! D48   D(8,7,11,18)         -179.8578         estimate D2E/DX2                !
 ! D49   D(7,8,9,10)             1.0488         estimate D2E/DX2                !
 ! D50   D(7,8,9,40)          -179.7982         estimate D2E/DX2                !
 ! D51   D(14,8,9,10)         -177.687          estimate D2E/DX2                !
 ! D52   D(14,8,9,40)            1.4659         estimate D2E/DX2                !
 ! D53   D(7,8,14,13)           -2.8488         estimate D2E/DX2                !
 ! D54   D(7,8,14,41)         -179.5951         estimate D2E/DX2                !
 ! D55   D(9,8,14,13)          175.908          estimate D2E/DX2                !
 ! D56   D(9,8,14,41)           -0.8384         estimate D2E/DX2                !
 ! D57   D(8,9,10,4)            -0.1288         estimate D2E/DX2                !
 ! D58   D(8,9,10,39)          179.629          estimate D2E/DX2                !
 ! D59   D(40,9,10,4)         -179.2847         estimate D2E/DX2                !
 ! D60   D(40,9,10,39)           0.4732         estimate D2E/DX2                !
 ! D61   D(7,11,12,13)          -3.6945         estimate D2E/DX2                !
 ! D62   D(7,11,12,20)         169.395          estimate D2E/DX2                !
 ! D63   D(18,11,12,13)       -178.6282         estimate D2E/DX2                !
 ! D64   D(18,11,12,20)         -5.5387         estimate D2E/DX2                !
 ! D65   D(7,11,18,2)           -2.2593         estimate D2E/DX2                !
 ! D66   D(7,11,18,17)         171.9403         estimate D2E/DX2                !
 ! D67   D(12,11,18,2)         173.1947         estimate D2E/DX2                !
 ! D68   D(12,11,18,17)        -12.6058         estimate D2E/DX2                !
 ! D69   D(11,12,13,14)          0.5175         estimate D2E/DX2                !
 ! D70   D(11,12,13,19)        178.1585         estimate D2E/DX2                !
 ! D71   D(20,12,13,14)       -172.5122         estimate D2E/DX2                !
 ! D72   D(20,12,13,19)          5.1288         estimate D2E/DX2                !
 ! D73   D(11,12,20,21)       -177.5748         estimate D2E/DX2                !
 ! D74   D(11,12,20,27)         37.917          estimate D2E/DX2                !
 ! D75   D(11,12,20,44)        -62.7224         estimate D2E/DX2                !
 ! D76   D(13,12,20,21)         -5.016          estimate D2E/DX2                !
 ! D77   D(13,12,20,27)       -149.5242         estimate D2E/DX2                !
 ! D78   D(13,12,20,44)        109.8364         estimate D2E/DX2                !
 ! D79   D(12,13,14,8)           2.9143         estimate D2E/DX2                !
 ! D80   D(12,13,14,41)        179.6191         estimate D2E/DX2                !
 ! D81   D(19,13,14,8)        -174.7216         estimate D2E/DX2                !
 ! D82   D(19,13,14,41)          1.9832         estimate D2E/DX2                !
 ! D83   D(12,13,19,22)         -2.2654         estimate D2E/DX2                !
 ! D84   D(12,13,19,42)        179.1361         estimate D2E/DX2                !
 ! D85   D(14,13,19,22)        175.4465         estimate D2E/DX2                !
 ! D86   D(14,13,19,42)         -3.152          estimate D2E/DX2                !
 ! D87   D(1,15,16,17)           3.832          estimate D2E/DX2                !
 ! D88   D(1,15,16,23)        -173.1137         estimate D2E/DX2                !
 ! D89   D(36,15,16,17)        179.7619         estimate D2E/DX2                !
 ! D90   D(36,15,16,23)          2.8162         estimate D2E/DX2                !
 ! D91   D(15,16,17,18)         -0.633          estimate D2E/DX2                !
 ! D92   D(15,16,17,26)       -175.5566         estimate D2E/DX2                !
 ! D93   D(23,16,17,18)        176.3119         estimate D2E/DX2                !
 ! D94   D(23,16,17,26)          1.3882         estimate D2E/DX2                !
 ! D95   D(15,16,23,24)        172.5897         estimate D2E/DX2                !
 ! D96   D(15,16,23,35)         -3.5466         estimate D2E/DX2                !
 ! D97   D(17,16,23,24)         -4.4853         estimate D2E/DX2                !
 ! D98   D(17,16,23,35)        179.3785         estimate D2E/DX2                !
 ! D99   D(16,17,18,2)          -3.0799         estimate D2E/DX2                !
 ! D100  D(16,17,18,11)       -176.5673         estimate D2E/DX2                !
 ! D101  D(26,17,18,2)         171.8212         estimate D2E/DX2                !
 ! D102  D(26,17,18,11)         -1.6661         estimate D2E/DX2                !
 ! D103  D(16,17,26,25)          3.838          estimate D2E/DX2                !
 ! D104  D(16,17,26,27)       -177.9956         estimate D2E/DX2                !
 ! D105  D(18,17,26,25)       -170.6403         estimate D2E/DX2                !
 ! D106  D(18,17,26,27)          7.526          estimate D2E/DX2                !
 ! D107  D(13,19,22,21)         -0.1967         estimate D2E/DX2                !
 ! D108  D(13,19,22,43)       -179.718          estimate D2E/DX2                !
 ! D109  D(42,19,22,21)        178.429          estimate D2E/DX2                !
 ! D110  D(42,19,22,43)         -1.0923         estimate D2E/DX2                !
 ! D111  D(12,20,21,22)          2.4987         estimate D2E/DX2                !
 ! D112  D(27,20,21,22)        149.0664         estimate D2E/DX2                !
 ! D113  D(44,20,21,22)       -109.3227         estimate D2E/DX2                !
 ! D114  D(12,20,27,26)        -46.5755         estimate D2E/DX2                !
 ! D115  D(12,20,27,28)        141.1883         estimate D2E/DX2                !
 ! D116  D(21,20,27,26)        169.8704         estimate D2E/DX2                !
 ! D117  D(21,20,27,28)         -2.3657         estimate D2E/DX2                !
 ! D118  D(44,20,27,26)         59.3721         estimate D2E/DX2                !
 ! D119  D(44,20,27,28)       -112.864          estimate D2E/DX2                !
 ! D120  D(20,21,22,19)          0.0165         estimate D2E/DX2                !
 ! D121  D(20,21,22,43)        179.5432         estimate D2E/DX2                !
 ! D122  D(16,23,24,25)          2.1748         estimate D2E/DX2                !
 ! D123  D(16,23,24,34)       -176.3995         estimate D2E/DX2                !
 ! D124  D(35,23,24,25)        178.4003         estimate D2E/DX2                !
 ! D125  D(35,23,24,34)         -0.1741         estimate D2E/DX2                !
 ! D126  D(23,24,25,26)          3.5427         estimate D2E/DX2                !
 ! D127  D(23,24,25,29)       -175.8242         estimate D2E/DX2                !
 ! D128  D(34,24,25,26)       -177.9198         estimate D2E/DX2                !
 ! D129  D(34,24,25,29)          2.7132         estimate D2E/DX2                !
 ! D130  D(24,25,26,17)         -6.2432         estimate D2E/DX2                !
 ! D131  D(24,25,26,27)        175.3782         estimate D2E/DX2                !
 ! D132  D(29,25,26,17)        173.0925         estimate D2E/DX2                !
 ! D133  D(29,25,26,27)         -5.2861         estimate D2E/DX2                !
 ! D134  D(24,25,29,30)        178.978          estimate D2E/DX2                !
 ! D135  D(24,25,29,33)          0.5422         estimate D2E/DX2                !
 ! D136  D(26,25,29,30)         -0.3902         estimate D2E/DX2                !
 ! D137  D(26,25,29,33)       -178.8259         estimate D2E/DX2                !
 ! D138  D(17,26,27,20)         17.4388         estimate D2E/DX2                !
 ! D139  D(17,26,27,28)       -170.4483         estimate D2E/DX2                !
 ! D140  D(25,26,27,20)       -164.4327         estimate D2E/DX2                !
 ! D141  D(25,26,27,28)          7.6802         estimate D2E/DX2                !
 ! D142  D(20,27,28,30)        167.9853         estimate D2E/DX2                !
 ! D143  D(20,27,28,32)         -9.9472         estimate D2E/DX2                !
 ! D144  D(26,27,28,30)         -4.8853         estimate D2E/DX2                !
 ! D145  D(26,27,28,32)        177.1821         estimate D2E/DX2                !
 ! D146  D(27,28,30,29)         -0.8262         estimate D2E/DX2                !
 ! D147  D(27,28,30,31)       -178.7977         estimate D2E/DX2                !
 ! D148  D(32,28,30,29)        177.2001         estimate D2E/DX2                !
 ! D149  D(32,28,30,31)         -0.7714         estimate D2E/DX2                !
 ! D150  D(25,29,30,28)          3.5739         estimate D2E/DX2                !
 ! D151  D(25,29,30,31)       -178.4585         estimate D2E/DX2                !
 ! D152  D(33,29,30,28)       -177.9504         estimate D2E/DX2                !
 ! D153  D(33,29,30,31)          0.0171         estimate D2E/DX2                !
 --------------------------------------------------------------------------------
 Trust Radius=3.00D-01 FncErr=1.00D-07 GrdErr=1.00D-06 EigMax=2.50D+02 EigMin=1.00D-04
 Number of steps in this run=    264 maximum allowed number of steps=    264.
 GradGradGradGradGradGradGradGradGradGradGradGradGradGradGradGradGradGrad

                          Input orientation:                          
 ---------------------------------------------------------------------
 Center     Atomic      Atomic             Coordinates (Angstroms)
 Number     Number       Type             X           Y           Z
 ---------------------------------------------------------------------
      1          6           0       -6.970900    0.014390   -0.294350
      2          6           0       -5.748840    0.632390   -0.158390
      3          6           0       -4.600440   -0.055130    0.037950
      4          6           0       -4.490460   -1.433520    0.099440
      5          6           0       -6.944810   -1.412590   -0.262320
      6          6           0       -5.722720   -2.125000   -0.068370
      7          6           0       -3.576260    0.816850    0.172380
      8          6           0       -2.272740    0.416880    0.368500
      9          6           0       -2.073750   -0.993820    0.455880
     10          6           0       -3.165850   -1.904400    0.321990
     11          6           0       -4.056370    2.110400    0.040770
     12          6           0       -3.188570    3.179290    0.018640
     13          6           0       -1.796990    2.842470    0.224560
     14          6           0       -1.364120    1.493250    0.423990
     15          6           0       -8.038230    0.925030   -0.406860
     16          6           0       -7.822160    2.337230   -0.314430
     17          6           0       -6.509630    2.918780   -0.183750
     18          6           0       -5.482950    1.995770   -0.141780
     19          6           0       -0.844270    3.860280    0.178780
     20          6           0       -3.623020    4.504900   -0.338450
     21          6           0       -2.563440    5.451250   -0.352180
     22          6           0       -1.223170    5.162960   -0.106540
     23          6           0       -8.925500    3.176420   -0.287580
     24          6           0       -8.764650    4.534360   -0.044620
     25          6           0       -7.498440    5.106160    0.134480
     26          6           0       -6.301060    4.338210    0.003340
     27          6           0       -5.034540    5.056320    0.108580
     28          6           0       -5.076850    6.423230    0.496920
     29          6           0       -7.464780    6.464570    0.461850
     30          6           0       -6.265600    7.114200    0.679160
     31          1           0       -6.251070    8.164170    0.957550
     32          1           0       -4.162220    6.995940    0.635900
     33          1           0       -8.385860    7.033180    0.577140
     34          1           0       -9.662140    5.147500    0.027290
     35          1           0       -9.933170    2.780730   -0.392860
     36          1           0       -9.049430    0.534090   -0.500530
     37          1           0       -7.873290   -1.969060   -0.367100
     38          1           0       -5.738900   -3.211740   -0.037630
     39          1           0       -2.978630   -2.973480    0.387670
     40          1           0       -1.071680   -1.385860    0.613610
     41          1           0       -0.307630    1.277480    0.569630
     42          1           0        0.209030    3.644610    0.343100
     43          1           0       -0.486250    5.958900   -0.148200
     44          1           0       -3.960660    4.365710   -1.408550
 ---------------------------------------------------------------------
                    Distance matrix (angstroms):
                    1          2          3          4          5
     1  C    0.000000
     2  C    1.376169   0.000000
     3  C    2.394648   1.352796   0.000000
     4  C    2.898982   2.432690   1.384137   0.000000
     5  C    1.427578   2.371305   2.725606   2.480956   0.000000
     6  C    2.487169   2.758983   2.356943   1.422944   1.427813
     7  C    3.519284   2.205343   1.351801   2.430071   4.062819
     8  C    4.761730   3.522404   2.397967   2.900803   5.056988
     9  C    5.055829   4.065486   2.727630   2.482111   4.941498
    10  C    4.305814   3.652110   2.357653   1.423323   3.855364
    11  C    3.605558   2.255800   2.232832   3.570889   4.565787
    12  C    4.941718   3.615663   3.529196   4.793690   5.939162
    13  C    5.919176   4.544032   4.036117   5.055148   6.696465
    14  C    5.842861   4.506220   3.608362   4.294801   6.329220
    15  C    1.407522   2.321354   3.602356   4.290195   2.584749
    16  C    2.473991   2.688770   4.028280   5.048769   3.851442
    17  C    2.942870   2.409777   3.540946   4.806221   4.353886
    18  C    2.482567   1.389165   2.239937   3.578163   3.710591
    19  C    7.249160   5.881136   5.427622   6.428477   8.075538
    20  C    5.601332   4.421297   4.678771   6.017394   6.786514
    21  C    6.999178   5.779770   5.884028   7.163618   8.143511
    22  C    7.718772   6.403940   6.217338   7.364181   8.717757
    23  C    3.717384   4.071848   5.408792   6.408659   4.998278
    24  C    4.869295   4.932892   6.197651   7.342006   6.222976
    25  C    5.136956   4.812639   5.920020   7.198374   6.554240
    26  C    4.385513   3.750227   4.711130   6.049824   5.792814
    27  C    5.415986   4.489171   5.130336   6.512613   6.755257
    28  C    6.729544   5.866415   6.512048   7.888622   8.091094
    29  C    6.513108   6.110930   7.133766   8.447351   7.927449
    30  C    7.200866   6.556096   7.388044   8.749327   8.605455
    31  H    8.276734   7.630548   8.433691   9.795497   9.679034
    32  H    7.582618   6.606287   7.089934   8.452889   8.902414
    33  H    7.212837   6.961680   8.053836   9.332060   8.608853
    34  H    5.804743   5.977843   7.258669   8.370263   7.106514
    35  H    4.054304   4.709454   6.055222   6.901113   5.150851
    36  H    2.152414   3.319731   4.520028   5.001566   2.876757
    37  H    2.180292   3.365173   3.812970   3.456588   1.087526
    38  H    3.462895   3.846039   3.356485   2.177029   2.177532
    39  H    5.032965   4.579797   3.356984   2.177196   4.311548
    40  H    6.130733   5.152198   3.815020   3.457557   5.938150
    41  H    6.836741   5.527470   4.526229   5.006662   7.209769
    42  H    8.070702   6.694862   6.075541   6.923293   8.781756
    43  H    8.798252   7.487768   7.289017   8.410880   9.801270
    44  H    5.407122   4.324138   4.695264   6.015463   6.603616
                    6          7          8          9         10
     6  C    0.000000
     7  C    3.649621   0.000000
     8  C    4.307479   1.377535   0.000000
     9  C    3.856085   2.369902   1.427343   0.000000
    10  C    2.595887   2.756088   2.487599   1.428203   0.000000
    11  C    4.552719   1.386037   2.481281   3.706654   4.121981
    12  C    5.879199   2.398971   2.931221   4.341526   5.092783
    13  C    6.338211   2.696602   2.475993   3.853210   4.941259
    14  C    5.686083   2.326884   1.409696   2.586524   3.847163
    15  C    3.844326   4.500711   5.839544   6.324660   5.681284
    16  C    4.937579   4.536100   5.911869   6.688310   6.330693
    17  C    5.106100   3.626237   4.951335   5.949336   5.890645
    18  C    4.128392   2.263629   3.613686   4.573564   4.560193
    19  C    7.725538   4.089777   3.732764   5.015047   6.216251
    20  C    6.959688   3.723553   4.362905   5.767766   6.459436
    21  C    8.213474   4.772696   5.093993   6.513961   7.411005
    22  C    8.565148   4.950101   4.883906   6.240652   7.342017
    23  C    6.197653   5.864597   7.232200   8.055440   7.704536
    24  C    7.321269   6.386420   7.698650   8.693642   8.540410
    25  C    7.448759   5.812324   7.025102   8.169475   8.243449
    26  C    6.489430   4.455680   5.633607   6.819493   6.992944
    27  C    7.216388   4.483721   5.405507   6.744708   7.210352
    28  C    8.591213   5.812796   6.629914   8.002058   8.545873
    29  C    8.780468   6.863026   7.971233   9.202762   9.409571
    30  C    9.285275   6.866294   7.803431   9.130249   9.543121
    31  H   10.353680   7.858385   8.728951  10.078217  10.549816
    32  H    9.280232   6.224095   6.850231   8.260168   8.961437
    33  H    9.559355   7.870123   9.010505  10.212256  10.353451
    34  H    8.271483   7.470844   8.780571   9.771549   9.592597
    35  H    6.472972   6.677322   8.052928   8.760027   8.261844
    36  H    4.280715   5.521626   6.833189   7.204814   6.421782
    37  H    2.176811   5.149447   6.131882   5.938270   4.758048
    38  H    1.087295   4.577188   5.034490   4.312313   2.908445
    39  H    2.908250   3.843190   3.463118   2.177731   1.087335
    40  H    4.758529   3.364452   2.180022   1.087529   2.177033
    41  H    6.427061   3.324745   2.154703   2.879396   4.284286
    42  H    8.285129   4.727980   4.071617   5.170961   6.494750
    43  H    9.632052   6.007629   5.845726   7.157191   8.320626
    44  H    6.857861   3.904038   4.647606   5.980058   6.552921
                   11         12         13         14         15
    11  C    0.000000
    12  C    1.376987   0.000000
    13  C    2.382122   1.446494   0.000000
    14  C    2.788538   2.517073   1.430924   0.000000
    15  C    4.178598   5.364880   6.559599   6.749587   0.000000
    16  C    3.789300   4.721245   6.070293   6.554681   1.431621
    17  C    2.592754   3.337404   4.730911   5.373803   2.522189
    18  C    1.442773   2.586626   3.799659   4.187766   2.783201
    19  C    3.660425   2.446453   1.394887   2.435817   7.791773
    20  C    2.462769   1.439966   2.532793   3.841091   5.684561
    21  C    3.680289   2.385392   2.779534   4.207918   7.103730
    22  C    4.167355   2.795248   2.413208   3.710539   8.030896
    23  C    4.995262   5.745097   7.154681   7.779066   2.422856
    24  C    5.296298   5.738718   7.175182   8.014723   3.699482
    25  C    4.564122   4.722417   6.135058   7.125084   4.250444
    26  C    3.162779   3.321283   4.751087   5.713503   3.851730
    27  C    3.104812   2.634186   3.923814   5.125128   5.133750
    28  C    4.455329   3.783847   4.863487   6.172065   6.310055
    29  C    5.545572   5.410681   6.730510   7.869785   5.636489
    30  C    5.506928   5.038642   6.198614   7.462218   6.528972
    31  H    6.504254   5.925326   6.978294   8.286624   7.580284
    32  H    4.922792   3.986956   4.797377   6.176882   7.277826
    33  H    6.577685   6.494322   7.816621   8.945340   6.196660
    34  H    6.375642   6.766168   8.198333   9.075685   4.544758
    35  H    5.930780   6.768886   8.159807   8.703647   2.652285
    36  H    5.263878   6.451070   7.645408   7.799918   1.088179
    37  H    5.601538   6.971435   7.773179   7.415033   2.899059
    38  H    5.582314   6.881324   7.229167   6.441174   4.747222
    39  H    5.208426   6.167401   5.937015   4.749699   6.436553
    40  H    4.632532   5.067130   4.307692   2.900130   7.410424
    41  H    3.876403   3.495753   2.187798   1.088090   7.799996
    42  H    4.542999   3.444631   2.163700   2.666401   8.716413
    43  H    5.252849   3.880284   3.401342   4.586947   9.079601
    44  H    2.682557   2.010121   3.109466   4.283836   5.428466
                   16         17         18         19         20
    16  C    0.000000
    17  C    1.441531   0.000000
    18  C    2.370297   1.381224   0.000000
    19  C    7.159182   5.754490   5.009642   0.000000
    20  C    4.725690   3.297306   3.129497   2.899054   0.000000
    21  C    6.111684   4.691928   4.528592   2.401801   1.420731
    22  C    7.181548   5.743602   5.308301   1.386343   2.499221
    23  C    1.386478   2.431787   3.642299   8.123511   5.466602
    24  C    2.405923   2.777512   4.150113   7.952151   5.150103
    25  C    2.823701   2.421497   3.716591   6.769945   3.950197
    26  C    2.533504   1.446819   2.485435   5.480488   2.704904
    27  C    3.917041   2.613508   3.103340   4.358188   1.579965
    28  C    4.989029   3.846731   4.491688   4.958292   2.547833
    29  C    4.214886   3.728503   4.925667   7.119944   4.386332
    30  C    5.121479   4.290188   5.242596   6.342649   3.850611
    31  H    6.167616   5.374340   6.312503   6.954383   4.687912
    32  H    6.000156   4.775499   5.229801   4.588040   2.728621
    33  H    4.812962   4.585573   5.858262   8.191554   5.469474
    34  H    3.376376   3.866529   5.237138   8.912616   6.084215
    35  H    2.158520   3.432697   4.525888   9.170622   6.541691
    36  H    2.189095   3.498240   3.871045   8.879733   6.726034
    37  H    4.306916   5.077811   4.635124   9.148022   7.744532
    38  H    5.933604   6.180506   5.214836   8.603354   8.007120
    39  H    7.221937   6.892983   5.589757   7.162360   7.541131
    40  H    7.764769   6.981190   5.609397   5.269040   6.489746
    41  H    7.640209   6.459586   5.273138   2.666759   4.715152
    42  H    8.163431   6.778259   5.945790   1.087638   3.986128
    43  H    8.182891   6.747199   6.377574   2.153903   3.462606
    44  H    4.497000   3.176632   3.088477   3.533690   1.130703
                   21         22         23         24         25
    21  C    0.000000
    22  C    1.392758   0.000000
    23  C    6.756836   7.956444   0.000000
    24  C    6.276168   7.567886   1.388850   0.000000
    25  C    4.970931   6.280154   2.436910   1.400828   0.000000
    26  C    3.916000   5.145605   2.884801   2.471852   1.428518
    27  C    2.544524   3.818925   4.339417   3.769567   2.464540
    28  C    2.825411   4.099182   5.096010   4.178632   2.780312
    29  C    5.070759   6.401168   3.675225   2.381572   1.397706
    30  C    4.187488   5.463585   4.849306   3.663971   2.418428
    31  H    4.761716   5.951414   5.794875   4.527466   3.403645
    32  H    2.432790   3.542464   6.174981   5.263539   3.866918
    33  H    6.104647   7.434330   3.989179   2.602723   2.167226
    34  H    7.115322   8.440045   2.127660   1.089312   2.166748
    35  H    7.838766   9.034440   1.087683   2.135867   3.407877
    36  H    8.140549   9.101209   2.653792   4.036225   4.869562
    37  H    9.124458   9.754881   5.252564   6.572137   7.102875
    38  H    9.232003   9.514839   7.143212   8.316085   8.503709
    39  H    8.467339   8.338318   8.581521   9.488549   9.261391
    40  H    7.064288   6.590039   9.127378   9.729546   9.147630
    41  H    4.833091   4.048750   8.866142   9.083268   8.158180
    42  H    3.381413   2.135125   9.168239   9.026013   7.847595
    43  H    2.148030   1.085499   8.887213   8.400711   7.069504
    44  H    2.060713   3.134436   5.226913   4.996706   3.930025
                   26         27         28         29         30
    26  C    0.000000
    27  C    1.459736   0.000000
    28  C    2.467715   1.421633   0.000000
    29  C    2.466958   2.830907   2.388545   0.000000
    30  C    2.857291   2.464942   1.387003   1.381041   0.000000
    31  H    3.943474   3.443752   2.149848   2.146497   1.086347
    32  H    3.469625   2.191149   1.088053   3.349560   2.107146
    33  H    3.455214   3.919039   3.365713   1.088576   2.124259
    34  H    3.457222   4.629212   4.782565   2.598443   3.978609
    35  H    3.971768   5.424604   6.135418   4.515989   5.777479
    36  H    4.720037   6.077904   7.173442   6.213524   7.241493
    37  H    6.510821   7.592150   8.888033   8.484112   9.283584
    38  H    7.570961   8.299296   9.672471   9.841703  10.364181
    39  H    8.040340   8.293512   9.628739  10.450255  10.613690
    40  H    7.777135   7.580303   8.777066  10.125414   9.961532
    41  H    6.753514   6.069257   7.016373   8.839814   8.341265
    42  H    6.555745   5.435343   5.973685   8.176407   7.353355
    43  H    6.038345   4.644085   4.658904   7.023371   5.951481
    44  H    2.733434   1.982888   3.018292   4.492490   4.150359
                   31         32         33         34         35
    31  H    0.000000
    32  H    2.414853   0.000000
    33  H    2.445645   4.224213   0.000000
    34  H    4.647696   5.834060   2.342438   0.000000
    35  H    6.660548   7.220125   4.628002   2.419005   0.000000
    36  H    8.256812   8.181186   6.621168   4.683755   2.416605
    37  H   10.347398   9.754449   9.066126   7.348534   5.177284
    38  H   11.430837  10.350666  10.599185   9.234334   7.323099
    39  H   11.622430  10.042502  11.375732  10.523759   9.060121
    40  H   10.869565   8.933449  11.152524  10.808541   9.843752
    41  H    9.105024   6.896596   9.918969  10.137951   9.789646
    42  H    7.908025   5.515884   9.241716   9.989915  10.205496
    43  H    6.270490   3.899105   8.005250   9.213367   9.970202
    44  H    5.027197   3.337441   5.535409   5.931248   6.262161
                   36         37         38         39         40
    36  H    0.000000
    37  H    2.768911   0.000000
    38  H    5.020471   2.491671   0.000000
    39  H    7.067288   5.053339   2.802987   0.000000
    40  H    8.280822   6.896652   5.053800   2.491595   0.000000
    41  H    8.838379   8.285934   7.072521   5.023745   2.771116
    42  H    9.803373   9.866183   9.084732   7.345902   5.197983
    43  H   10.143015  10.838304  10.568973   9.289054   7.407333
    44  H    6.434391   7.518152   7.903120   7.619350   6.746547
                   41         42         43         44
    41  H    0.000000
    42  H    2.433425   0.000000
    43  H    4.739502   2.465913   0.000000
    44  H    5.176388   4.579801   4.024706   0.000000
 Stoichiometry    C30H14
 Framework group  C1[X(C30H14)]
 Deg. of freedom   126
 Full point group                 C1      NOp   1
 Largest Abelian subgroup         C1      NOp   1
 Largest concise Abelian subgroup C1      NOp   1
                         Standard orientation:                         
 ---------------------------------------------------------------------
 Center     Atomic      Atomic             Coordinates (Angstroms)
 Number     Number       Type             X           Y           Z
 ---------------------------------------------------------------------
      1          6           0       -1.567552   -2.782000    0.184506
      2          6           0       -1.411427   -1.416181    0.121236
      3          6           0       -2.453666   -0.568391   -0.037030
      4          6           0       -3.784111   -0.939604   -0.126203
      5          6           0       -2.914619   -3.250165    0.119627
      6          6           0       -4.005796   -2.342104   -0.033367
      7          6           0       -1.990675    0.699985   -0.102045
      8          6           0       -2.817105    1.792654   -0.245888
      9          6           0       -4.208595    1.494980   -0.357483
     10          6           0       -4.684202    0.149646   -0.297139
     11          6           0       -0.611721    0.691452    0.037639
     12          6           0        0.089273    1.873332    0.126288
     13          6           0       -0.708448    3.070870   -0.021672
     14          6           0       -2.122799    3.019440   -0.232643
     15          6           0       -0.343712   -3.472163    0.268225
     16          6           0        0.906178   -2.775760    0.219902
     17          6           0        0.996681   -1.338109    0.165306
     18          6           0       -0.225073   -0.694014    0.149812
     19          6           0       -0.084980    4.313350    0.093383
     20          6           0        1.481079    1.906811    0.494059
     21          6           0        2.000629    3.226312    0.580447
     22          6           0        1.266472    4.394691    0.391560
     23          6           0        2.076355   -3.517070    0.161046
     24          6           0        3.295441   -2.883265   -0.041501
     25          6           0        3.393173   -1.489828   -0.146870
     26          6           0        2.256527   -0.641247    0.022274
     27          6           0        2.490914    0.799275   -0.005825
     28          6           0        3.789818    1.253550   -0.362929
     29          6           0        4.657364   -0.970549   -0.439705
     30          6           0        4.851586    0.389075   -0.584536
     31          1           0        5.832871    0.781022   -0.836739
     32          1           0        4.010216    2.315896   -0.444819
     33          1           0        5.511056   -1.630225   -0.584740
     34          1           0        4.182441   -3.507703   -0.141037
     35          1           0        2.054468   -4.603469    0.209122
     36          1           0       -0.359850   -4.559612    0.304654
     37          1           0       -3.114773   -4.318059    0.167099
     38          1           0       -5.019124   -2.732074   -0.090817
     39          1           0       -5.751370   -0.041861   -0.379451
     40          1           0       -4.923169    2.306033   -0.477038
     41          1           0       -2.691036    3.941886   -0.333340
     42          1           0       -0.651902    5.233826   -0.026115
     43          1           0        1.756814    5.358414    0.487002
     44          1           0        1.461301    1.486077    1.543383
 ---------------------------------------------------------------------
 Rotational constants (GHZ):           0.2438836           0.1803567           0.1049483
 Standard basis: 6-311+G(d,p) (5D, 7F)
 There are   774 symmetry adapted cartesian basis functions of A   symmetry.
 There are   744 symmetry adapted basis functions of A   symmetry.
   744 basis functions,  1192 primitive gaussians,   774 cartesian basis functions
    97 alpha electrons       97 beta electrons
       nuclear repulsion energy      2598.9882706679 Hartrees.
 NAtoms=   44 NActive=   44 NUniq=   44 SFac= 1.00D+00 NAtFMM=   60 NAOKFM=F Big=F
 Integral buffers will be    131072 words long.
 Raffenetti 2 integral format.
 Two-electron integral symmetry is turned on.
 One-electron integrals computed using PRISM.
 NBasis=   744 RedAO= T EigKep=  1.26D-06  NBF=   744
 NBsUse=   720 1.00D-06 EigRej=  9.88D-07 NBFU=   720
 ExpMin= 4.38D-02 ExpMax= 4.56D+03 ExpMxC= 6.82D+02 IAcc=2 IRadAn=         4 AccDes= 0.00D+00
 Harris functional with IExCor=  402 and IRadAn=       4 diagonalized for initial guess.
 HarFok:  IExCor=  402 AccDes= 0.00D+00 IRadAn=         4 IDoV= 1 UseB2=F ITyADJ=14
 ICtDFT=  3500011 ScaDFX=  1.000000  1.000000  1.000000  1.000000
 FoFCou: FMM=F IPFlag=           0 FMFlag=      100000 FMFlg1=           0
         NFxFlg=           0 DoJE=T BraDBF=F KetDBF=T FulRan=T
         wScrn=  0.000000 ICntrl=       500 IOpCl=  0 I1Cent=   200000004 NGrid=           0
         NMat0=    1 NMatS0=      1 NMatT0=    0 NMatD0=    1 NMtDS0=    0 NMtDT0=    0
 Petite list used in FoFCou.
 Requested convergence on RMS density matrix=1.00D-08 within 128 cycles.
 Requested convergence on MAX density matrix=1.00D-06.
 Requested convergence on             energy=1.00D-06.
 No special actions if energy rises.
 EnCoef did     2 forward-backward iterations
 Restarting incremental Fock formation.
 SCF Done:  E(RB3LYP) =  -1151.75402023     A.U. after   23 cycles
            NFock= 23  Conv=0.65D-08     -V/T= 2.0037

 **********************************************************************

            Population analysis using the SCF Density.

 **********************************************************************

 Orbital symmetries:
       Occupied  (A) (A) (A) (A) (A) (A) (A) (A) (A) (A) (A) (A)
                 (A) (A) (A) (A) (A) (A) (A) (A) (A) (A) (A) (A)
                 (A) (A) (A) (A) (A) (A) (A) (A) (A) (A) (A) (A)
                 (A) (A) (A) (A) (A) (A) (A) (A) (A) (A) (A) (A)
                 (A) (A) (A) (A) (A) (A) (A) (A) (A) (A) (A) (A)
                 (A) (A) (A) (A) (A) (A) (A) (A) (A) (A) (A) (A)
                 (A) (A) (A) (A) (A) (A) (A) (A) (A) (A) (A) (A)
                 (A) (A) (A) (A) (A) (A) (A) (A) (A) (A) (A) (A)
                 (A)
       Virtual   (A) (A) (A) (A) (A) (A) (A) (A) (A) (A) (A) (A)
                 (A) (A) (A) (A) (A) (A) (A) (A) (A) (A) (A) (A)
                 (A) (A) (A) (A) (A) (A) (A) (A) (A) (A) (A) (A)
                 (A) (A) (A) (A) (A) (A) (A) (A) (A) (A) (A) (A)
                 (A) (A) (A) (A) (A) (A) (A) (A) (A) (A) (A) (A)
                 (A) (A) (A) (A) (A) (A) (A) (A) (A) (A) (A) (A)
                 (A) (A) (A) (A) (A) (A) (A) (A) (A) (A) (A) (A)
                 (A) (A) (A) (A) (A) (A) (A) (A) (A) (A) (A) (A)
                 (A) (A) (A) (A) (A) (A) (A) (A) (A) (A) (A) (A)
                 (A) (A) (A) (A) (A) (A) (A) (A) (A) (A) (A) (A)
                 (A) (A) (A) (A) (A) (A) (A) (A) (A) (A) (A) (A)
                 (A) (A) (A) (A) (A) (A) (A) (A) (A) (A) (A) (A)
                 (A) (A) (A) (A) (A) (A) (A) (A) (A) (A) (A) (A)
                 (A) (A) (A) (A) (A) (A) (A) (A) (A) (A) (A) (A)
                 (A) (A) (A) (A) (A) (A) (A) (A) (A) (A) (A) (A)
                 (A) (A) (A) (A) (A) (A) (A) (A) (A) (A) (A) (A)
                 (A) (A) (A) (A) (A) (A) (A) (A) (A) (A) (A) (A)
                 (A) (A) (A) (A) (A) (A) (A) (A) (A) (A) (A) (A)
                 (A) (A) (A) (A) (A) (A) (A) (A) (A) (A) (A) (A)
                 (A) (A) (A) (A) (A) (A) (A) (A) (A) (A) (A) (A)
                 (A) (A) (A) (A) (A) (A) (A) (A) (A) (A) (A) (A)
                 (A) (A) (A) (A) (A) (A) (A) (A) (A) (A) (A) (A)
                 (A) (A) (A) (A) (A) (A) (A) (A) (A) (A) (A) (A)
                 (A) (A) (A) (A) (A) (A) (A) (A) (A) (A) (A) (A)
                 (A) (A) (A) (A) (A) (A) (A) (A) (A) (A) (A) (A)
                 (A) (A) (A) (A) (A) (A) (A) (A) (A) (A) (A) (A)
                 (A) (A) (A) (A) (A) (A) (A) (A) (A) (A) (A) (A)
                 (A) (A) (A) (A) (A) (A) (A) (A) (A) (A) (A) (A)
                 (A) (A) (A) (A) (A) (A) (A) (A) (A) (A) (A) (A)
                 (A) (A) (A) (A) (A) (A) (A) (A) (A) (A) (A) (A)
                 (A) (A) (A) (A) (A) (A) (A) (A) (A) (A) (A) (A)
                 (A) (A) (A) (A) (A) (A) (A) (A) (A) (A) (A) (A)
                 (A) (A) (A) (A) (A) (A) (A) (A) (A) (A) (A) (A)
                 (A) (A) (A) (A) (A) (A) (A) (A) (A) (A) (A) (A)
                 (A) (A) (A) (A) (A) (A) (A) (A) (A) (A) (A) (A)
                 (A) (A) (A) (A) (A) (A) (A) (A) (A) (A) (A) (A)
                 (A) (A) (A) (A) (A) (A) (A) (A) (A) (A) (A) (A)
                 (A) (A) (A) (A) (A) (A) (A) (A) (A) (A) (A) (A)
                 (A) (A) (A) (A) (A) (A) (A) (A) (A) (A) (A) (A)
                 (A) (A) (A) (A) (A) (A) (A) (A) (A) (A) (A) (A)
                 (A) (A) (A) (A) (A) (A) (A) (A) (A) (A) (A) (A)
                 (A) (A) (A) (A) (A) (A) (A) (A) (A) (A) (A) (A)
                 (A) (A) (A) (A) (A) (A) (A) (A) (A) (A) (A) (A)
                 (A) (A) (A) (A) (A) (A) (A) (A) (A) (A) (A) (A)
                 (A) (A) (A) (A) (A) (A) (A) (A) (A) (A) (A) (A)
                 (A) (A) (A) (A) (A) (A) (A) (A) (A) (A) (A) (A)
                 (A) (A) (A) (A) (A) (A) (A) (A) (A) (A) (A) (A)
                 (A) (A) (A) (A) (A) (A) (A) (A) (A) (A) (A) (A)
                 (A) (A) (A) (A) (A) (A) (A) (A) (A) (A) (A) (A)
                 (A) (A) (A) (A) (A) (A) (A) (A) (A) (A) (A) (A)
                 (A) (A) (A) (A) (A) (A) (A) (A) (A) (A) (A) (A)
                 (A) (A) (A) (A) (A) (A) (A) (A) (A) (A) (A)
 The electronic state is 1-A.
 Alpha  occ. eigenvalues --  -10.21554 -10.21063 -10.20992 -10.20879 -10.20763
 Alpha  occ. eigenvalues --  -10.20466 -10.20415 -10.20391 -10.20315 -10.20277
 Alpha  occ. eigenvalues --  -10.20187 -10.20132 -10.20021 -10.19897 -10.19881
 Alpha  occ. eigenvalues --  -10.19565 -10.19368 -10.18870 -10.18421 -10.18381
 Alpha  occ. eigenvalues --  -10.18229 -10.18062 -10.17635 -10.17476 -10.17385
 Alpha  occ. eigenvalues --  -10.17212 -10.17094 -10.16689 -10.16593 -10.14570
 Alpha  occ. eigenvalues --   -0.94474  -0.89667  -0.89429  -0.86208  -0.85164
 Alpha  occ. eigenvalues --   -0.84415  -0.81322  -0.80518  -0.79135  -0.77992
 Alpha  occ. eigenvalues --   -0.75989  -0.75101  -0.73055  -0.71810  -0.71095
 Alpha  occ. eigenvalues --   -0.67628  -0.66067  -0.64563  -0.63816  -0.63115
 Alpha  occ. eigenvalues --   -0.60798  -0.59976  -0.59503  -0.56899  -0.55790
 Alpha  occ. eigenvalues --   -0.53148  -0.52710  -0.51488  -0.51062  -0.50580
 Alpha  occ. eigenvalues --   -0.49290  -0.48038  -0.47461  -0.46675  -0.45831
 Alpha  occ. eigenvalues --   -0.45428  -0.45184  -0.44885  -0.44019  -0.43546
 Alpha  occ. eigenvalues --   -0.43033  -0.42383  -0.41570  -0.41116  -0.40974
 Alpha  occ. eigenvalues --   -0.40425  -0.39950  -0.39028  -0.38386  -0.37395
 Alpha  occ. eigenvalues --   -0.36429  -0.35915  -0.35794  -0.35229  -0.35116
 Alpha  occ. eigenvalues --   -0.33940  -0.33662  -0.33323  -0.30845  -0.29904
 Alpha  occ. eigenvalues --   -0.28452  -0.26687  -0.25034  -0.23452  -0.22302
 Alpha  occ. eigenvalues --   -0.20796  -0.16210
 Alpha virt. eigenvalues --   -0.11583  -0.09436  -0.06485  -0.05107  -0.02880
 Alpha virt. eigenvalues --   -0.00829  -0.00142   0.00153   0.00334   0.00635
 Alpha virt. eigenvalues --    0.00864   0.01408   0.01656   0.02001   0.02838
 Alpha virt. eigenvalues --    0.03349   0.03413   0.03807   0.04077   0.04521
 Alpha virt. eigenvalues --    0.04721   0.04868   0.05143   0.05688   0.06373
 Alpha virt. eigenvalues --    0.06664   0.06998   0.07115   0.07446   0.07765
 Alpha virt. eigenvalues --    0.08262   0.08560   0.08819   0.09103   0.09470
 Alpha virt. eigenvalues --    0.09714   0.09792   0.10402   0.10843   0.11114
 Alpha virt. eigenvalues --    0.11492   0.11974   0.12347   0.12684   0.12807
 Alpha virt. eigenvalues --    0.13071   0.13440   0.13741   0.14535   0.14896
 Alpha virt. eigenvalues --    0.15063   0.15192   0.15611   0.15692   0.15945
 Alpha virt. eigenvalues --    0.16099   0.16221   0.16523   0.16668   0.16891
 Alpha virt. eigenvalues --    0.17135   0.17429   0.17661   0.17898   0.18054
 Alpha virt. eigenvalues --    0.18482   0.18609   0.18826   0.19346   0.19484
 Alpha virt. eigenvalues --    0.19813   0.19879   0.20007   0.20131   0.20669
 Alpha virt. eigenvalues --    0.20739   0.20802   0.20955   0.21237   0.21338
 Alpha virt. eigenvalues --    0.21602   0.21838   0.21910   0.22314   0.22533
 Alpha virt. eigenvalues --    0.22915   0.23176   0.23446   0.23608   0.23699
 Alpha virt. eigenvalues --    0.23969   0.24265   0.24483   0.24520   0.24816
 Alpha virt. eigenvalues --    0.25116   0.25282   0.25594   0.25954   0.26193
 Alpha virt. eigenvalues --    0.26237   0.26582   0.26736   0.27441   0.27658
 Alpha virt. eigenvalues --    0.27789   0.28185   0.28263   0.28701   0.29029
 Alpha virt. eigenvalues --    0.29308   0.29764   0.30101   0.30172   0.30550
 Alpha virt. eigenvalues --    0.30982   0.31040   0.31562   0.31795   0.31891
 Alpha virt. eigenvalues --    0.32741   0.32795   0.33141   0.33284   0.33713
 Alpha virt. eigenvalues --    0.34085   0.34248   0.34642   0.35120   0.35393
 Alpha virt. eigenvalues --    0.35603   0.36217   0.36644   0.36952   0.37090
 Alpha virt. eigenvalues --    0.37971   0.38360   0.38575   0.39508   0.39821
 Alpha virt. eigenvalues --    0.40396   0.40702   0.41674   0.42380   0.42736
 Alpha virt. eigenvalues --    0.43216   0.43978   0.44238   0.44865   0.45282
 Alpha virt. eigenvalues --    0.45865   0.46736   0.48097   0.48184   0.49078
 Alpha virt. eigenvalues --    0.50068   0.50731   0.50973   0.51667   0.51913
 Alpha virt. eigenvalues --    0.52110   0.52354   0.53207   0.53754   0.54015
 Alpha virt. eigenvalues --    0.54080   0.54773   0.55065   0.55336   0.56042
 Alpha virt. eigenvalues --    0.56360   0.56643   0.57298   0.57985   0.58324
 Alpha virt. eigenvalues --    0.58617   0.58702   0.58996   0.59605   0.59769
 Alpha virt. eigenvalues --    0.60292   0.60410   0.60726   0.60942   0.61354
 Alpha virt. eigenvalues --    0.62059   0.62501   0.62738   0.63058   0.63354
 Alpha virt. eigenvalues --    0.64054   0.64148   0.64479   0.65152   0.65559
 Alpha virt. eigenvalues --    0.65901   0.66021   0.66582   0.66853   0.67235
 Alpha virt. eigenvalues --    0.67521   0.67879   0.68038   0.68498   0.69253
 Alpha virt. eigenvalues --    0.69567   0.70217   0.70789   0.71022   0.71244
 Alpha virt. eigenvalues --    0.71547   0.71665   0.71902   0.72017   0.72309
 Alpha virt. eigenvalues --    0.72882   0.73161   0.73537   0.74086   0.74631
 Alpha virt. eigenvalues --    0.74917   0.75393   0.76077   0.76324   0.76857
 Alpha virt. eigenvalues --    0.77265   0.78055   0.78176   0.78653   0.78909
 Alpha virt. eigenvalues --    0.80106   0.80897   0.81733   0.82658   0.82902
 Alpha virt. eigenvalues --    0.84075   0.84912   0.85552   0.86282   0.86653
 Alpha virt. eigenvalues --    0.87083   0.88104   0.88700   0.88834   0.90018
 Alpha virt. eigenvalues --    0.90251   0.91179   0.91319   0.91667   0.91815
 Alpha virt. eigenvalues --    0.92341   0.92651   0.93475   0.93605   0.94443
 Alpha virt. eigenvalues --    0.94882   0.94966   0.95215   0.95798   0.96181
 Alpha virt. eigenvalues --    0.96216   0.97132   0.97582   0.97891   0.98171
 Alpha virt. eigenvalues --    0.98583   0.99335   0.99574   0.99987   1.00526
 Alpha virt. eigenvalues --    1.00965   1.01205   1.01807   1.02584   1.02963
 Alpha virt. eigenvalues --    1.03268   1.04005   1.05023   1.05443   1.05612
 Alpha virt. eigenvalues --    1.05879   1.06647   1.07165   1.07478   1.08603
 Alpha virt. eigenvalues --    1.09553   1.09868   1.10499   1.11443   1.12909
 Alpha virt. eigenvalues --    1.13133   1.13718   1.14861   1.15175   1.15772
 Alpha virt. eigenvalues --    1.16219   1.16572   1.16984   1.17628   1.19516
 Alpha virt. eigenvalues --    1.21816   1.22561   1.23125   1.24781   1.26327
 Alpha virt. eigenvalues --    1.27189   1.29749   1.30598   1.31603   1.32104
 Alpha virt. eigenvalues --    1.33556   1.35599   1.36229   1.37806   1.38542
 Alpha virt. eigenvalues --    1.40056   1.40165   1.41350   1.41417   1.42631
 Alpha virt. eigenvalues --    1.43937   1.45634   1.46193   1.46829   1.47336
 Alpha virt. eigenvalues --    1.47621   1.47805   1.48320   1.48891   1.49256
 Alpha virt. eigenvalues --    1.50481   1.50519   1.51395   1.51604   1.52044
 Alpha virt. eigenvalues --    1.52910   1.53912   1.55194   1.56650   1.56682
 Alpha virt. eigenvalues --    1.57040   1.57517   1.58320   1.58732   1.58798
 Alpha virt. eigenvalues --    1.59532   1.61453   1.62366   1.62727   1.63212
 Alpha virt. eigenvalues --    1.64436   1.66114   1.66334   1.66968   1.67724
 Alpha virt. eigenvalues --    1.68485   1.68611   1.69861   1.70765   1.71107
 Alpha virt. eigenvalues --    1.72399   1.72983   1.73594   1.74332   1.75347
 Alpha virt. eigenvalues --    1.76232   1.76366   1.76841   1.77733   1.78411
 Alpha virt. eigenvalues --    1.79267   1.79716   1.79909   1.80974   1.81601
 Alpha virt. eigenvalues --    1.82127   1.82724   1.83738   1.84390   1.85108
 Alpha virt. eigenvalues --    1.85900   1.86344   1.86489   1.86946   1.88053
 Alpha virt. eigenvalues --    1.88368   1.88871   1.89285   1.90344   1.91023
 Alpha virt. eigenvalues --    1.91496   1.92258   1.92979   1.93290   1.93932
 Alpha virt. eigenvalues --    1.94639   1.95323   1.95884   1.96481   1.96834
 Alpha virt. eigenvalues --    1.97514   1.97891   1.99205   1.99467   2.00831
 Alpha virt. eigenvalues --    2.01242   2.01849   2.02198   2.02817   2.03695
 Alpha virt. eigenvalues --    2.04140   2.05913   2.06055   2.06737   2.07997
 Alpha virt. eigenvalues --    2.08289   2.09610   2.10493   2.11650   2.12330
 Alpha virt. eigenvalues --    2.12640   2.14658   2.14849   2.15936   2.16624
 Alpha virt. eigenvalues --    2.17047   2.18874   2.19907   2.20320   2.20562
 Alpha virt. eigenvalues --    2.20807   2.22308   2.22965   2.24143   2.24720
 Alpha virt. eigenvalues --    2.25887   2.27501   2.28602   2.29524   2.30693
 Alpha virt. eigenvalues --    2.32500   2.34284   2.34936   2.35554   2.36970
 Alpha virt. eigenvalues --    2.38998   2.40890   2.42066   2.42659   2.44420
 Alpha virt. eigenvalues --    2.45087   2.45832   2.46307   2.48026   2.48613
 Alpha virt. eigenvalues --    2.50328   2.53736   2.54428   2.55940   2.56380
 Alpha virt. eigenvalues --    2.58250   2.59112   2.60025   2.60545   2.62295
 Alpha virt. eigenvalues --    2.63170   2.64034   2.65158   2.66071   2.66439
 Alpha virt. eigenvalues --    2.68035   2.68738   2.69561   2.70985   2.71766
 Alpha virt. eigenvalues --    2.72105   2.72323   2.72755   2.72926   2.73015
 Alpha virt. eigenvalues --    2.73866   2.73965   2.75016   2.75543   2.75735
 Alpha virt. eigenvalues --    2.76048   2.76628   2.77179   2.77340   2.77569
 Alpha virt. eigenvalues --    2.78537   2.78723   2.78817   2.80192   2.80907
 Alpha virt. eigenvalues --    2.81917   2.83556   2.83855   2.84003   2.84557
 Alpha virt. eigenvalues --    2.84802   2.86081   2.87653   2.87881   2.88836
 Alpha virt. eigenvalues --    2.89703   2.90198   2.91856   2.92102   2.92851
 Alpha virt. eigenvalues --    2.93271   2.94735   2.97786   2.99396   3.00685
 Alpha virt. eigenvalues --    3.01709   3.02208   3.04780   3.05729   3.06760
 Alpha virt. eigenvalues --    3.07969   3.10600   3.11064   3.13514   3.15223
 Alpha virt. eigenvalues --    3.15743   3.16725   3.17737   3.20758   3.21447
 Alpha virt. eigenvalues --    3.21865   3.23015   3.23885   3.24156   3.26164
 Alpha virt. eigenvalues --    3.30047   3.32606   3.34418   3.37413   3.39056
 Alpha virt. eigenvalues --    3.39280   3.40314   3.42155   3.42305   3.43046
 Alpha virt. eigenvalues --    3.43433   3.45374   3.45900   3.46951   3.47372
 Alpha virt. eigenvalues --    3.48876   3.50491   3.50770   3.53477   3.54794
 Alpha virt. eigenvalues --    3.56594   3.58527   3.60756   3.62994   3.64101
 Alpha virt. eigenvalues --    3.65723   3.67607   3.69747   3.72568   3.77724
 Alpha virt. eigenvalues --    3.80782   3.82516   3.86749   3.89632   3.96520
 Alpha virt. eigenvalues --    3.97704   4.05952   4.06097   4.06547   4.08315
 Alpha virt. eigenvalues --    4.10070   4.11591   4.14945   4.20235   4.23916
 Alpha virt. eigenvalues --    4.28933   4.35983   4.46584   4.51945   4.70420
 Alpha virt. eigenvalues --    4.76765   4.79526   4.80546   4.82066   4.83292
 Alpha virt. eigenvalues --    4.85973   4.90544   4.94124  23.38037  23.61588
 Alpha virt. eigenvalues --   23.68066  23.77726  23.83540  23.85712  23.88554
 Alpha virt. eigenvalues --   23.89607  23.91489  23.93091  23.95383  23.97270
 Alpha virt. eigenvalues --   23.98205  23.99855  24.01978  24.02631  24.03244
 Alpha virt. eigenvalues --   24.05266  24.05739  24.07261  24.07369  24.07941
 Alpha virt. eigenvalues --   24.09695  24.14725  24.15554  24.15841  24.17296
 Alpha virt. eigenvalues --   24.19506  24.25226  24.34684
          Condensed to atoms (all electrons):
               1          2          3          4          5          6
     1  C    8.259703   0.420825   0.250236   0.259520  -0.297638  -1.025869
     2  C    0.420825   7.293432   0.386173   0.171369   0.205928   0.955519
     3  C    0.250236   0.386173   6.747677   0.639819   0.304733  -0.028004
     4  C    0.259520   0.171369   0.639819  10.248512  -1.147062  -1.575277
     5  C   -0.297638   0.205928   0.304733  -1.147062   8.778705   1.570984
     6  C   -1.025869   0.955519  -0.028004  -1.575277   1.570984   9.749127
     7  C   -0.066561  -0.399924   0.054703   0.445679  -0.375253  -0.955314
     8  C    0.035956  -0.006104   0.334108   0.209777  -0.256745  -0.221262
     9  C   -0.265391  -0.264441   0.013420  -0.908254   0.168256  -0.091997
    10  C   -0.016123  -1.292031  -1.091892  -1.019490  -0.100467  -1.819840
    11  C    0.091213   0.199120   0.165804   0.458784  -0.352562  -0.127256
    12  C   -0.177258  -0.524238  -0.009199  -0.101675  -0.028281  -0.386080
    13  C    0.126018  -0.203053  -0.373673  -0.277018  -0.074003   0.095124
    14  C    0.033946  -0.193005  -0.039139  -0.452581  -0.073882  -0.075950
    15  C    0.808393   0.451099  -0.190026  -0.437561  -0.486602   0.140509
    16  C   -0.862297  -0.477781  -0.170978  -0.600134  -0.432349   0.203625
    17  C   -0.562405   0.464920   0.058404  -0.421552  -0.391472   0.251570
    18  C    0.073719  -0.209042  -0.296117   0.443016  -0.264236  -0.549703
    19  C    0.057537   0.068708  -0.148668   0.051025   0.001217   0.058615
    20  C    0.089305  -0.109267  -0.536774  -0.024480  -0.005382  -0.056780
    21  C   -0.031276   0.129867  -0.083454   0.008505   0.008454  -0.027696
    22  C   -0.004326  -0.054259  -0.016672  -0.036791  -0.004769  -0.008336
    23  C   -0.386372  -0.321775   0.016715  -0.075005  -0.319862  -0.110736
    24  C   -0.023122  -0.199606   0.008006  -0.030996  -0.143314  -0.027052
    25  C   -0.005559  -0.058285   0.099087  -0.032266  -0.033476   0.006870
    26  C   -0.768981  -0.101848  -0.152991   0.031676  -0.163381  -0.047367
    27  C   -0.186199  -0.253567   0.164192  -0.070840  -0.069407  -0.033826
    28  C   -0.022945   0.016495  -0.016457   0.005173  -0.003997   0.007212
    29  C    0.001708  -0.083171   0.001409  -0.004825  -0.015959   0.004339
    30  C   -0.018454  -0.086176  -0.002942  -0.005709  -0.005400   0.002238
    31  H    0.000029   0.000006  -0.000003   0.000000   0.000000   0.000000
    32  H   -0.000088  -0.000194  -0.000105   0.000002  -0.000011   0.000001
    33  H    0.000473  -0.000205   0.000011  -0.000006   0.000036   0.000002
    34  H    0.002843   0.001285   0.000114   0.000048   0.000200  -0.000005
    35  H    0.040254   0.004535   0.000927   0.000075   0.007187   0.000457
    36  H   -0.028927   0.025960  -0.009215   0.005844  -0.002295   0.001906
    37  H   -0.091405   0.017036  -0.006107  -0.012220   0.363304  -0.002899
    38  H    0.021016  -0.000383   0.023895  -0.084096  -0.003274   0.369522
    39  H    0.003969  -0.010071   0.026616  -0.074896   0.003329   0.018899
    40  H    0.002306  -0.002819  -0.003045  -0.018729  -0.000775   0.001201
    41  H   -0.000345   0.004194  -0.011258   0.010502   0.000166   0.000617
    42  H    0.000013  -0.000361   0.001409  -0.000703   0.000011  -0.000090
    43  H    0.000016   0.000087   0.000215  -0.000019   0.000005  -0.000006
    44  H   -0.002291   0.003223  -0.008098   0.001127  -0.000166  -0.000030
               7          8          9         10         11         12
     1  C   -0.066561   0.035956  -0.265391  -0.016123   0.091213  -0.177258
     2  C   -0.399924  -0.006104  -0.264441  -1.292031   0.199120  -0.524238
     3  C    0.054703   0.334108   0.013420  -1.091892   0.165804  -0.009199
     4  C    0.445679   0.209777  -0.908254  -1.019490   0.458784  -0.101675
     5  C   -0.375253  -0.256745   0.168256  -0.100467  -0.352562  -0.028281
     6  C   -0.955314  -0.221262  -0.091997  -1.819840  -0.127256  -0.386080
     7  C    7.065899   0.620214   0.209043   1.001053  -0.012569   0.964990
     8  C    0.620214   8.035724  -0.189192  -0.840592   0.333341  -0.016864
     9  C    0.209043  -0.189192   8.096560   1.027912  -0.092631   0.007334
    10  C    1.001053  -0.840592   1.027912  10.929320  -0.546595   0.301401
    11  C   -0.012569   0.333341  -0.092631  -0.546595   9.165078   1.293753
    12  C    0.964990  -0.016864   0.007334   0.301401   1.293753  12.708318
    13  C   -1.037628  -1.200783  -0.441487  -0.251218   0.432095  -0.053938
    14  C    0.216795   1.190824  -0.329782   0.313376   0.674843   0.370227
    15  C   -0.070180   0.004690  -0.060483  -0.019809   0.034667  -0.117274
    16  C   -0.371431   0.141980  -0.087126  -0.066955  -0.485128  -0.603995
    17  C   -0.155418  -0.103322  -0.036214  -0.288965   0.398190  -0.513282
    18  C    0.244526   0.058115  -0.395509   0.203883  -0.685209   0.381589
    19  C   -0.244614  -1.347216  -0.287814  -0.294295  -0.914625  -0.379418
    20  C   -0.277452  -1.082852  -0.043380  -0.218187  -2.102103   2.461046
    21  C    0.011318  -0.091625   0.007940   0.002856  -0.907115  -1.862487
    22  C   -0.268649  -0.076143  -0.066077   0.014820  -0.777574  -1.012450
    23  C   -0.005448   0.065921  -0.011661   0.021334   0.312050  -0.001461
    24  C   -0.055373   0.026209  -0.003598   0.000764   0.182861  -0.316522
    25  C   -0.088964   0.018415   0.013146  -0.003168  -0.302556  -1.413249
    26  C   -0.066059   0.135819  -0.026821   0.054269   0.200893  -0.688553
    27  C   -0.547009   0.430946   0.036979   0.043908  -0.038916  -4.287484
    28  C    0.094453  -0.033573   0.009433  -0.015451  -0.293959  -0.138868
    29  C    0.051605  -0.008583   0.000220  -0.000766  -0.106958   0.280953
    30  C    0.045136  -0.014832  -0.000613  -0.002562  -0.092167   0.415640
    31  H    0.000031  -0.000000   0.000000  -0.000000  -0.000794   0.000372
    32  H    0.000373  -0.000262  -0.000010   0.000001  -0.001932   0.008058
    33  H   -0.000054  -0.000007   0.000000  -0.000001  -0.001021  -0.001854
    34  H    0.000036   0.000010   0.000002   0.000003   0.000712   0.000580
    35  H   -0.000324   0.000016   0.000011  -0.000020   0.001297  -0.000331
    36  H    0.002767  -0.000154   0.000095   0.000249   0.000036  -0.000050
    37  H   -0.000488   0.001455  -0.000358   0.000655   0.001227  -0.000472
    38  H   -0.011976   0.004029   0.003149   0.010976   0.000338  -0.000083
    39  H   -0.004806   0.021177  -0.004660   0.350040   0.004287   0.000061
    40  H    0.013456  -0.087351   0.365911  -0.001146  -0.011539   0.002822
    41  H    0.027705  -0.031948   0.009296  -0.000493  -0.002373  -0.008047
    42  H   -0.000482   0.044467   0.003839   0.000123  -0.020250  -0.009926
    43  H   -0.000075   0.006069  -0.000089  -0.000045  -0.009288  -0.065426
    44  H    0.009592  -0.005259  -0.001131   0.000304  -0.042768   0.026027
              13         14         15         16         17         18
     1  C    0.126018   0.033946   0.808393  -0.862297  -0.562405   0.073719
     2  C   -0.203053  -0.193005   0.451099  -0.477781   0.464920  -0.209042
     3  C   -0.373673  -0.039139  -0.190026  -0.170978   0.058404  -0.296117
     4  C   -0.277018  -0.452581  -0.437561  -0.600134  -0.421552   0.443016
     5  C   -0.074003  -0.073882  -0.486602  -0.432349  -0.391472  -0.264236
     6  C    0.095124  -0.075950   0.140509   0.203625   0.251570  -0.549703
     7  C   -1.037628   0.216795  -0.070180  -0.371431  -0.155418   0.244526
     8  C   -1.200783   1.190824   0.004690   0.141980  -0.103322   0.058115
     9  C   -0.441487  -0.329782  -0.060483  -0.087126  -0.036214  -0.395509
    10  C   -0.251218   0.313376  -0.019809  -0.066955  -0.288965   0.203883
    11  C    0.432095   0.674843   0.034667  -0.485128   0.398190  -0.685209
    12  C   -0.053938   0.370227  -0.117274  -0.603995  -0.513282   0.381589
    13  C   10.762559   0.617665   0.003491   0.124523   0.017004  -0.067132
    14  C    0.617665   7.330351   0.017203  -0.006173  -0.042826   0.061059
    15  C    0.003491   0.017203   8.007897   0.792992   0.323567   0.277755
    16  C    0.124523  -0.006173   0.792992  11.450402   0.250137   0.602500
    17  C    0.017004  -0.042826   0.323567   0.250137   7.786322  -0.640119
    18  C   -0.067132   0.061059   0.277755   0.602500  -0.640119   7.828540
    19  C   -2.262151  -1.846994  -0.005020   0.059375   0.083889   0.532985
    20  C   -1.616137  -1.286358  -0.047381  -0.266856  -0.753027   1.177757
    21  C    0.482812  -0.356120   0.099520   0.125845  -0.159554  -0.435453
    22  C   -0.310616  -0.499334   0.007815   0.013248  -0.062280  -0.065819
    23  C    0.028872   0.011707  -0.730678  -0.860743   0.970384  -0.633134
    24  C    0.037623  -0.001568  -0.773141  -2.283171   0.792343  -0.790201
    25  C    0.161273   0.008211  -0.723003   1.104503  -0.213989  -0.031071
    26  C    0.101900   0.075210  -0.741748  -0.972239   0.622713  -0.298090
    27  C    1.294291   0.111413  -0.514569  -0.395420   0.013187  -0.949530
    28  C   -0.337021  -0.030440  -0.109345   0.185669  -0.289549  -0.097221
    29  C   -0.021039  -0.001948  -0.141422  -0.402404  -0.698928   0.245367
    30  C   -0.119108  -0.000599  -0.105409  -0.286210  -0.804071   0.159412
[...]
 ,-0.00039415,-0.00046514,0.00015825,0.00031260,-0.00027929,0.00021844,
 0.00004627,0.00057882,-0.00020852,0.00000566,0.00000827,0.00000556,-0.
 00002705,0.00000123,-0.00000516,0.00001776,-0.00001623,0.00000259,-0.0
 0002674,0.00003917,0.00001871,0.00005259,0.00012101,-0.00009993,-0.000
 03109,-0.00002498,-0.00004354,0.00000519,0.00001901,0.00001228,-0.0000
 0851,0.00001347,0.00000775,-0.00000681,0.00000877,0.00000550,0.0000038
 8,0.00000567,0.00000321,-0.00000453,0.00000223,0.00000126,-0.00000401,
 0.00000411,0.00000082,-0.00000688,-0.00000063,-0.00000096,-0.00002133,
 0.00000908,-0.00002006,-0.00000802,-0.00000589,-0.00000273,-0.00002138
 ,-0.00002344,-0.00000224,-0.00001752,-0.00005055,-0.00003825,-0.000033
 85,-0.00084397,0.00005669,0.33438299,0.00003899,0.00009111,-0.00003096
 ,-0.00029977,-0.00036030,-0.00003204,-0.00099481,0.00078949,-0.0002839
 7,-0.00012806,0.00025978,-0.00006366,-0.00003928,0.00002376,-0.0000067
 1,0.00007850,-0.00004404,0.00003082,-0.00315637,-0.00416063,0.00011926
 ,-0.02302096,0.00940348,-0.00504159,0.00022701,0.00151310,-0.00037237,
 0.00037105,-0.00003964,0.00006300,-0.00006829,-0.00074339,-0.00004297,
 -0.00007216,-0.00480875,0.00145905,0.02799643,-0.00151198,0.00552794,0
 .03609763,-0.06357612,0.01036526,-0.00006518,0.00004342,-0.00000431,-0
 .00005598,-0.00005238,-0.00000321,0.00007121,-0.00005605,0.00002519,-0
 .00011484,0.00013102,-0.00006325,0.00218326,0.00110337,-0.00027896,0.0
 0120796,0.00006794,-0.00010347,0.00029961,0.00034542,-0.00014702,-0.00
 056214,0.00010095,-0.00012418,0.00000397,0.00001074,0.00000084,-0.0000
 1977,-0.00001260,-0.00000372,0.00002017,0.00000620,-0.00001940,-0.0000
 0385,0.00000476,-0.00002304,-0.00013451,-0.00025843,0.00024230,0.00011
 752,-0.00002046,-0.00001682,0.00002311,-0.00000735,-0.00000082,-0.0000
 1912,-0.00000765,-0.00003387,0.00001047,-0.00000862,-0.00000024,0.0000
 2300,-0.00001332,-0.00000164,0.00000098,-0.00000097,0.00000249,0.00000
 250,0.00000034,0.00000047,0.00000079,0.00000123,0.00000020,-0.00001532
 ,0.00001211,0.00000863,0.00000095,-0.00000496,-0.00000108,-0.00001788,
 -0.00001403,-0.00000029,0.00000545,-0.00000943,0.00002185,0.00059703,-
 0.00034774,0.00020209,-0.03964938,0.06263347,0.00012491,-0.00002528,-0
 .00027592,-0.00003439,-0.00017136,0.00016858,-0.00015333,0.00013864,0.
 00040341,0.00020227,-0.00013438,-0.00012705,0.00003184,-0.00003277,-0.
 00001808,-0.00005338,0.00002044,0.00009202,-0.00069172,-0.00079308,0.0
 0580414,-0.00285943,-0.00031605,0.00300017,0.00088578,-0.00000301,-0.0
 0276824,-0.00024627,-0.00011776,-0.00024606,0.00039019,0.00049635,-0.0
 0100767,-0.00066859,0.00043498,0.00575817,-0.00371550,-0.00013776,0.00
 198389,-0.05624545,0.01176043,-0.04574751,-0.00002596,0.00012357,-0.00
 007316,-0.00008657,-0.00011507,0.00001581,0.00009133,0.00019275,0.0000
 7977,0.00021510,0.00004646,-0.00065254,-0.00016883,-0.00048514,-0.0043
 9370,-0.00010867,0.00115645,0.00083930,-0.00130373,0.00024280,-0.00059
 263,0.00090736,-0.00085551,0.00049688,0.00000095,0.00002031,-0.0000022
 4,-0.00000275,-0.00001203,-0.00000148,-0.00007368,0.00013983,0.0000508
 5,0.00003607,-0.00014537,-0.00008499,0.00013519,0.00003435,-0.00017744
 ,-0.00016093,0.00016151,0.00018574,-0.00009318,-0.00015959,-0.00006707
 ,0.00020841,-0.00001165,0.00002657,0.00000076,0.00000799,-0.00001800,-
 0.00001242,-0.00000029,-0.00000216,-0.00000293,-0.00000261,-0.00000090
 ,0.00000016,0.00000088,0.00000019,0.00000183,-0.00000248,0.00000404,-0
 .00000310,0.00000402,0.00010169,-0.00000114,0.00000183,-0.00000297,-0.
 00000655,-0.00000203,0.00001128,-0.00005381,0.00001939,0.00022251,-0.0
 0012726,-0.00010612,0.00033020,0.06331742,-0.01157191,0.03613640,0.000
 02099,-0.00001246,-0.00001966,-0.00017263,0.00003607,-0.00004136,0.000
 15385,-0.00000188,0.00012546,0.00007912,-0.00009320,0.00001120,-0.0000
 1367,-0.00005254,0.00000899,-0.00003379,0.00001714,-0.00002105,0.00023
 965,-0.00002441,0.00009266,0.00008129,-0.00055963,0.00001007,-0.000011
 69,0.00017862,-0.00005637,-0.00016221,-0.00004529,-0.00001622,-0.00095
 975,0.00102934,-0.00025924,-0.00006237,-0.00378412,-0.00058967,-0.0165
 9098,0.00651041,-0.00569578,0.00065163,0.00211716,0.00036910,0.0000040
 7,-0.00000686,-0.00000261,0.00001755,0.00000259,0.00000962,-0.00002921
 ,-0.00003280,-0.00001094,0.00001623,-0.00028625,0.00003748,-0.30279494
 ,0.04504997,-0.05637488,0.00019308,0.00063129,-0.00081654,0.00126573,-
 0.00035647,0.00075173,-0.00420413,0.00030329,-0.00358968,-0.00000170,0
 .00000250,-0.00000007,-0.00000822,0.00000606,-0.00000328,-0.00001490,0
 .00003441,0.00000096,0.00002810,0.00002156,0.00002646,-0.00000045,0.00
 017586,0.00019865,-0.00013997,-0.00001753,-0.00000872,-0.00004434,-0.0
 0001754,0.00001139,0.00003451,-0.00001604,0.00001839,-0.00001281,0.000
 02118,0.00000058,0.00000638,-0.00003892,-0.00002085,-0.00001126,0.0000
 0392,-0.00000672,-0.00000775,0.00000472,-0.00000065,-0.00000895,-0.000
 00242,-0.00000031,-0.00000844,-0.00000285,-0.00000051,-0.00000681,-0.0
 0000624,0.00000598,-0.00000493,-0.00001196,-0.00000196,-0.00000118,-0.
 00001238,0.00000434,0.00001560,-0.00002620,0.00001133,0.00063996,-0.00
 094122,0.00014530,0.32153174,-0.00003976,-0.00007499,0.00004107,-0.000
 06110,0.00006671,0.00000035,0.00006968,-0.00004177,-0.00008250,-0.0001
 0544,-0.00002594,-0.00001049,-0.00003636,0.00009401,-0.00001944,0.0001
 1092,-0.00002480,0.00003466,-0.00026985,0.00023957,-0.00002543,0.00057
 338,0.00006163,0.00020099,-0.00002157,-0.00010346,0.00005013,0.0000932
 8,0.00001440,0.00000503,-0.00105469,0.00039733,-0.00014958,-0.00274467
 ,-0.00318931,0.00160795,-0.02201948,0.00720974,-0.00353053,-0.00147734
 ,0.00086363,-0.00098005,-0.00001651,0.,0.00000090,-0.00002372,0.000020
 13,0.00001200,0.00000326,-0.00001914,-0.00000959,0.00002376,-0.0002473
 5,-0.00016290,0.04706137,-0.06616744,0.01188009,0.00031489,-0.00154419
 ,0.00207907,-0.00107879,-0.00088232,-0.00095215,0.02935164,-0.00322356
 ,0.01122633,-0.00000140,-0.00001179,-0.00000343,0.00000617,-0.00001514
 ,0.00000584,0.00004167,-0.00001267,0.00002561,-0.00002621,-0.00011911,
 -0.00007343,0.00027865,-0.00006255,-0.00055446,0.00023834,0.00009611,0
 .00004736,0.00005019,0.00000337,-0.00002096,-0.00000313,0.00004831,-0.
 00000358,0.00001410,-0.00002179,-0.00000259,-0.00008662,0.00009695,0.0
 0003908,0.00001301,-0.00000230,0.00001100,0.00000763,-0.00000017,0.000
 00248,0.00000181,0.00000503,-0.00000188,0.00000456,0.00000119,-0.00000
 106,0.00000398,-0.00000400,-0.00000631,0.00000084,0.00000463,0.0000030
 7,0.00000786,0.00000853,-0.00000708,-0.00001001,-0.00001172,-0.0000025
 6,0.00053017,-0.00041987,0.00017754,-0.04999817,0.06623700,-0.00006170
 ,-0.00005822,0.00008697,0.00011317,0.00005220,0.00006726,-0.00002058,-
 0.00009784,-0.00024635,-0.00010820,0.00001154,-0.00002575,-0.00002323,
 0.00010950,-0.00002771,0.00010152,-0.00001838,0.00005266,-0.00022098,0
 .00020970,0.00019661,0.00026070,-0.00003893,0.00023512,-0.00005043,-0.
 00011153,0.00003959,0.00012434,0.00000343,-0.00000076,0.00051009,-0.00
 030730,0.00021610,0.00006636,0.00187521,0.00432140,0.00261938,-0.00044
 989,0.00613049,0.00039140,-0.00057928,-0.00193682,-0.00001188,0.000005
 42,-0.00000171,-0.00004059,-0.00000279,0.00001420,-0.00003067,0.000020
 38,0.00001454,0.00007882,0.00008830,-0.00044299,-0.05773943,0.01862555
 ,-0.06018288,0.00273966,-0.00103168,0.00238177,-0.00667059,0.01084929,
 -0.00047094,-0.00864647,-0.00866026,0.01246964,-0.00003588,-0.00001970
 ,-0.00001143,0.00004544,-0.00002485,0.00000471,-0.00002919,0.00000860,
 0.00005763,0.00005683,-0.00008380,-0.00006675,-0.00023524,-0.00008127,
 -0.00079640,0.00007007,0.00030926,0.00039940,-0.00002238,0.00001661,-0
 .00008051,-0.00004042,-0.00017592,-0.00004426,0.00002381,-0.00001629,0
 .00002655,0.00004017,-0.00011243,-0.00022774,-0.00002171,-0.00000710,-
 0.00000075,0.00000194,0.00000151,0.00000389,0.00000157,-0.00000158,-0.
 00000330,0.00000223,0.00000048,0.00000177,0.00000145,-0.00000250,-0.00
 001861,0.00000059,0.00000097,0.00000958,-0.00000131,-0.00000171,-0.000
 00313,0.00000034,-0.00000022,0.00000945,-0.00009346,-0.00000865,0.0002
 0040,0.06544007,-0.01970219,0.04107576,-0.00001854,-0.00003802,-0.0000
 0715,0.00002823,0.00001864,0.00000357,-0.00001387,-0.00001524,0.000036
 40,-0.00002795,-0.00003883,-0.00000587,-0.00000331,0.00005918,-0.00000
 550,0.00005163,-0.00001954,0.00000326,-0.00006911,0.00000350,0.0000087
 3,0.00002679,0.00010680,0.00006425,0.00003276,0.00001000,0.00000454,0.
 00000712,0.00000379,-0.00000534,0.00021942,-0.00020373,0.00001218,-0.0
 0009401,0.00075962,-0.00029822,0.00041493,0.00180991,-0.00102042,0.000
 26618,0.00007323,0.00012349,-0.00001296,0.00001039,0.00000012,-0.00000
 392,-0.00004680,-0.00000168,0.00001894,0.00008063,0.00003244,0.0000463
 8,0.00001987,-0.00003942,0.00844409,0.00829692,-0.00218306,-0.00394454
 ,0.00124884,0.00070369,-0.02734075,-0.01397595,0.00332402,-0.18415556,
 -0.13430937,0.03023646,-0.00003152,-0.00000053,-0.00000904,0.00001275,
 0.00002837,0.00000735,-0.00008713,-0.00008120,0.00000441,-0.00021902,0
 .00036811,0.00011906,-0.00017614,-0.00116200,-0.00050694,-0.00000562,0
 .00005825,0.00009950,-0.00007764,0.00001073,0.00000850,0.00001795,-0.0
 0004082,-0.00002675,-0.00002280,0.00003613,0.00000958,0.00000557,-0.00
 007926,-0.00005402,-0.00002522,0.00000393,-0.00000152,-0.00002453,0.00
 000133,-0.00000245,-0.00000725,-0.00000905,-0.00000007,-0.00000626,-0.
 00000520,0.00000009,-0.00000631,-0.00000458,0.00000288,0.00000088,-0.0
 0000713,0.00000074,0.00000410,-0.00000359,0.00000134,0.00000557,-0.000
 00712,0.00000557,-0.00000104,-0.00002058,-0.00001580,0.00058507,-0.000
 17735,0.00054133,0.20633334,0.00000444,0.00008817,-0.00000143,-0.00011
 451,-0.00005482,-0.00001074,0.00008268,0.00004977,0.00008781,0.0001715
 9,-0.00004553,0.00000350,0.00001298,-0.00014625,0.00001677,-0.00013004
 ,0.00005760,-0.00003337,0.00013747,-0.00016129,0.00010523,0.00006713,-
 0.00054842,-0.00037360,-0.00010152,0.00017799,-0.00013360,-0.00017969,
 -0.00008581,0.00001371,0.00005260,0.00028639,-0.00033696,0.00037842,-0
 .00028784,0.00001027,0.00325041,-0.00213872,0.00437735,-0.00115194,-0.
 00021613,0.00010866,0.00002244,-0.00003993,-0.00000239,0.00003520,0.00
 003765,0.00000803,-0.00005028,-0.00011212,-0.00003437,-0.00002853,0.00
 001382,-0.00000371,-0.02253544,-0.02182632,0.00399098,0.00231367,0.001
 18623,0.00195618,0.00857549,0.01043690,-0.00344362,-0.12897481,-0.1788
 8825,0.03071018,0.00003350,0.00000193,0.00000585,-0.00001965,0.0000027
 7,-0.00000019,0.00003407,0.00001698,-0.00001810,0.00010984,-0.00006529
 ,-0.00006417,0.00002134,0.00028819,0.00018801,0.00001961,-0.00006887,0
 .00000730,0.00004873,0.00000210,0.00001172,-0.00000754,0.00003846,0.00
 001391,0.00000753,-0.00000193,-0.00001054,-0.00003339,0.00006878,0.000
 01066,0.00000368,0.00000109,0.00000442,0.00000348,0.00000538,0.0000025
 9,-0.00000538,0.00000072,0.00000015,-0.00000774,0.00000028,0.00000003,
 -0.00000568,-0.00000039,-0.00000278,-0.00000701,-0.00001106,0.00000155
 ,-0.00001956,-0.00001984,0.00001405,0.00001665,-0.00000763,0.00000664,
 -0.00000743,0.00000693,0.00016354,0.00037262,0.00054558,-0.00112155,0.
 13732742,0.19109971,0.00005338,0.00019065,0.00000078,-0.00027518,-0.00
 002142,-0.00003122,0.00039702,0.00025579,0.00036630,0.00032729,-0.0001
 9747,0.00000026,-0.00000849,-0.00035263,0.00004045,-0.00024836,0.00013
 916,-0.00009274,0.00004277,-0.00090792,0.00025811,-0.00046322,0.000010
 00,-0.00100303,0.00005841,0.00040774,-0.00018025,-0.00047503,-0.000041
 46,-0.00000270,0.00045157,0.00083802,-0.00126693,0.00000660,-0.0016180
 5,0.00014239,-0.00206061,0.00332155,0.00669010,0.00056381,0.00074364,0
 .00058820,0.00006182,-0.00006313,-0.00000195,0.00010372,0.00009449,0.0
 0003226,-0.00007275,-0.00018740,-0.00008622,-0.00010298,0.00002274,-0.
 00003148,0.00841729,0.00531066,0.00434282,-0.00294273,0.00183188,0.006
 48443,0.00525012,-0.00616492,-0.00011453,0.02086201,0.03346368,-0.0468
 5165,0.00009570,0.00002358,0.00002423,-0.00010754,0.00002909,-0.000018
 61,0.00006660,-0.00006803,-0.00004246,-0.00009394,0.00002891,-0.000079
 72,-0.00026171,-0.00029713,0.00001818,0.00031577,-0.00039164,-0.000269
 42,0.00016924,-0.00001065,0.00007017,0.00002703,0.00029113,0.00004543,
 0.00000245,-0.00001092,-0.00003842,-0.00024360,0.00031990,0.00030661,0
 .00004390,0.00000588,0.00002792,0.00000511,0.00000357,0.00000662,-0.00
 000624,0.00000796,0.00000238,-0.00001055,0.00000154,-0.00000336,-0.000
 00374,0.00000563,-0.00000582,-0.00001593,-0.00001508,0.00000093,-0.000
 01108,-0.00001372,0.00002197,0.00000978,0.00000678,0.00001386,-0.00013
 215,0.00008293,0.00028642,0.00049097,-0.00133472,-0.00348509,-0.030861
 28,-0.03630424,0.03365594,-0.00012511,-0.00009849,0.00002152,-0.000072
 84,0.00018883,-0.00008538,0.00047220,0.00031424,0.00020424,0.00010368,
 -0.00031848,0.00005612,-0.00004399,0.00006058,-0.00000573,0.00010993,0
 .00004407,-0.00001590,0.00008019,-0.00076668,0.00007802,-0.00007674,-0
 .00026220,-0.00029708,-0.00001269,0.00022209,-0.00001147,-0.00018261,-
 0.00006918,-0.00001973,0.00121735,0.00064211,-0.00016509,0.00023698,0.
 00119123,-0.00577782,-0.00072522,0.00062122,0.00100507,0.00009237,0.00
 026834,0.00016881,0.00013980,-0.00000451,0.00000054,-0.00008173,-0.000
 04312,-0.00010183,0.00006692,-0.00019755,0.00019018,-0.00024755,-0.000
 27012,-0.00033894,-0.00007234,-0.00451736,-0.00053488,-0.03350909,-0.0
 0417302,-0.03877309,0.00583592,-0.00423785,-0.00832637,-0.00765846,0.0
 0639023,-0.00348430,0.00000602,-0.00001501,0.00000751,0.00016773,-0.00
 005279,-0.00004328,0.00016501,0.00098155,-0.00039880,0.00120141,-0.000
 01969,0.00019535,-0.00626617,0.00657374,0.02833849,-0.00174878,0.00047
 860,0.00024817,-0.00053679,0.00020310,0.00023770,-0.00029741,0.0003552
 5,-0.00163565,-0.00005164,0.00007116,0.00006514,-0.00020391,-0.0002413
 5,0.00082126,-0.00001923,-0.00009788,0.00015499,0.00004123,0.00001926,
 0.00001289,0.00000172,-0.00001351,0.00001023,0.00000194,0.00000353,0.0
 0000833,-0.00000116,0.00000798,-0.00000371,0.00000191,0.00000249,0.000
 00175,-0.00001070,0.00000233,-0.00000349,0.00000247,0.00000124,0.00000
 390,-0.00003582,0.00002186,0.00022051,-0.00025748,0.00045102,0.0008730
 8,-0.00014671,0.00027717,0.00057474,0.04243938,-0.00020649,0.00013368,
 -0.00003218,0.00035082,-0.00040745,-0.00007372,-0.00066093,0.00007229,
 0.00038660,-0.00000228,0.00018149,0.00003978,-0.00001728,-0.00001452,0
 .00002123,-0.00000254,0.00001564,-0.00009149,0.00008784,0.00143716,-0.
 00105053,0.00127798,0.00039553,0.00005355,-0.00017120,-0.00017840,0.00
 002872,0.00028855,-0.00015983,0.00010536,0.00021903,-0.00086182,-0.000
 79841,0.00856758,-0.00796495,0.02815301,0.00110232,0.00144618,0.000432
 24,0.00002648,-0.00227071,-0.00027389,0.00003539,-0.00026076,0.0000109
 2,0.00006334,0.00020122,-0.00006867,-0.00030100,0.00011950,-0.00025275
 ,0.00032024,0.00011602,0.00038730,-0.00022748,-0.00560665,0.00049111,-
 0.00898648,-0.02685659,-0.02334273,0.00717596,-0.00354988,-0.00777430,
 -0.00726797,0.00561309,-0.00217156,0.00006814,-0.00007161,0.00002190,0
 .00001861,0.00011404,-0.00000047,0.00024190,-0.00073007,-0.00010796,-0
 .00072332,0.00063803,0.00040319,0.00180751,0.00047967,-0.00604092,0.00
 092126,-0.00152040,-0.00066511,0.00050195,0.00056407,0.00026669,-0.000
 68179,-0.00015189,0.00085009,-0.00002097,0.00002989,-0.00012731,0.0004
 2772,0.00016180,-0.00061020,0.00002252,0.00005754,-0.00010055,-0.00000
 980,-0.00000313,-0.00001268,-0.00000405,-0.00000417,0.00001049,-0.0000
 0480,-0.00000101,0.00000061,-0.00000678,0.00000114,0.00001003,0.000002
 28,-0.00000184,0.00000074,-0.00000634,0.00000744,0.00000611,0.00000077
 ,-0.00001171,0.00001132,0.00002874,-0.00006990,-0.00014284,-0.00017135
 ,0.00021152,0.00052789,-0.00008969,0.00031300,0.00056362,-0.00399444,0
 .03838737,0.00043340,0.00008547,0.00009666,-0.00032463,-0.00061883,-0.
 00013155,-0.00029731,-0.00047068,-0.00002168,-0.00009699,0.00042386,-0
 .00012912,-0.00006716,-0.00035476,0.00003998,-0.00028201,0.00015032,-0
 .00003166,-0.00047939,0.00134768,0.00015969,0.00024702,0.00039427,-0.0
 0003694,-0.00010973,-0.00004223,-0.00002928,0.00008800,0.00006398,0.00
 002675,-0.00201651,-0.00295945,0.00180349,-0.00252617,0.00699149,-0.00
 967436,0.00123376,0.00139825,-0.00066610,-0.00049567,-0.00015978,-0.00
 001649,-0.00003560,0.00019935,0.00000149,-0.00040929,-0.00009915,-0.00
 001706,0.00033607,0.00087839,-0.00037690,0.00116227,0.00023919,-0.0003
 6781,0.00069488,0.00165215,-0.00013958,-0.02148791,-0.00540701,-0.2461
 8024,-0.00935634,-0.00754214,-0.01324383,0.00192084,-0.00248291,0.0003
 6723,0.00015802,-0.00007068,-0.00001444,-0.00005724,0.00012039,0.00003
 272,0.00023608,-0.00066001,0.00004739,-0.00149729,-0.00096891,0.000878
 08,0.00548050,-0.00368016,-0.01209432,0.00110357,0.00046958,0.00008672
 ,0.00016559,0.00016616,-0.00005735,0.00014618,-0.00030540,0.00049585,0
 .00006730,-0.00007357,-0.00003922,0.00015516,-0.00004927,-0.00031195,0
 .00002194,0.00002674,-0.00004092,0.00000470,-0.00000781,0.00000026,0.0
 0000452,0.00000994,0.00000139,-0.00000735,0.00001145,0.00000657,0.0000
 0320,0.00000664,-0.00001733,-0.00002021,-0.00001248,0.00000003,0.00000
 137,-0.00001835,-0.00000151,0.00000392,0.00000212,-0.00000339,-0.00008
 285,0.00012782,0.00006137,-0.00023365,0.00018640,0.00005845,-0.0003089
 9,0.00007623,0.00017886,0.02652402,0.01095574,0.27930006\\0.00000413,0
 .00000456,-0.00000189,-0.00000254,0.00000135,0.00000155,0.00000383,-0.
 00000599,0.00000428,0.00000019,0.00000985,-0.00000420,-0.00000140,-0.0
 0000258,-0.00000083,0.00000174,-0.00000350,-0.00000095,0.00000312,0.00
 000181,-0.00000387,-0.00000642,0.00000671,-0.00000259,0.00000538,-0.00
 000023,-0.00000054,0.00000167,-0.00000387,-0.00000105,-0.00000021,-0.0
 0000164,-0.00000441,-0.00000153,-0.00000041,0.00000449,-0.00000274,-0.
 00000004,0.00000033,0.00000186,-0.00000164,0.00000197,-0.00000010,-0.0
 0000347,-0.00000043,0.00000689,-0.00000108,-0.00000046,-0.00000253,-0.
 00000070,-0.00000121,0.00000070,-0.00000381,0.00000184,-0.00000147,0.0
 0000741,-0.00000058,0.00000254,-0.00000227,-0.00000354,-0.00000458,0.0
 0000289,0.00000159,0.00000696,-0.00000140,0.00000137,-0.00000478,0.000
 00268,0.00000072,-0.00000419,-0.00000252,0.00000021,0.00000277,0.00000
 001,0.00000163,0.00000004,-0.00000009,0.00000003,-0.00000496,-0.000001
 11,0.00000054,-0.00000147,0.00000207,0.00000266,-0.00000246,-0.0000023
 2,0.00000099,0.00000015,-0.00000045,0.00000133,-0.00000167,-0.00000092
 ,0.00000229,-0.00000147,0.00000090,0.00000144,-0.00000191,-0.00000171,
 0.00000111,-0.00000046,-0.00000065,0.00000079,0.00000044,-0.00000309,-
 0.00000089,0.00000051,-0.00000174,-0.00000100,0.00000065,-0.00000007,-
 0.00000214,0.00000327,-0.00000063,-0.00000186,0.00000084,0.00000013,-0
 .00000156,0.00000225,0.00000238,-0.00000096,0.00000042,0.00000050,-0.0
 0000033,-0.00000052,0.00000116,0.00000096,-0.00000149,0.00000252,0.000
 00095,-0.00000145,0.00000101,0.00000219\\\@


          EVOLUTION
 IN THE BEGINNING GOD MADE MAN.
 HE WORKED THE DIRT WITH HIS HANDS.
 THEN GOD DECIDED TO GIVE MAN SCIENCE,
 MAN SHOULD BE USEFUL (LIKE AN APPLIANCE.)
 BUT SOON MAN'S KNOWLEDGE GREW TOO GREAT,
 TO THE HEADING SCIENCE HE COULDN'T RELATE
 SO GOD SAID "LETS HAVE DIFFERENT FIELDS,
 WE'LL DIVIDE THEM UP, SEE WHAT IT YIELDS."
 ENTER PHYSICS, CHEMISTRY, BIO
 THEY SPRANG UP AROUND THE NILE.
 BUT CHEMISTRY SURPASSED THE REST
 FAR AND AWAY IT WAS THE BEST.
 EXPERIMENT WAS GOD'S DECREE
 EXPERIMENT DID CHEMISTS WITH LOTS OF GLEE
 BUT SOON THEIR TESTS BEGAN TO BOG,
 THEY FOUND THEMSELVES DEEP IN A FOG.
 "GIVE US SOME HELP" THEY CRIED TO GOD.
 GOD LOOKED AROUND, THEN GAVE THE NOD.
 ENTER EINSTEIN, HEISENBERG, BOHR,
 REACTION PATHS WERE CLEAR ONCE MORE.
 WITH THEORISTS GOD SEND DIRECTION
 AND THEN HE STOPPED, HE'D MADE PERFECTION.
          -- THOMAS A. HOLME, 1981
 Job cpu time:       0 days 22 hours 33 minutes 26.0 seconds.
 Elapsed time:       0 days  1 hours  7 minutes 52.2 seconds.
 File lengths (MBytes):  RWF=   2136 Int=      0 D2E=      0 Chk=     55 Scr=      1
 Normal termination of Gaussian 16 at Wed Jun 12 18:38:10 2019.
