 Entering Gaussian System, Link 0=/share/apps/gaussian16/g16/g16
 Initial command:
 /share/apps/gaussian16/g16/l1.exe "/home/amen01//scratch/470/Gau-25393.inp" -scrdir="/home/amen01//scratch/470/"
 Entering Link 1 = /share/apps/gaussian16/g16/l1.exe PID=     25394.
  
 Copyright (c) 1988-2017, Gaussian, Inc.  All Rights Reserved.
  
 This is part of the Gaussian(R) 16 program.  It is based on
 the Gaussian(R) 09 system (copyright 2009, Gaussian, Inc.),
 the Gaussian(R) 03 system (copyright 2003, Gaussian, Inc.),
 the Gaussian(R) 98 system (copyright 1998, Gaussian, Inc.),
 the Gaussian(R) 94 system (copyright 1995, Gaussian, Inc.),
 the Gaussian 92(TM) system (copyright 1992, Gaussian, Inc.),
 the Gaussian 90(TM) system (copyright 1990, Gaussian, Inc.),
 the Gaussian 88(TM) system (copyright 1988, Gaussian, Inc.),
 the Gaussian 86(TM) system (copyright 1986, Carnegie Mellon
 University), and the Gaussian 82(TM) system (copyright 1983,
 Carnegie Mellon University). Gaussian is a federally registered
 trademark of Gaussian, Inc.
  
 This software contains proprietary and confidential information,
 including trade secrets, belonging to Gaussian, Inc.
  
 This software is provided under written license and may be
 used, copied, transmitted, or stored only in accord with that
 written license.
  
 The following legend is applicable only to US Government
 contracts under FAR:
  
                    RESTRICTED RIGHTS LEGEND
  
 Use, reproduction and disclosure by the US Government is
 subject to restrictions as set forth in subparagraphs (a)
 and (c) of the Commercial Computer Software - Restricted
 Rights clause in FAR 52.227-19.
  
 Gaussian, Inc.
 340 Quinnipiac St., Bldg. 40, Wallingford CT 06492
  
  
 ---------------------------------------------------------------
 Warning -- This program may not be used in any manner that
 competes with the business of Gaussian, Inc. or will provide
 assistance to any competitor of Gaussian, Inc.  The licensee
 of this program is prohibited from giving any competitor of
 Gaussian, Inc. access to this program.  By using this program,
 the user acknowledges that Gaussian, Inc. is engaged in the
 business of creating and licensing software in the field of
 computational chemistry and represents and warrants to the
 licensee that it is not a competitor of Gaussian, Inc. and that
 it will not use this program in any manner prohibited above.
 ---------------------------------------------------------------
  

 Cite this work as:
 Gaussian 16, Revision B.01,
 M. J. Frisch, G. W. Trucks, H. B. Schlegel, G. E. Scuseria, 
 M. A. Robb, J. R. Cheeseman, G. Scalmani, V. Barone, 
 G. A. Petersson, H. Nakatsuji, X. Li, M. Caricato, A. V. Marenich, 
 J. Bloino, B. G. Janesko, R. Gomperts, B. Mennucci, H. P. Hratchian, 
 J. V. Ortiz, A. F. Izmaylov, J. L. Sonnenberg, D. Williams-Young, 
 F. Ding, F. Lipparini, F. Egidi, J. Goings, B. Peng, A. Petrone, 
 T. Henderson, D. Ranasinghe, V. G. Zakrzewski, J. Gao, N. Rega, 
 G. Zheng, W. Liang, M. Hada, M. Ehara, K. Toyota, R. Fukuda, 
 J. Hasegawa, M. Ishida, T. Nakajima, Y. Honda, O. Kitao, H. Nakai, 
 T. Vreven, K. Throssell, J. A. Montgomery, Jr., J. E. Peralta, 
 F. Ogliaro, M. J. Bearpark, J. J. Heyd, E. N. Brothers, K. N. Kudin, 
 V. N. Staroverov, T. A. Keith, R. Kobayashi, J. Normand, 
 K. Raghavachari, A. P. Rendell, J. C. Burant, S. S. Iyengar, 
 J. Tomasi, M. Cossi, J. M. Millam, M. Klene, C. Adamo, R. Cammi, 
 J. W. Ochterski, R. L. Martin, K. Morokuma, O. Farkas, 
 J. B. Foresman, and D. J. Fox, Gaussian, Inc., Wallingford CT, 2016.
 
 ******************************************
 Gaussian 16:  ES64L-G16RevB.01 20-Dec-2017
                12-Jun-2019 
 ******************************************
 %nprocshared=20
 Will use up to   20 processors via shared memory.
 %mem=100GB
 %chk=7-memb-hadd-4b.chk
 -------------------------------------------
 # opt freq b3lyp/6-311+g(d,p) int=grid=fine
 -------------------------------------------
 1/18=20,19=15,26=3,38=1/1,3;
 2/9=110,12=2,17=6,18=5,40=1/2;
 3/5=4,6=6,7=111,11=2,25=1,30=1,71=1,74=-5,75=-4/1,2,3;
 4//1;
 5/5=2,38=5/2;
 6/7=2,8=2,9=2,10=2,28=1/1;
 7//1,2,3,16;
 1/18=20,19=15,26=3/3(2);
 2/9=110/2;
 99//99;
 2/9=110/2;
 3/5=4,6=6,7=111,11=2,25=1,30=1,71=1,74=-5,75=-4/1,2,3;
 4/5=5,16=3,69=1/1;
 5/5=2,38=5/2;
 7//1,2,3,16;
 1/18=20,19=15,26=3/3(-5);
 2/9=110/2;
 6/7=2,8=2,9=2,10=2,19=2,28=1/1;
 99/9=1/99;
 --------------
 7-memb-hadd-4b
 --------------
 Symbolic Z-matrix:
 Charge =  0 Multiplicity = 1
 C                    -6.99801   0.00415  -0.03819 
 C                    -5.7708    0.61324   0.10181 
 C                    -4.6181   -0.08693   0.19532 
 C                    -4.51599  -1.46828   0.18764 
 C                    -6.98551  -1.42262  -0.01503 
 C                    -5.76235  -2.14762   0.1029 
 C                    -3.57645   0.77424   0.21575 
 C                    -2.26487   0.35166   0.19479 
 C                    -2.07165  -1.06143   0.23259 
 C                    -3.18174  -1.95782   0.2358 
 C                    -4.0514    2.0781    0.1703 
 C                    -3.1706    3.13549   0.06974 
 C                    -1.77716   2.76799  -0.01119 
 C                    -1.34209   1.4091    0.08423 
 C                    -8.05055   0.9195   -0.22132 
 C                    -7.81332   2.33027  -0.24457 
 C                    -6.50495   2.90119  -0.04948 
 C                    -5.49145   1.97443   0.09953 
 C                    -0.82636   3.76734  -0.21325 
 C                    -3.58588   4.49527   0.02076 
 C                    -2.56248   5.44372  -0.23133 
 C                    -1.21624   5.09186  -0.34981 
 C                    -8.88469   3.18316  -0.46666 
 C                    -8.69855   4.55959  -0.46577 
 C                    -7.44707   5.13116  -0.20726 
 C                    -6.28216   4.32592   0.00601 
 C                    -5.03242   5.01542   0.38048 
 C                    -5.10307   6.43657   0.47426 
 C                    -7.40097   6.52807  -0.1254 
 C                    -6.23682   7.1853    0.22076 
 H                    -6.20552   8.26649   0.3023 
 H                    -4.91377   4.65929   1.45301 
 H                    -8.29358   7.12525  -0.304 
 H                    -9.57044   5.19046  -0.6339 
 H                    -9.88476   2.79155  -0.63906 
 H                    -9.0582    0.53461  -0.36509 
 H                    -7.92012  -1.96978  -0.1141 
 H                    -5.78438  -3.23468   0.09412 
 H                    -3.00057  -3.02994   0.23814 
 H                    -1.06222  -1.46602   0.22646 
 H                    -0.28136   1.17306   0.02799 
 H                     0.23057   3.5226   -0.29172 
 H                    -0.4705    5.86264  -0.52854 
 H                    -2.79131   6.50428  -0.31664 
 

 GradGradGradGradGradGradGradGradGradGradGradGradGradGradGradGradGradGrad
 Berny optimization.
 Initialization pass.
                           ----------------------------
                           !    Initial Parameters    !
                           ! (Angstroms and Degrees)  !
 --------------------------                            --------------------------
 ! Name  Definition              Value          Derivative Info.                !
 --------------------------------------------------------------------------------
 ! R1    R(1,2)                  1.3772         estimate D2E/DX2                !
 ! R2    R(1,5)                  1.427          estimate D2E/DX2                !
 ! R3    R(1,15)                 1.4069         estimate D2E/DX2                !
 ! R4    R(2,3)                  1.3519         estimate D2E/DX2                !
 ! R5    R(2,18)                 1.3896         estimate D2E/DX2                !
 ! R6    R(3,4)                  1.3851         estimate D2E/DX2                !
 ! R7    R(3,7)                  1.3517         estimate D2E/DX2                !
 ! R8    R(4,6)                  1.422          estimate D2E/DX2                !
 ! R9    R(4,10)                 1.422          estimate D2E/DX2                !
 ! R10   R(5,6)                  1.4268         estimate D2E/DX2                !
 ! R11   R(5,37)                 1.0875         estimate D2E/DX2                !
 ! R12   R(6,38)                 1.0873         estimate D2E/DX2                !
 ! R13   R(7,8)                  1.3781         estimate D2E/DX2                !
 ! R14   R(7,11)                 1.3884         estimate D2E/DX2                !
 ! R15   R(8,9)                  1.4267         estimate D2E/DX2                !
 ! R16   R(8,14)                 1.4078         estimate D2E/DX2                !
 ! R17   R(9,10)                 1.4268         estimate D2E/DX2                !
 ! R18   R(9,40)                 1.0875         estimate D2E/DX2                !
 ! R19   R(10,39)                1.0873         estimate D2E/DX2                !
 ! R20   R(11,12)                1.3799         estimate D2E/DX2                !
 ! R21   R(11,18)                1.4455         estimate D2E/DX2                !
 ! R22   R(12,13)                1.4434         estimate D2E/DX2                !
 ! R23   R(12,20)                1.4226         estimate D2E/DX2                !
 ! R24   R(13,14)                1.43           estimate D2E/DX2                !
 ! R25   R(13,19)                1.3941         estimate D2E/DX2                !
 ! R26   R(14,41)                1.0881         estimate D2E/DX2                !
 ! R27   R(15,16)                1.4308         estimate D2E/DX2                !
 ! R28   R(15,36)                1.0882         estimate D2E/DX2                !
 ! R29   R(16,17)                1.4408         estimate D2E/DX2                !
 ! R30   R(16,23)                1.3873         estimate D2E/DX2                !
 ! R31   R(17,18)                1.3814         estimate D2E/DX2                !
 ! R32   R(17,26)                1.4431         estimate D2E/DX2                !
 ! R33   R(19,22)                1.3874         estimate D2E/DX2                !
 ! R34   R(19,42)                1.0877         estimate D2E/DX2                !
 ! R35   R(20,21)                1.4179         estimate D2E/DX2                !
 ! R36   R(20,27)                1.5787         estimate D2E/DX2                !
 ! R37   R(21,22)                1.3965         estimate D2E/DX2                !
 ! R38   R(21,44)                1.0883         estimate D2E/DX2                !
 ! R39   R(22,43)                1.0873         estimate D2E/DX2                !
 ! R40   R(23,24)                1.389          estimate D2E/DX2                !
 ! R41   R(23,35)                1.0878         estimate D2E/DX2                !
 ! R42   R(24,25)                1.3999         estimate D2E/DX2                !
 ! R43   R(24,34)                1.0892         estimate D2E/DX2                !
 ! R44   R(25,26)                1.4321         estimate D2E/DX2                !
 ! R45   R(25,29)                1.4001         estimate D2E/DX2                !
 ! R46   R(26,27)                1.4756         estimate D2E/DX2                !
 ! R47   R(27,28)                1.426          estimate D2E/DX2                !
 ! R48   R(27,32)                1.1363         estimate D2E/DX2                !
 ! R49   R(28,30)                1.3821         estimate D2E/DX2                !
 ! R50   R(29,30)                1.381          estimate D2E/DX2                !
 ! R51   R(29,33)                1.0887         estimate D2E/DX2                !
 ! R52   R(30,31)                1.0847         estimate D2E/DX2                !
 ! A1    A(2,1,5)              115.6417         estimate D2E/DX2                !
 ! A2    A(2,1,15)             113.0885         estimate D2E/DX2                !
 ! A3    A(5,1,15)             131.2382         estimate D2E/DX2                !
 ! A4    A(1,2,3)              122.5314         estimate D2E/DX2                !
 ! A5    A(1,2,18)             127.75           estimate D2E/DX2                !
 ! A6    A(3,2,18)             109.6355         estimate D2E/DX2                !
 ! A7    A(2,3,4)              125.3775         estimate D2E/DX2                !
 ! A8    A(2,3,7)              109.1565         estimate D2E/DX2                !
 ! A9    A(4,3,7)              125.3548         estimate D2E/DX2                !
 ! A10   A(3,4,6)              114.3396         estimate D2E/DX2                !
 ! A11   A(3,4,10)             114.3488         estimate D2E/DX2                !
 ! A12   A(6,4,10)             131.2945         estimate D2E/DX2                !
 ! A13   A(1,5,6)              121.1251         estimate D2E/DX2                !
 ! A14   A(1,5,37)             119.6062         estimate D2E/DX2                !
 ! A15   A(6,5,37)             119.2504         estimate D2E/DX2                !
 ! A16   A(4,6,5)              120.9021         estimate D2E/DX2                !
 ! A17   A(4,6,38)             119.7265         estimate D2E/DX2                !
 ! A18   A(5,6,38)             119.3396         estimate D2E/DX2                !
 ! A19   A(3,7,8)              122.5357         estimate D2E/DX2                !
 ! A20   A(3,7,11)             109.5236         estimate D2E/DX2                !
 ! A21   A(8,7,11)             127.8083         estimate D2E/DX2                !
 ! A22   A(7,8,9)              115.6062         estimate D2E/DX2                !
 ! A23   A(7,8,14)             113.2468         estimate D2E/DX2                !
 ! A24   A(9,8,14)             131.0905         estimate D2E/DX2                !
 ! A25   A(8,9,10)             121.1263         estimate D2E/DX2                !
 ! A26   A(8,9,40)             119.6057         estimate D2E/DX2                !
 ! A27   A(10,9,40)            119.2382         estimate D2E/DX2                !
 ! A28   A(4,10,9)             120.9063         estimate D2E/DX2                !
 ! A29   A(4,10,39)            119.7256         estimate D2E/DX2                !
 ! A30   A(9,10,39)            119.3294         estimate D2E/DX2                !
 ! A31   A(7,11,12)            120.2427         estimate D2E/DX2                !
 ! A32   A(7,11,18)            105.9644         estimate D2E/DX2                !
 ! A33   A(12,11,18)           133.4174         estimate D2E/DX2                !
 ! A34   A(11,12,13)           115.165          estimate D2E/DX2                !
 ! A35   A(11,12,20)           123.273          estimate D2E/DX2                !
 ! A36   A(13,12,20)           121.5507         estimate D2E/DX2                !
 ! A37   A(12,13,14)           122.1356         estimate D2E/DX2                !
 ! A38   A(12,13,19)           118.9492         estimate D2E/DX2                !
 ! A39   A(14,13,19)           118.9047         estimate D2E/DX2                !
 ! A40   A(8,14,13)            121.3041         estimate D2E/DX2                !
 ! A41   A(8,14,41)            118.6913         estimate D2E/DX2                !
 ! A42   A(13,14,41)           119.9512         estimate D2E/DX2                !
 ! A43   A(1,15,16)            121.3061         estimate D2E/DX2                !
 ! A44   A(1,15,36)            118.6753         estimate D2E/DX2                !
 ! A45   A(16,15,36)           120.0092         estimate D2E/DX2                !
 ! A46   A(15,16,17)           122.6216         estimate D2E/DX2                !
 ! A47   A(15,16,23)           118.7343         estimate D2E/DX2                !
 ! A48   A(17,16,23)           118.6439         estimate D2E/DX2                !
 ! A49   A(16,17,18)           114.5201         estimate D2E/DX2                !
 ! A50   A(16,17,26)           122.4533         estimate D2E/DX2                !
 ! A51   A(18,17,26)           123.0195         estimate D2E/DX2                !
 ! A52   A(2,18,11)            105.691          estimate D2E/DX2                !
 ! A53   A(2,18,17)            120.6551         estimate D2E/DX2                !
 ! A54   A(11,18,17)           133.4775         estimate D2E/DX2                !
 ! A55   A(13,19,22)           120.4603         estimate D2E/DX2                !
 ! A56   A(13,19,42)           120.7883         estimate D2E/DX2                !
 ! A57   A(22,19,42)           118.734          estimate D2E/DX2                !
 ! A58   A(12,20,21)           115.7719         estimate D2E/DX2                !
 ! A59   A(12,20,27)           125.0673         estimate D2E/DX2                !
 ! A60   A(21,20,27)           118.7803         estimate D2E/DX2                !
 ! A61   A(20,21,22)           122.8431         estimate D2E/DX2                !
 ! A62   A(20,21,44)           120.9325         estimate D2E/DX2                !
 ! A63   A(22,21,44)           116.2045         estimate D2E/DX2                !
 ! A64   A(19,22,21)           120.2036         estimate D2E/DX2                !
 ! A65   A(19,22,43)           120.0132         estimate D2E/DX2                !
 ! A66   A(21,22,43)           119.7704         estimate D2E/DX2                !
 ! A67   A(16,23,24)           120.3741         estimate D2E/DX2                !
 ! A68   A(16,23,35)           120.9345         estimate D2E/DX2                !
 ! A69   A(24,23,35)           118.6906         estimate D2E/DX2                !
 ! A70   A(23,24,25)           121.6369         estimate D2E/DX2                !
 ! A71   A(23,24,34)           117.8129         estimate D2E/DX2                !
 ! A72   A(25,24,34)           120.5051         estimate D2E/DX2                !
 ! A73   A(24,25,26)           121.6758         estimate D2E/DX2                !
 ! A74   A(24,25,29)           116.5902         estimate D2E/DX2                !
 ! A75   A(26,25,29)           121.7033         estimate D2E/DX2                !
 ! A76   A(17,26,25)           115.0755         estimate D2E/DX2                !
 ! A77   A(17,26,27)           126.9998         estimate D2E/DX2                !
 ! A78   A(25,26,27)           117.6436         estimate D2E/DX2                !
 ! A79   A(20,27,26)           124.3487         estimate D2E/DX2                !
 ! A80   A(20,27,28)           112.8756         estimate D2E/DX2                !
 ! A81   A(20,27,32)            90.9243         estimate D2E/DX2                !
 ! A82   A(26,27,28)           116.1294         estimate D2E/DX2                !
 ! A83   A(26,27,32)           100.4579         estimate D2E/DX2                !
 ! A84   A(28,27,32)           104.7998         estimate D2E/DX2                !
 ! A85   A(27,28,30)           124.6434         estimate D2E/DX2                !
 ! A86   A(25,29,30)           121.1491         estimate D2E/DX2                !
 ! A87   A(25,29,33)           120.7105         estimate D2E/DX2                !
 ! A88   A(30,29,33)           118.1143         estimate D2E/DX2                !
 ! A89   A(28,30,29)           118.664          estimate D2E/DX2                !
 ! A90   A(28,30,31)           120.1662         estimate D2E/DX2                !
 ! A91   A(29,30,31)           121.168          estimate D2E/DX2                !
 ! D1    D(5,1,2,3)              2.8595         estimate D2E/DX2                !
 ! D2    D(5,1,2,18)           179.1922         estimate D2E/DX2                !
 ! D3    D(15,1,2,3)          -175.3275         estimate D2E/DX2                !
 ! D4    D(15,1,2,18)            1.0052         estimate D2E/DX2                !
 ! D5    D(2,1,5,6)             -1.9472         estimate D2E/DX2                !
 ! D6    D(2,1,5,37)           179.6219         estimate D2E/DX2                !
 ! D7    D(15,1,5,6)           175.8347         estimate D2E/DX2                !
 ! D8    D(15,1,5,37)           -2.5961         estimate D2E/DX2                !
 ! D9    D(2,1,15,16)           -0.2968         estimate D2E/DX2                !
 ! D10   D(2,1,15,36)          178.588          estimate D2E/DX2                !
 ! D11   D(5,1,15,16)         -178.1231         estimate D2E/DX2                !
 ! D12   D(5,1,15,36)            0.7617         estimate D2E/DX2                !
 ! D13   D(1,2,3,4)             -1.1825         estimate D2E/DX2                !
 ! D14   D(1,2,3,7)            175.1434         estimate D2E/DX2                !
 ! D15   D(18,2,3,4)          -178.1044         estimate D2E/DX2                !
 ! D16   D(18,2,3,7)            -1.7785         estimate D2E/DX2                !
 ! D17   D(1,2,18,11)         -175.4812         estimate D2E/DX2                !
 ! D18   D(1,2,18,17)            0.313          estimate D2E/DX2                !
 ! D19   D(3,2,18,11)            1.2365         estimate D2E/DX2                !
 ! D20   D(3,2,18,17)          177.0306         estimate D2E/DX2                !
 ! D21   D(2,3,4,6)             -1.4867         estimate D2E/DX2                !
 ! D22   D(2,3,4,10)           177.1814         estimate D2E/DX2                !
 ! D23   D(7,3,4,6)           -177.2303         estimate D2E/DX2                !
 ! D24   D(7,3,4,10)             1.4378         estimate D2E/DX2                !
 ! D25   D(2,3,7,8)           -174.5156         estimate D2E/DX2                !
 ! D26   D(2,3,7,11)             1.6            estimate D2E/DX2                !
 ! D27   D(4,3,7,8)              1.8114         estimate D2E/DX2                !
 ! D28   D(4,3,7,11)           177.927          estimate D2E/DX2                !
 ! D29   D(3,4,6,5)              2.286          estimate D2E/DX2                !
 ! D30   D(3,4,6,38)          -179.7785         estimate D2E/DX2                !
 ! D31   D(10,4,6,5)          -176.0989         estimate D2E/DX2                !
 ! D32   D(10,4,6,38)            1.8366         estimate D2E/DX2                !
 ! D33   D(3,4,10,9)            -2.5403         estimate D2E/DX2                !
 ! D34   D(3,4,10,39)          179.7389         estimate D2E/DX2                !
 ! D35   D(6,4,10,9)           175.8444         estimate D2E/DX2                !
 ! D36   D(6,4,10,39)           -1.8763         estimate D2E/DX2                !
 ! D37   D(1,5,6,4)             -0.6311         estimate D2E/DX2                !
 ! D38   D(1,5,6,38)          -178.5745         estimate D2E/DX2                !
 ! D39   D(37,5,6,4)           177.8053         estimate D2E/DX2                !
 ! D40   D(37,5,6,38)           -0.1381         estimate D2E/DX2                !
 ! D41   D(3,7,8,9)             -3.6852         estimate D2E/DX2                !
 ! D42   D(3,7,8,14)           173.8884         estimate D2E/DX2                !
 ! D43   D(11,7,8,9)          -179.0498         estimate D2E/DX2                !
 ! D44   D(11,7,8,14)           -1.4762         estimate D2E/DX2                !
 ! D45   D(3,7,11,12)         -174.6705         estimate D2E/DX2                !
 ! D46   D(3,7,11,18)           -0.7981         estimate D2E/DX2                !
 ! D47   D(8,7,11,12)            1.1841         estimate D2E/DX2                !
 ! D48   D(8,7,11,18)          175.0565         estimate D2E/DX2                !
 ! D49   D(7,8,9,10)             2.461          estimate D2E/DX2                !
 ! D50   D(7,8,9,40)          -179.5399         estimate D2E/DX2                !
 ! D51   D(14,8,9,10)         -174.5804         estimate D2E/DX2                !
 ! D52   D(14,8,9,40)            3.4187         estimate D2E/DX2                !
 ! D53   D(7,8,14,13)           -0.7563         estimate D2E/DX2                !
 ! D54   D(7,8,14,41)         -178.0963         estimate D2E/DX2                !
 ! D55   D(9,8,14,13)          176.34           estimate D2E/DX2                !
 ! D56   D(9,8,14,41)           -1.0            estimate D2E/DX2                !
 ! D57   D(8,9,10,4)             0.6437         estimate D2E/DX2                !
 ! D58   D(8,9,10,39)          178.3733         estimate D2E/DX2                !
 ! D59   D(40,9,10,4)         -177.3627         estimate D2E/DX2                !
 ! D60   D(40,9,10,39)           0.367          estimate D2E/DX2                !
 ! D61   D(7,11,12,13)           1.3282         estimate D2E/DX2                !
 ! D62   D(7,11,12,20)        -179.8825         estimate D2E/DX2                !
 ! D63   D(18,11,12,13)       -170.5495         estimate D2E/DX2                !
 ! D64   D(18,11,12,20)          8.2399         estimate D2E/DX2                !
 ! D65   D(7,11,18,2)           -0.2631         estimate D2E/DX2                !
 ! D66   D(7,11,18,17)        -175.2752         estimate D2E/DX2                !
 ! D67   D(12,11,18,2)         172.4433         estimate D2E/DX2                !
 ! D68   D(12,11,18,17)         -2.5689         estimate D2E/DX2                !
 ! D69   D(11,12,13,14)         -3.447          estimate D2E/DX2                !
 ! D70   D(11,12,13,19)        175.3617         estimate D2E/DX2                !
 ! D71   D(20,12,13,14)        177.7407         estimate D2E/DX2                !
 ! D72   D(20,12,13,19)         -3.4506         estimate D2E/DX2                !
 ! D73   D(11,12,20,21)       -173.2817         estimate D2E/DX2                !
 ! D74   D(11,12,20,27)         13.9172         estimate D2E/DX2                !
 ! D75   D(13,12,20,21)          5.4325         estimate D2E/DX2                !
 ! D76   D(13,12,20,27)       -167.3686         estimate D2E/DX2                !
 ! D77   D(12,13,14,8)           3.2722         estimate D2E/DX2                !
 ! D78   D(12,13,14,41)       -179.4209         estimate D2E/DX2                !
 ! D79   D(19,13,14,8)        -175.537          estimate D2E/DX2                !
 ! D80   D(19,13,14,41)          1.7699         estimate D2E/DX2                !
 ! D81   D(12,13,19,22)         -0.7443         estimate D2E/DX2                !
 ! D82   D(12,13,19,42)       -179.206          estimate D2E/DX2                !
 ! D83   D(14,13,19,22)        178.1033         estimate D2E/DX2                !
 ! D84   D(14,13,19,42)         -0.3583         estimate D2E/DX2                !
 ! D85   D(1,15,16,17)          -1.6652         estimate D2E/DX2                !
 ! D86   D(1,15,16,23)         178.1897         estimate D2E/DX2                !
 ! D87   D(36,15,16,17)        179.4646         estimate D2E/DX2                !
 ! D88   D(36,15,16,23)         -0.6804         estimate D2E/DX2                !
 ! D89   D(15,16,17,18)          2.8531         estimate D2E/DX2                !
 ! D90   D(15,16,17,26)       -176.2057         estimate D2E/DX2                !
 ! D91   D(23,16,17,18)       -177.0019         estimate D2E/DX2                !
 ! D92   D(23,16,17,26)          3.9392         estimate D2E/DX2                !
 ! D93   D(15,16,23,24)        178.5246         estimate D2E/DX2                !
 ! D94   D(15,16,23,35)         -1.141          estimate D2E/DX2                !
 ! D95   D(17,16,23,24)         -1.6146         estimate D2E/DX2                !
 ! D96   D(17,16,23,35)        178.7198         estimate D2E/DX2                !
 ! D97   D(16,17,18,2)          -2.1741         estimate D2E/DX2                !
 ! D98   D(16,17,18,11)        172.242          estimate D2E/DX2                !
 ! D99   D(26,17,18,2)         176.8787         estimate D2E/DX2                !
 ! D100  D(26,17,18,11)         -8.7052         estimate D2E/DX2                !
 ! D101  D(16,17,26,25)         -2.6949         estimate D2E/DX2                !
 ! D102  D(16,17,26,27)        171.0255         estimate D2E/DX2                !
 ! D103  D(18,17,26,25)        178.3263         estimate D2E/DX2                !
 ! D104  D(18,17,26,27)         -7.9533         estimate D2E/DX2                !
 ! D105  D(13,19,22,21)          2.6262         estimate D2E/DX2                !
 ! D106  D(13,19,22,43)       -178.6819         estimate D2E/DX2                !
 ! D107  D(42,19,22,21)       -178.8809         estimate D2E/DX2                !
 ! D108  D(42,19,22,43)         -0.189          estimate D2E/DX2                !
 ! D109  D(12,20,21,22)         -3.5756         estimate D2E/DX2                !
 ! D110  D(12,20,21,44)        178.1096         estimate D2E/DX2                !
 ! D111  D(27,20,21,22)        169.7041         estimate D2E/DX2                !
 ! D112  D(27,20,21,44)         -8.6107         estimate D2E/DX2                !
 ! D113  D(12,20,27,26)        -40.3718         estimate D2E/DX2                !
 ! D114  D(12,20,27,28)        169.483          estimate D2E/DX2                !
 ! D115  D(12,20,27,32)         62.9785         estimate D2E/DX2                !
 ! D116  D(21,20,27,26)        147.0258         estimate D2E/DX2                !
 ! D117  D(21,20,27,28)         -3.1194         estimate D2E/DX2                !
 ! D118  D(21,20,27,32)       -109.6239         estimate D2E/DX2                !
 ! D119  D(20,21,22,19)         -0.3742         estimate D2E/DX2                !
 ! D120  D(20,21,22,43)       -179.0693         estimate D2E/DX2                !
 ! D121  D(44,21,22,19)        178.0147         estimate D2E/DX2                !
 ! D122  D(44,21,22,43)         -0.6804         estimate D2E/DX2                !
 ! D123  D(16,23,24,25)         -1.7881         estimate D2E/DX2                !
 ! D124  D(16,23,24,34)       -179.3545         estimate D2E/DX2                !
 ! D125  D(35,23,24,25)        177.8849         estimate D2E/DX2                !
 ! D126  D(35,23,24,34)          0.3184         estimate D2E/DX2                !
 ! D127  D(23,24,25,26)          3.0421         estimate D2E/DX2                !
 ! D128  D(23,24,25,29)       -174.9738         estimate D2E/DX2                !
 ! D129  D(34,24,25,26)       -179.4561         estimate D2E/DX2                !
 ! D130  D(34,24,25,29)          2.528          estimate D2E/DX2                !
 ! D131  D(24,25,26,17)         -0.7566         estimate D2E/DX2                !
 ! D132  D(24,25,26,27)       -175.0974         estimate D2E/DX2                !
 ! D133  D(29,25,26,17)        177.1579         estimate D2E/DX2                !
 ! D134  D(29,25,26,27)          2.8171         estimate D2E/DX2                !
 ! D135  D(24,25,29,30)        175.2753         estimate D2E/DX2                !
 ! D136  D(24,25,29,33)         -2.8306         estimate D2E/DX2                !
 ! D137  D(26,25,29,30)         -2.74           estimate D2E/DX2                !
 ! D138  D(26,25,29,33)        179.1541         estimate D2E/DX2                !
 ! D139  D(17,26,27,20)         36.1918         estimate D2E/DX2                !
 ! D140  D(17,26,27,28)       -174.5295         estimate D2E/DX2                !
 ! D141  D(17,26,27,32)        -62.204          estimate D2E/DX2                !
 ! D142  D(25,26,27,20)       -150.2295         estimate D2E/DX2                !
 ! D143  D(25,26,27,28)         -0.9507         estimate D2E/DX2                !
 ! D144  D(25,26,27,32)        111.3748         estimate D2E/DX2                !
 ! D145  D(20,27,28,30)        151.6865         estimate D2E/DX2                !
 ! D146  D(26,27,28,30)         -1.0695         estimate D2E/DX2                !
 ! D147  D(32,27,28,30)       -110.8681         estimate D2E/DX2                !
 ! D148  D(27,28,30,29)          1.2645         estimate D2E/DX2                !
 ! D149  D(27,28,30,31)       -179.219          estimate D2E/DX2                !
 ! D150  D(25,29,30,28)          0.6643         estimate D2E/DX2                !
 ! D151  D(25,29,30,31)       -178.8472         estimate D2E/DX2                !
 ! D152  D(33,29,30,28)        178.818          estimate D2E/DX2                !
 ! D153  D(33,29,30,31)         -0.6935         estimate D2E/DX2                !
 --------------------------------------------------------------------------------
 Trust Radius=3.00D-01 FncErr=1.00D-07 GrdErr=1.00D-06 EigMax=2.50D+02 EigMin=1.00D-04
 Number of steps in this run=    264 maximum allowed number of steps=    264.
 GradGradGradGradGradGradGradGradGradGradGradGradGradGradGradGradGradGrad

                          Input orientation:                          
 ---------------------------------------------------------------------
 Center     Atomic      Atomic             Coordinates (Angstroms)
 Number     Number       Type             X           Y           Z
 ---------------------------------------------------------------------
      1          6           0       -6.998010    0.004150   -0.038190
      2          6           0       -5.770800    0.613240    0.101810
      3          6           0       -4.618100   -0.086930    0.195320
      4          6           0       -4.515990   -1.468280    0.187640
      5          6           0       -6.985510   -1.422620   -0.015030
      6          6           0       -5.762350   -2.147620    0.102900
      7          6           0       -3.576450    0.774240    0.215750
      8          6           0       -2.264870    0.351660    0.194790
      9          6           0       -2.071650   -1.061430    0.232590
     10          6           0       -3.181740   -1.957820    0.235800
     11          6           0       -4.051400    2.078100    0.170300
     12          6           0       -3.170600    3.135490    0.069740
     13          6           0       -1.777160    2.767990   -0.011190
     14          6           0       -1.342090    1.409100    0.084230
     15          6           0       -8.050550    0.919500   -0.221320
     16          6           0       -7.813320    2.330270   -0.244570
     17          6           0       -6.504950    2.901190   -0.049480
     18          6           0       -5.491450    1.974430    0.099530
     19          6           0       -0.826360    3.767340   -0.213250
     20          6           0       -3.585880    4.495270    0.020760
     21          6           0       -2.562480    5.443720   -0.231330
     22          6           0       -1.216240    5.091860   -0.349810
     23          6           0       -8.884690    3.183160   -0.466660
     24          6           0       -8.698550    4.559590   -0.465770
     25          6           0       -7.447070    5.131160   -0.207260
     26          6           0       -6.282160    4.325920    0.006010
     27          6           0       -5.032420    5.015420    0.380480
     28          6           0       -5.103070    6.436570    0.474260
     29          6           0       -7.400970    6.528070   -0.125400
     30          6           0       -6.236820    7.185300    0.220760
     31          1           0       -6.205520    8.266490    0.302300
     32          1           0       -4.913770    4.659290    1.453010
     33          1           0       -8.293580    7.125250   -0.304000
     34          1           0       -9.570440    5.190460   -0.633900
     35          1           0       -9.884760    2.791550   -0.639060
     36          1           0       -9.058200    0.534610   -0.365090
     37          1           0       -7.920120   -1.969780   -0.114100
     38          1           0       -5.784380   -3.234680    0.094120
     39          1           0       -3.000570   -3.029940    0.238140
     40          1           0       -1.062220   -1.466020    0.226460
     41          1           0       -0.281360    1.173060    0.027990
     42          1           0        0.230570    3.522600   -0.291720
     43          1           0       -0.470500    5.862640   -0.528540
     44          1           0       -2.791310    6.504280   -0.316640
 ---------------------------------------------------------------------
                    Distance matrix (angstroms):
                    1          2          3          4          5
     1  C    0.000000
     2  C    1.377184   0.000000
     3  C    2.393072   1.351924   0.000000
     4  C    2.894732   2.432003   1.385140   0.000000
     5  C    1.427013   2.373583   2.726343   2.478243   0.000000
     6  C    2.485332   2.760873   2.358875   1.422005   1.426763
     7  C    3.516333   2.203197   1.351690   2.431547   4.062160
     8  C    4.751595   3.516904   2.393753   2.894784   5.047429
     9  C    5.047554   4.062676   2.726802   2.478376   4.933335
    10  C    4.299804   3.651237   2.359025   1.422038   3.849418
    11  C    3.609328   2.259832   2.238109   3.576724   4.571476
    12  C    4.946312   3.622680   3.534829   4.797778   5.944501
    13  C    5.907353   4.539260   4.032884   5.048436   6.684919
    14  C    5.829091   4.499686   3.603150   4.285283   6.314798
    15  C    1.406856   2.322815   3.601139   4.285074   2.581161
    16  C    2.473491   2.690736   4.030607   5.048581   3.849953
    17  C    2.938720   2.407609   3.542456   4.806709   4.350570
    18  C    2.484088   1.389561   2.240786   3.579321   3.712854
    19  C    7.230595   5.873253   5.422142   6.417616   8.056681
    20  C    5.640591   4.455401   4.700267   6.037953   6.824968
    21  C    7.021407   5.808428   5.915716   7.194962   8.170472
    22  C    7.707838   6.403594   6.220103   7.362923   8.708330
    23  C    3.721458   4.077249   5.416225   6.414791   5.002406
    24  C    4.881260   4.946468   6.219104   7.365865   6.238951
    25  C    5.149415   4.828769   5.949252   7.231859   6.572825
    26  C    4.380878   3.748954   4.719977   6.060124   5.791447
    27  C    5.399227   4.472365   5.122492   6.507093   6.739388
    28  C    6.725283   5.873309   6.547447   7.931801   8.096286
    29  C    6.536935   6.139568   7.183693   8.506628   7.962302
    30  C    7.226021   6.589636   7.450250   8.823083   8.643635
    31  H    8.307240   7.668208   8.503586   9.880962   9.725633
    32  H    5.313950   4.350950   4.918924   6.269490   6.590666
    33  H    7.242874   6.995382   8.110118   9.400035   8.652204
    34  H    5.819801   5.994120   7.284513   8.400072   7.127250
    35  H    4.057582   4.713660   6.059665   6.903135   5.153086
    36  H    2.152356   3.321322   4.518281   4.994872   2.872166
    37  H    2.180011   3.367222   3.813686   3.454077   1.087518
    38  H    3.461275   3.847952   3.358390   2.176632   2.176738
    39  H    5.026091   4.578812   3.358503   2.176656   4.304337
    40  H    6.120869   5.148746   3.814072   3.453989   5.928370
    41  H    6.817926   5.518406   4.519169   4.993421   7.189230
    42  H    8.043391   6.680994   6.064282   6.904238   8.752346
    43  H    8.784688   7.486436   7.288617   8.403647   9.786933
    44  H    7.747616   6.614893   6.858813   8.172547   8.973184
                    6          7          8          9         10
     6  C    0.000000
     7  C    3.650775   0.000000
     8  C    4.299676   1.378135   0.000000
     9  C    3.849402   2.373687   1.426740   0.000000
    10  C    2.590991   2.760498   2.485162   1.426823   0.000000
    11  C    4.559452   1.388414   2.484529   3.712134   4.129074
    12  C    5.884685   2.400320   2.930135   4.341468   5.096029
    13  C    6.329137   2.695178   2.473649   3.848456   4.936307
    14  C    5.673562   2.326523   1.407809   2.580269   3.839718
    15  C    3.840339   4.497744   5.828352   6.314853   5.673909
    16  C    4.937480   4.536980   5.907049   6.685663   6.330087
    17  C    5.105405   3.629101   4.953590   5.952820   5.893648
    18  C    4.130944   2.263004   3.612932   4.574842   4.562447
    19  C    7.710428   4.087259   3.728629   5.006650   6.207006
    20  C    6.990834   3.726147   4.352569   5.763218   6.469308
    21  C    8.244957   4.799173   5.118518   6.540116   7.442076
    22  C    8.560498   4.953008   4.885254   6.239703   7.341942
    23  C    6.204081   5.869071   7.230278   8.057482   7.710173
    24  C    7.343795   6.405408   7.715909   8.717762   8.567615
    25  C    7.477641   5.843234   7.061194   8.211990   8.285106
    26  C    6.495099   4.469820   5.654113   6.841292   7.010763
    27  C    7.205483   4.487159   5.426276   6.761371   7.216095
    28  C    8.617475   5.870211   6.720090   8.091225   8.614764
    29  C    8.832032   6.917362   8.039284   9.280642   9.483812
    30  C    9.345716   6.941130   7.904157   9.238903   9.640041
    31  H   10.425442   7.940611   8.842218  10.203129  10.662278
    32  H    6.991202   4.291020   5.211091   6.503361   6.947494
    33  H    9.620749   7.928227   9.081611  10.296702  10.436688
    34  H    8.300111   7.493519   8.801822   9.801469   9.626514
    35  H    6.476123   6.677950   8.044321   8.754994   8.261499
    36  H    4.275044   5.517643   6.818817   7.191415   6.411401
    37  H    2.175934   5.148390   6.120976   5.928735   4.751296
    38  H    1.087319   4.578339   5.025825   4.304248   2.902444
    39  H    2.902448   3.847587   3.460976   2.176684   1.087322
    40  H    4.750902   3.367526   2.179755   1.087511   2.175849
    41  H    6.408883   3.324444   2.153330   2.870530   4.272915
    42  H    8.259674   4.722754   4.064329   5.156399   6.477433
    43  H    9.621157   6.007721   5.840708   7.147429   8.312318
    44  H    9.157427   5.808033   6.196243   7.619681   8.489097
                   11         12         13         14         15
    11  C    0.000000
    12  C    1.379853   0.000000
    13  C    2.383496   1.443358   0.000000
    14  C    2.792012   2.514773   1.430025   0.000000
    15  C    4.181976   5.367424   6.543431   6.733239   0.000000
    16  C    3.793119   4.722501   6.056508   6.544729   1.430766
    17  C    2.597246   3.344697   4.729821   5.375810   2.519028
    18  C    1.445510   2.595244   3.799730   4.187723   2.786542
    19  C    3.660809   2.444336   1.394112   2.432235   7.765255
    20  C    2.466127   1.422624   2.501197   3.816159   5.725208
    21  C    3.702106   2.405905   2.797270   4.226948   7.112495
    22  C    4.170299   2.796950   2.414470   3.710384   8.008301
    23  C    4.998757   5.739410   7.134199   7.767985   2.424900
    24  C    5.306447   5.733504   7.163945   8.021570   3.705390
    25  C    4.581954   4.727327   6.145803   7.156080   4.254699
    26  C    3.171116   3.332115   4.766809   5.737443   3.844812
    27  C    3.103937   2.664033   3.975055   5.168350   5.123264
    28  C    4.493847   3.846454   4.975522   6.290672   6.293610
    29  C    5.577570   5.426206   6.765980   7.934597   5.646876
    30  C    5.555367   5.081877   6.281321   7.572418   6.537989
    31  H    6.553917   5.965902   7.066976   8.409774   7.593193
    32  H    3.008583   2.697044   3.944518   5.019382   5.160310
    33  H    6.610202   6.504060   7.844436   9.008235   6.211057
    34  H    6.386965   6.758399   8.184824   9.084060   4.552075
    35  H    5.932298   6.760225   8.131910   8.683981   2.653941
    36  H    5.266598   6.451162   7.624092   7.778494   1.088195
    37  H    5.606533   6.975351   7.758416   7.397746   2.894209
    38  H    5.588797   6.885601   7.218099   6.426409   4.742598
    39  H    5.215450   6.170073   5.930842   4.741236   6.427401
    40  H    4.636716   5.063963   4.300518   2.892209   7.397835
    41  H    3.879762   3.492933   2.186951   1.088130   7.777324
    42  H    4.542610   3.442160   2.163126   2.661105   8.680901
    43  H    5.256802   3.884048   3.398804   4.579211   9.054622
    44  H    4.627743   3.412022   3.883512   5.312419   7.671927
                   16         17         18         19         20
    16  C    0.000000
    17  C    1.440778   0.000000
    18  C    2.374049   1.381402   0.000000
    19  C    7.133285   5.746601   5.007537   0.000000
    20  C    4.756982   3.326709   3.161018   2.863493   0.000000
    21  C    6.104512   4.694742   4.552396   2.413439   1.417905
    22  C    7.152546   5.732337   5.310150   1.387447   2.471525
    23  C    1.387292   2.432429   3.646324   8.083450   5.480566
    24  C    2.408823   2.781271   4.157897   7.915984   5.136170
    25  C    2.824981   2.425954   3.726059   6.759722   3.919839
    26  C    2.527817   1.443111   2.482634   5.488701   2.701633
    27  C    3.915881   2.612121   3.088246   4.427320   1.578744
    28  C    4.972310   3.839073   4.494658   5.087996   2.505229
    29  C    4.219687   3.736693   4.942924   7.131258   4.325338
    30  C    5.125739   4.300991   5.265305   6.414351   3.782029
    31  H    6.174366   5.385151   6.335695   7.031608   4.600422
    32  H    4.088215   2.807178   3.061714   4.503212   1.959983
    33  H    4.819338   4.594199   5.877560   8.187989   5.402287
    34  H    3.379310   3.870340   5.245849   8.869112   6.060266
    35  H    2.158533   3.432600   4.529280   9.120751   6.558499
    36  H    2.188298   3.495625   3.874359   8.845156   6.766239
    37  H    4.303354   5.072793   4.636903   9.123914   7.784645
    38  H    5.932957   6.179704   5.217343   8.585145   8.036847
    39  H    7.219932   6.895049   5.591727   7.150801   7.551068
    40  H    7.759577   6.983694   5.609892   5.257093   6.476739
    41  H    7.625211   6.459528   5.271845   2.661862   4.685828
    42  H    8.131915   6.768461   5.940658   1.087730   3.950825
    43  H    8.153238   6.739011   6.381425   2.148564   3.446306
    44  H    6.530554   5.181192   5.289943   3.370839   2.186619
                   21         22         23         24         25
    21  C    0.000000
    22  C    1.396497   0.000000
    23  C    6.718322   7.903285   0.000000
    24  C    6.203870   7.502114   1.388959   0.000000
    25  C    4.894639   6.232584   2.434901   1.399901   0.000000
    26  C    3.891250   5.135837   2.881402   2.473079   1.432100
    27  C    2.580379   3.886180   4.349116   3.790043   2.487844
    28  C    2.817482   4.194614   5.076481   4.163434   2.768194
    29  C    4.959639   6.353262   3.675093   2.382117   1.400066
    30  C    4.091242   5.469393   4.847771   3.664122   2.422271
    31  H    4.639454   5.949491   5.797370   4.532796   3.410483
    32  H    2.996814   4.136303   4.651053   4.244551   3.065415
    33  H    5.973134   7.363798   3.989479   2.602457   2.168486
    34  H    7.024080   8.359610   2.127787   1.089246   2.166619
    35  H    7.798464   8.973201   1.087759   2.136139   3.406253
    36  H    8.143195   9.070011   2.656170   4.042270   4.873287
    37  H    9.147570   9.739832   5.254282   6.585006   7.117289
    38  H    9.262893   9.507694   7.149480   8.340054   8.534790
    39  H    8.497955   8.336255   8.586165   9.516482   9.304477
    40  H    7.085539   6.584952   9.126134   9.751958   9.191148
    41  H    4.848638   4.046446   8.848868   9.086334   8.189585
    42  H    3.390498   2.135231   9.123255   8.990819   7.844792
    43  H    2.154114   1.087278   8.830744   8.330827   7.022166
    44  H    1.088315   2.115863   6.941298   6.220896   4.855257
                   26         27         28         29         30
    26  C    0.000000
    27  C    1.475631   0.000000
    28  C    2.462591   1.425992   0.000000
    29  C    2.473554   2.855530   2.376617   0.000000
    30  C    2.867791   2.486859   1.382117   1.380950   0.000000
    31  H    3.952436   3.457128   2.143262   2.152703   1.084712
    32  H    2.019266   1.136322   2.037771   3.488536   3.106385
    33  H    3.460949   3.943990   3.355491   1.088703   2.123497
    34  H    3.459725   4.653303   4.768459   2.598918   3.977795
    35  H    3.968518   5.434175   6.114754   4.516043   5.775101
    36  H    4.713613   6.069632   7.154068   6.222976   7.248109
    37  H    6.506395   7.574724   8.885306   8.513701   9.314565
    38  H    7.577481   8.289246   9.702668   9.898123  10.430567
    39  H    8.058002   8.299186   9.700055  10.528591  10.715631
    40  H    7.800189   7.602320   8.879234  10.208283  10.080767
    41  H    6.778688   6.120502   7.152103   8.910023   8.464732
    42  H    6.568837   5.511754   6.125819   8.203713   7.450177
    43  H    6.035118   4.728130   4.774485   6.974004   5.963332
    44  H    4.127395   2.779434   2.444247   4.613687   3.553045
                   31         32         33         34         35
    31  H    0.000000
    32  H    4.000580   0.000000
    33  H    2.455611   4.537748   0.000000
    34  H    4.654151   5.130488   2.341499   0.000000
    35  H    6.663177   5.707535   4.628723   2.419420   0.000000
    36  H    8.268323   6.123298   6.635127   4.691651   2.419099
    37  H   10.387226   7.445706   9.104675   7.366328   5.177418
    38  H   11.510761   8.057252  10.666899   9.265379   7.325716
    39  H   11.742451   8.016265  11.464631  10.559291   9.058217
    40  H   11.008226   7.338820  11.242058  10.836916   9.834289
    41  H    9.245954   5.970235   9.986714  10.142219   9.761647
    42  H    8.017519   5.549809   9.254208   9.947796  10.147659
    43  H    6.273695   5.011710   7.927495   9.125340   9.903136
    44  H    3.891696   3.322723   5.537214   6.912552   8.012824
                   36         37         38         39         40
    36  H    0.000000
    37  H    2.762280   0.000000
    38  H    5.013613   2.490926   0.000000
    39  H    7.054416   5.044798   2.795042   0.000000
    40  H    8.263664   6.884806   5.044251   2.490619   0.000000
    41  H    8.808805   8.261252   7.050941   5.010337   2.759325
    42  H    9.757803   9.830134   9.054796   7.325080   5.179396
    43  H   10.107582  10.817366  10.553969   9.277232   7.391171
    44  H    8.655242   9.907341  10.196790   9.552640   8.173762
                   41         42         43         44
    41  H    0.000000
    42  H    2.425825   0.000000
    43  H    4.726273   2.454255   0.000000
    44  H    5.902586   4.245326   2.417181   0.000000
 Stoichiometry    C30H14
 Framework group  C1[X(C30H14)]
 Deg. of freedom   126
 Full point group                 C1      NOp   1
 Largest Abelian subgroup         C1      NOp   1
 Largest concise Abelian subgroup C1      NOp   1
                         Standard orientation:                         
 ---------------------------------------------------------------------
 Center     Atomic      Atomic             Coordinates (Angstroms)
 Number     Number       Type             X           Y           Z
 ---------------------------------------------------------------------
      1          6           0        1.562984   -2.785970   -0.025265
      2          6           0        1.410084   -1.422032    0.088447
      3          6           0        2.461853   -0.573859    0.134088
      4          6           0        3.795256   -0.947164    0.098119
      5          6           0        2.909568   -3.258269   -0.028517
      6          6           0        4.009244   -2.351729    0.038934
      7          6           0        2.005711    0.698532    0.138543
      8          6           0        2.847156    1.787812    0.070017
      9          6           0        4.242543    1.490417    0.076151
     10          6           0        4.709254    0.142239    0.096760
     11          6           0        0.617324    0.693750    0.131336
     12          6           0       -0.081193    1.878826    0.023345
     13          6           0        0.734559    3.062441   -0.106597
     14          6           0        2.162549    3.012155   -0.049243
     15          6           0        0.340356   -3.468890   -0.159590
     16          6           0       -0.906525   -2.767208   -0.164311
     17          6           0       -0.994503   -1.338685    0.001292
     18          6           0        0.224683   -0.697114    0.102498
     19          6           0        0.111564    4.291352   -0.319210
     20          6           0       -1.502035    1.949064    0.011817
     21          6           0       -2.053928    3.227832   -0.253931
     22          6           0       -1.269916    4.371536   -0.419679
     23          6           0       -2.077870   -3.489920   -0.338139
     24          6           0       -3.309114   -2.847399   -0.317808
     25          6           0       -3.415248   -1.470728   -0.087083
     26          6           0       -2.257243   -0.644075    0.075955
     27          6           0       -2.471680    0.773611    0.424771
     28          6           0       -3.829479    1.191943    0.546555
     29          6           0       -4.711001   -0.951116    0.018797
     30          6           0       -4.924885    0.374496    0.341334
     31          1           0       -5.928767    0.772957    0.441587
     32          1           0       -2.067094    0.788255    1.486526
     33          1           0       -5.580086   -1.591613   -0.121665
     34          1           0       -4.202569   -3.456736   -0.447823
     35          1           0       -2.053373   -4.567143   -0.487170
     36          1           0        0.356750   -4.550317   -0.279656
     37          1           0        3.104547   -4.325127   -0.109090
     38          1           0        5.023787   -2.741837    0.011006
     39          1           0        5.778939   -0.051478    0.074040
     40          1           0        4.965047    2.302029    0.031960
     41          1           0        2.742566    3.928126   -0.141998
     42          1           0        0.697863    5.200297   -0.434225
     43          1           0       -1.746843    5.330524   -0.606911
     44          1           0       -3.131179    3.370950   -0.312891
 ---------------------------------------------------------------------
 Rotational constants (GHZ):           0.2460048           0.1787210           0.1043602
 Standard basis: 6-311+G(d,p) (5D, 7F)
 There are   774 symmetry adapted cartesian basis functions of A   symmetry.
 There are   744 symmetry adapted basis functions of A   symmetry.
   744 basis functions,  1192 primitive gaussians,   774 cartesian basis functions
    97 alpha electrons       97 beta electrons
       nuclear repulsion energy      2597.3209081748 Hartrees.
 NAtoms=   44 NActive=   44 NUniq=   44 SFac= 1.00D+00 NAtFMM=   60 NAOKFM=F Big=F
 Integral buffers will be    131072 words long.
 Raffenetti 2 integral format.
 Two-electron integral symmetry is turned on.
 One-electron integrals computed using PRISM.
 NBasis=   744 RedAO= T EigKep=  1.22D-06  NBF=   744
 NBsUse=   720 1.00D-06 EigRej=  9.65D-07 NBFU=   720
 ExpMin= 4.38D-02 ExpMax= 4.56D+03 ExpMxC= 6.82D+02 IAcc=2 IRadAn=         4 AccDes= 0.00D+00
 Harris functional with IExCor=  402 and IRadAn=       4 diagonalized for initial guess.
 HarFok:  IExCor=  402 AccDes= 0.00D+00 IRadAn=         4 IDoV= 1 UseB2=F ITyADJ=14
 ICtDFT=  3500011 ScaDFX=  1.000000  1.000000  1.000000  1.000000
 FoFCou: FMM=F IPFlag=           0 FMFlag=      100000 FMFlg1=           0
         NFxFlg=           0 DoJE=T BraDBF=F KetDBF=T FulRan=T
         wScrn=  0.000000 ICntrl=       500 IOpCl=  0 I1Cent=   200000004 NGrid=           0
         NMat0=    1 NMatS0=      1 NMatT0=    0 NMatD0=    1 NMtDS0=    0 NMtDT0=    0
 Petite list used in FoFCou.
 Requested convergence on RMS density matrix=1.00D-08 within 128 cycles.
 Requested convergence on MAX density matrix=1.00D-06.
 Requested convergence on             energy=1.00D-06.
 No special actions if energy rises.
 EnCoef did     1 forward-backward iterations
 EnCoef did     3 forward-backward iterations
 Restarting incremental Fock formation.
 SCF Done:  E(RB3LYP) =  -1151.75244765     A.U. after   25 cycles
            NFock= 25  Conv=0.59D-08     -V/T= 2.0037

 **********************************************************************

            Population analysis using the SCF Density.

 **********************************************************************

 Orbital symmetries:
       Occupied  (A) (A) (A) (A) (A) (A) (A) (A) (A) (A) (A) (A)
                 (A) (A) (A) (A) (A) (A) (A) (A) (A) (A) (A) (A)
                 (A) (A) (A) (A) (A) (A) (A) (A) (A) (A) (A) (A)
                 (A) (A) (A) (A) (A) (A) (A) (A) (A) (A) (A) (A)
                 (A) (A) (A) (A) (A) (A) (A) (A) (A) (A) (A) (A)
                 (A) (A) (A) (A) (A) (A) (A) (A) (A) (A) (A) (A)
                 (A) (A) (A) (A) (A) (A) (A) (A) (A) (A) (A) (A)
                 (A) (A) (A) (A) (A) (A) (A) (A) (A) (A) (A) (A)
                 (A)
       Virtual   (A) (A) (A) (A) (A) (A) (A) (A) (A) (A) (A) (A)
                 (A) (A) (A) (A) (A) (A) (A) (A) (A) (A) (A) (A)
                 (A) (A) (A) (A) (A) (A) (A) (A) (A) (A) (A) (A)
                 (A) (A) (A) (A) (A) (A) (A) (A) (A) (A) (A) (A)
                 (A) (A) (A) (A) (A) (A) (A) (A) (A) (A) (A) (A)
                 (A) (A) (A) (A) (A) (A) (A) (A) (A) (A) (A) (A)
                 (A) (A) (A) (A) (A) (A) (A) (A) (A) (A) (A) (A)
                 (A) (A) (A) (A) (A) (A) (A) (A) (A) (A) (A) (A)
                 (A) (A) (A) (A) (A) (A) (A) (A) (A) (A) (A) (A)
                 (A) (A) (A) (A) (A) (A) (A) (A) (A) (A) (A) (A)
                 (A) (A) (A) (A) (A) (A) (A) (A) (A) (A) (A) (A)
                 (A) (A) (A) (A) (A) (A) (A) (A) (A) (A) (A) (A)
                 (A) (A) (A) (A) (A) (A) (A) (A) (A) (A) (A) (A)
                 (A) (A) (A) (A) (A) (A) (A) (A) (A) (A) (A) (A)
                 (A) (A) (A) (A) (A) (A) (A) (A) (A) (A) (A) (A)
                 (A) (A) (A) (A) (A) (A) (A) (A) (A) (A) (A) (A)
                 (A) (A) (A) (A) (A) (A) (A) (A) (A) (A) (A) (A)
                 (A) (A) (A) (A) (A) (A) (A) (A) (A) (A) (A) (A)
                 (A) (A) (A) (A) (A) (A) (A) (A) (A) (A) (A) (A)
                 (A) (A) (A) (A) (A) (A) (A) (A) (A) (A) (A) (A)
                 (A) (A) (A) (A) (A) (A) (A) (A) (A) (A) (A) (A)
                 (A) (A) (A) (A) (A) (A) (A) (A) (A) (A) (A) (A)
                 (A) (A) (A) (A) (A) (A) (A) (A) (A) (A) (A) (A)
                 (A) (A) (A) (A) (A) (A) (A) (A) (A) (A) (A) (A)
                 (A) (A) (A) (A) (A) (A) (A) (A) (A) (A) (A) (A)
                 (A) (A) (A) (A) (A) (A) (A) (A) (A) (A) (A) (A)
                 (A) (A) (A) (A) (A) (A) (A) (A) (A) (A) (A) (A)
                 (A) (A) (A) (A) (A) (A) (A) (A) (A) (A) (A) (A)
                 (A) (A) (A) (A) (A) (A) (A) (A) (A) (A) (A) (A)
                 (A) (A) (A) (A) (A) (A) (A) (A) (A) (A) (A) (A)
                 (A) (A) (A) (A) (A) (A) (A) (A) (A) (A) (A) (A)
                 (A) (A) (A) (A) (A) (A) (A) (A) (A) (A) (A) (A)
                 (A) (A) (A) (A) (A) (A) (A) (A) (A) (A) (A) (A)
                 (A) (A) (A) (A) (A) (A) (A) (A) (A) (A) (A) (A)
                 (A) (A) (A) (A) (A) (A) (A) (A) (A) (A) (A) (A)
                 (A) (A) (A) (A) (A) (A) (A) (A) (A) (A) (A) (A)
                 (A) (A) (A) (A) (A) (A) (A) (A) (A) (A) (A) (A)
                 (A) (A) (A) (A) (A) (A) (A) (A) (A) (A) (A) (A)
                 (A) (A) (A) (A) (A) (A) (A) (A) (A) (A) (A) (A)
                 (A) (A) (A) (A) (A) (A) (A) (A) (A) (A) (A) (A)
                 (A) (A) (A) (A) (A) (A) (A) (A) (A) (A) (A) (A)
                 (A) (A) (A) (A) (A) (A) (A) (A) (A) (A) (A) (A)
                 (A) (A) (A) (A) (A) (A) (A) (A) (A) (A) (A) (A)
                 (A) (A) (A) (A) (A) (A) (A) (A) (A) (A) (A) (A)
                 (A) (A) (A) (A) (A) (A) (A) (A) (A) (A) (A) (A)
                 (A) (A) (A) (A) (A) (A) (A) (A) (A) (A) (A) (A)
                 (A) (A) (A) (A) (A) (A) (A) (A) (A) (A) (A) (A)
                 (A) (A) (A) (A) (A) (A) (A) (A) (A) (A) (A) (A)
                 (A) (A) (A) (A) (A) (A) (A) (A) (A) (A) (A) (A)
                 (A) (A) (A) (A) (A) (A) (A) (A) (A) (A) (A) (A)
                 (A) (A) (A) (A) (A) (A) (A) (A) (A) (A) (A) (A)
                 (A) (A) (A) (A) (A) (A) (A) (A) (A) (A) (A)
 The electronic state is 1-A.
 Alpha  occ. eigenvalues --  -10.21910 -10.21372 -10.20964 -10.20456 -10.20402
 Alpha  occ. eigenvalues --  -10.20243 -10.20201 -10.20167 -10.20105 -10.19974
 Alpha  occ. eigenvalues --  -10.19833 -10.19763 -10.19725 -10.19705 -10.19600
 Alpha  occ. eigenvalues --  -10.19551 -10.19520 -10.19129 -10.19046 -10.18952
 Alpha  occ. eigenvalues --  -10.18535 -10.17884 -10.17778 -10.17557 -10.17376
 Alpha  occ. eigenvalues --  -10.17373 -10.16252 -10.16146 -10.15943 -10.14877
 Alpha  occ. eigenvalues --   -0.93939  -0.90276  -0.88725  -0.86319  -0.84760
 Alpha  occ. eigenvalues --   -0.84367  -0.81451  -0.80627  -0.78666  -0.77790
 Alpha  occ. eigenvalues --   -0.76272  -0.75253  -0.73231  -0.71545  -0.70763
 Alpha  occ. eigenvalues --   -0.67870  -0.65795  -0.64672  -0.63774  -0.62694
 Alpha  occ. eigenvalues --   -0.61092  -0.59587  -0.58769  -0.57637  -0.56234
 Alpha  occ. eigenvalues --   -0.52856  -0.52582  -0.52073  -0.50431  -0.50192
 Alpha  occ. eigenvalues --   -0.49241  -0.47643  -0.47259  -0.46756  -0.45784
 Alpha  occ. eigenvalues --   -0.45460  -0.44988  -0.44368  -0.44166  -0.43566
 Alpha  occ. eigenvalues --   -0.42949  -0.42887  -0.41301  -0.40921  -0.40624
 Alpha  occ. eigenvalues --   -0.40590  -0.39702  -0.39082  -0.38169  -0.37304
 Alpha  occ. eigenvalues --   -0.36803  -0.35805  -0.35720  -0.35171  -0.34887
 Alpha  occ. eigenvalues --   -0.33985  -0.33364  -0.33143  -0.31267  -0.28895
 Alpha  occ. eigenvalues --   -0.28352  -0.27288  -0.25945  -0.23363  -0.21341
 Alpha  occ. eigenvalues --   -0.20173  -0.16867
 Alpha virt. eigenvalues --   -0.11946  -0.09879  -0.05821  -0.04456  -0.02739
 Alpha virt. eigenvalues --   -0.01553  -0.00220   0.00309   0.00333   0.00773
 Alpha virt. eigenvalues --    0.01344   0.01490   0.01671   0.02010   0.02871
 Alpha virt. eigenvalues --    0.03224   0.03358   0.03751   0.04139   0.04498
 Alpha virt. eigenvalues --    0.04776   0.04914   0.05174   0.05652   0.05891
 Alpha virt. eigenvalues --    0.07022   0.07046   0.07223   0.07738   0.07953
 Alpha virt. eigenvalues --    0.08339   0.08602   0.08995   0.09134   0.09380
 Alpha virt. eigenvalues --    0.09770   0.09858   0.10599   0.10910   0.11360
 Alpha virt. eigenvalues --    0.11788   0.11925   0.12059   0.12449   0.12865
 Alpha virt. eigenvalues --    0.12970   0.13464   0.13963   0.14601   0.14762
 Alpha virt. eigenvalues --    0.15036   0.15342   0.15498   0.15676   0.16022
 Alpha virt. eigenvalues --    0.16219   0.16389   0.16722   0.16817   0.16926
 Alpha virt. eigenvalues --    0.17180   0.17427   0.17645   0.17729   0.18143
 Alpha virt. eigenvalues --    0.18302   0.18537   0.18763   0.19413   0.19491
 Alpha virt. eigenvalues --    0.19746   0.19861   0.20238   0.20427   0.20642
 Alpha virt. eigenvalues --    0.20768   0.21090   0.21142   0.21501   0.21559
 Alpha virt. eigenvalues --    0.21729   0.21908   0.22097   0.22168   0.22671
 Alpha virt. eigenvalues --    0.22889   0.22921   0.23080   0.23408   0.23652
 Alpha virt. eigenvalues --    0.23899   0.24180   0.24480   0.24744   0.24998
 Alpha virt. eigenvalues --    0.25286   0.25727   0.25811   0.25922   0.26522
 Alpha virt. eigenvalues --    0.26588   0.26763   0.26974   0.27171   0.27539
 Alpha virt. eigenvalues --    0.27655   0.28206   0.28622   0.28784   0.29359
 Alpha virt. eigenvalues --    0.29518   0.29628   0.29959   0.30497   0.30614
 Alpha virt. eigenvalues --    0.31069   0.31341   0.31483   0.31887   0.32355
 Alpha virt. eigenvalues --    0.32525   0.32747   0.33169   0.33316   0.33723
 Alpha virt. eigenvalues --    0.34109   0.34218   0.34716   0.35222   0.35631
 Alpha virt. eigenvalues --    0.36011   0.36116   0.37007   0.37263   0.37555
 Alpha virt. eigenvalues --    0.38828   0.39231   0.39517   0.40279   0.40309
 Alpha virt. eigenvalues --    0.40739   0.41031   0.41684   0.42202   0.43491
 Alpha virt. eigenvalues --    0.43970   0.44113   0.44681   0.45372   0.45585
 Alpha virt. eigenvalues --    0.45928   0.46720   0.48099   0.48437   0.49128
 Alpha virt. eigenvalues --    0.50347   0.50736   0.51778   0.52061   0.52205
 Alpha virt. eigenvalues --    0.52453   0.53045   0.53265   0.53875   0.54234
 Alpha virt. eigenvalues --    0.54278   0.54500   0.54793   0.55105   0.56259
 Alpha virt. eigenvalues --    0.56767   0.56978   0.57309   0.57593   0.58060
 Alpha virt. eigenvalues --    0.58421   0.58527   0.58916   0.59047   0.59469
 Alpha virt. eigenvalues --    0.59991   0.60500   0.60730   0.61039   0.61396
 Alpha virt. eigenvalues --    0.61709   0.62108   0.62791   0.63294   0.63618
 Alpha virt. eigenvalues --    0.63821   0.64436   0.64550   0.65375   0.65720
 Alpha virt. eigenvalues --    0.65837   0.66126   0.66583   0.66808   0.67011
 Alpha virt. eigenvalues --    0.67352   0.67791   0.68138   0.68481   0.69216
 Alpha virt. eigenvalues --    0.69506   0.69919   0.70501   0.71047   0.71235
 Alpha virt. eigenvalues --    0.71574   0.71675   0.71901   0.72450   0.72899
 Alpha virt. eigenvalues --    0.73199   0.73405   0.73592   0.74337   0.74630
 Alpha virt. eigenvalues --    0.75295   0.75669   0.76142   0.76371   0.76922
 Alpha virt. eigenvalues --    0.77653   0.77999   0.78199   0.78763   0.79098
 Alpha virt. eigenvalues --    0.80112   0.80594   0.81997   0.82623   0.82814
 Alpha virt. eigenvalues --    0.84540   0.84874   0.85746   0.86062   0.86917
 Alpha virt. eigenvalues --    0.87640   0.88526   0.89557   0.89651   0.89859
 Alpha virt. eigenvalues --    0.89941   0.90697   0.90968   0.91502   0.92394
 Alpha virt. eigenvalues --    0.92771   0.93009   0.93639   0.93717   0.94701
 Alpha virt. eigenvalues --    0.94769   0.95641   0.95863   0.96205   0.96723
 Alpha virt. eigenvalues --    0.96805   0.97277   0.98015   0.98175   0.98322
 Alpha virt. eigenvalues --    0.98850   0.99041   0.99366   0.99906   1.00324
 Alpha virt. eigenvalues --    1.00379   1.01147   1.02464   1.02758   1.03033
 Alpha virt. eigenvalues --    1.03298   1.04079   1.04478   1.05227   1.05842
 Alpha virt. eigenvalues --    1.06232   1.06717   1.07419   1.08114   1.08786
 Alpha virt. eigenvalues --    1.09165   1.09873   1.10145   1.11173   1.11738
 Alpha virt. eigenvalues --    1.12475   1.14215   1.14749   1.14878   1.15873
 Alpha virt. eigenvalues --    1.17304   1.17521   1.17882   1.18735   1.19539
 Alpha virt. eigenvalues --    1.20678   1.21739   1.23737   1.24202   1.26708
 Alpha virt. eigenvalues --    1.27816   1.28638   1.30128   1.31003   1.32121
 Alpha virt. eigenvalues --    1.34704   1.35336   1.36836   1.37748   1.38652
 Alpha virt. eigenvalues --    1.39907   1.40290   1.41767   1.42833   1.43995
 Alpha virt. eigenvalues --    1.44152   1.45108   1.45282   1.47156   1.47246
 Alpha virt. eigenvalues --    1.47704   1.48324   1.48778   1.49035   1.49783
 Alpha virt. eigenvalues --    1.50120   1.50385   1.50909   1.51718   1.52236
 Alpha virt. eigenvalues --    1.53122   1.53890   1.54096   1.56239   1.56830
 Alpha virt. eigenvalues --    1.57228   1.57693   1.57871   1.58950   1.59245
 Alpha virt. eigenvalues --    1.60210   1.61165   1.61764   1.63015   1.63770
 Alpha virt. eigenvalues --    1.64771   1.66438   1.66644   1.67691   1.68338
 Alpha virt. eigenvalues --    1.68628   1.69086   1.69872   1.70799   1.71249
 Alpha virt. eigenvalues --    1.72221   1.72575   1.73812   1.74895   1.75255
 Alpha virt. eigenvalues --    1.75837   1.75904   1.77018   1.77983   1.78522
 Alpha virt. eigenvalues --    1.79229   1.79511   1.79827   1.80406   1.81384
 Alpha virt. eigenvalues --    1.82671   1.83002   1.83929   1.83978   1.84612
 Alpha virt. eigenvalues --    1.86527   1.86922   1.87164   1.87254   1.88036
 Alpha virt. eigenvalues --    1.88823   1.89189   1.90045   1.90742   1.91237
 Alpha virt. eigenvalues --    1.91533   1.91751   1.91865   1.92612   1.93509
 Alpha virt. eigenvalues --    1.94255   1.94854   1.95836   1.96390   1.96601
 Alpha virt. eigenvalues --    1.97296   1.98370   1.99255   1.99802   2.00602
 Alpha virt. eigenvalues --    2.01222   2.02106   2.03104   2.03326   2.03759
 Alpha virt. eigenvalues --    2.04999   2.05239   2.06260   2.06744   2.07883
 Alpha virt. eigenvalues --    2.08356   2.09064   2.10896   2.11333   2.12233
 Alpha virt. eigenvalues --    2.12960   2.14377   2.14514   2.16332   2.16667
 Alpha virt. eigenvalues --    2.17822   2.19364   2.20201   2.20714   2.21052
 Alpha virt. eigenvalues --    2.22265   2.22393   2.22556   2.24200   2.25523
 Alpha virt. eigenvalues --    2.26895   2.27386   2.27842   2.29543   2.30944
 Alpha virt. eigenvalues --    2.32076   2.34007   2.35521   2.36520   2.37465
 Alpha virt. eigenvalues --    2.38958   2.40430   2.41780   2.43330   2.43648
 Alpha virt. eigenvalues --    2.45306   2.46049   2.46906   2.47339   2.49593
 Alpha virt. eigenvalues --    2.50329   2.53690   2.53775   2.56122   2.57095
 Alpha virt. eigenvalues --    2.58368   2.59101   2.59839   2.61983   2.63134
 Alpha virt. eigenvalues --    2.63257   2.63763   2.64658   2.65557   2.66340
 Alpha virt. eigenvalues --    2.67525   2.68568   2.69179   2.70415   2.71594
 Alpha virt. eigenvalues --    2.72239   2.72527   2.72677   2.73321   2.73518
 Alpha virt. eigenvalues --    2.73936   2.74797   2.75165   2.75439   2.75942
 Alpha virt. eigenvalues --    2.76295   2.76741   2.77252   2.77427   2.77709
 Alpha virt. eigenvalues --    2.78529   2.79247   2.79627   2.80092   2.81112
 Alpha virt. eigenvalues --    2.82199   2.83002   2.83768   2.84041   2.84613
 Alpha virt. eigenvalues --    2.85503   2.85989   2.87075   2.87945   2.88437
 Alpha virt. eigenvalues --    2.89255   2.90156   2.91045   2.93057   2.94035
 Alpha virt. eigenvalues --    2.94623   2.94828   2.98206   2.99716   2.99977
 Alpha virt. eigenvalues --    3.01133   3.02216   3.04595   3.04979   3.07272
 Alpha virt. eigenvalues --    3.08072   3.10603   3.12001   3.13255   3.15130
 Alpha virt. eigenvalues --    3.15871   3.17880   3.18410   3.19495   3.21875
 Alpha virt. eigenvalues --    3.22415   3.22882   3.23374   3.23826   3.27152
 Alpha virt. eigenvalues --    3.29692   3.33897   3.34836   3.37472   3.38511
 Alpha virt. eigenvalues --    3.39563   3.41339   3.41893   3.42956   3.43488
 Alpha virt. eigenvalues --    3.44241   3.45249   3.46098   3.46357   3.48118
 Alpha virt. eigenvalues --    3.48598   3.50693   3.51114   3.53708   3.54754
 Alpha virt. eigenvalues --    3.56226   3.59084   3.61578   3.62306   3.64190
 Alpha virt. eigenvalues --    3.64986   3.67550   3.69903   3.74062   3.75870
 Alpha virt. eigenvalues --    3.79230   3.82699   3.87316   3.89705   3.96067
 Alpha virt. eigenvalues --    3.98009   4.04880   4.06508   4.06862   4.07650
 Alpha virt. eigenvalues --    4.09746   4.11137   4.15689   4.20587   4.24131
 Alpha virt. eigenvalues --    4.29215   4.34901   4.45833   4.54493   4.68963
 Alpha virt. eigenvalues --    4.77465   4.80874   4.81482   4.82364   4.83039
 Alpha virt. eigenvalues --    4.87203   4.91321   4.94595  23.37825  23.61835
 Alpha virt. eigenvalues --   23.67196  23.77044  23.83750  23.86312  23.87814
 Alpha virt. eigenvalues --   23.90700  23.91025  23.94520  23.94864  23.97803
 Alpha virt. eigenvalues --   23.98887  23.99305  24.01263  24.02665  24.03803
 Alpha virt. eigenvalues --   24.04018  24.06154  24.06978  24.07958  24.08207
 Alpha virt. eigenvalues --   24.09814  24.14872  24.15695  24.16574  24.17472
 Alpha virt. eigenvalues --   24.17941  24.25443  24.35260
          Condensed to atoms (all electrons):
               1          2          3          4          5          6
     1  C    8.990405   0.724985   0.052059   0.298156  -0.721799  -0.763874
     2  C    0.724985   7.378381   0.229173   0.343546   0.053225   0.192306
     3  C    0.052059   0.229173   7.384219   1.132697   0.725887  -0.421111
     4  C    0.298156   0.343546   1.132697   9.942650  -0.987443  -0.824024
     5  C   -0.721799   0.053225   0.725887  -0.987443   9.676730   1.196453
     6  C   -0.763874   0.192306  -0.421111  -0.824024   1.196453   7.804917
     7  C    0.136994   0.054810  -0.045767   0.294745  -0.434233  -0.040059
     8  C    0.052406   0.134216   0.097891   0.298515  -0.254986  -0.107803
     9  C   -0.183972  -0.379230   0.540113  -0.349613   0.224476  -0.137507
    10  C    0.149344  -0.641272  -1.579820  -1.832601  -0.577148   0.023487
    11  C   -0.031380  -0.150902  -0.140439   0.175868  -0.505180  -0.293059
    12  C   -0.070307  -0.244995  -0.253221  -0.253804  -0.133030  -0.013094
    13  C    0.132623  -0.127967  -0.186041  -0.302575  -0.006704  -0.089499
    14  C    0.010505  -0.267228  -0.342108  -0.663286  -0.163340  -0.020439
    15  C    0.911569   0.647465  -0.359887  -0.294781  -0.966332  -0.078551
    16  C   -0.879032  -0.179288  -0.059849  -0.687195   0.421401   0.077780
    17  C   -0.874461   0.349073   0.021584  -0.282230  -0.573066  -0.088213
    18  C    0.043220  -0.115156  -0.420463   0.247110  -0.707218  -0.225041
    19  C    0.056670   0.085018  -0.110442  -0.108967  -0.003819   0.005423
    20  C    0.132884  -0.214620  -0.157062  -0.038584   0.034313  -0.086254
    21  C   -0.043250   0.052067   0.020239   0.027180  -0.000561  -0.022276
    22  C   -0.011401  -0.042792  -0.033986  -0.018956  -0.008613   0.001315
    23  C   -0.830783  -1.061287   0.137950  -0.214731  -0.030664  -0.079953
    24  C    0.031128  -0.247807   0.034929  -0.010744  -0.101978  -0.019897
    25  C   -0.018726  -0.243948   0.111235  -0.084796   0.015586   0.007067
    26  C   -0.573993  -0.114158  -0.165513  -0.034806   0.078674  -0.022462
    27  C   -0.784394  -0.279745  -0.143914   0.060106  -0.274758  -0.034750
    28  C   -0.105090   0.124507  -0.042851   0.030278  -0.021638  -0.010215
    29  C   -0.057556  -0.174505   0.033726  -0.004238  -0.019899   0.001591
    30  C   -0.025863  -0.069801  -0.004257  -0.002265  -0.001444  -0.001266
    31  H    0.000021  -0.000036   0.000036   0.000002   0.000002  -0.000000
    32  H   -0.005636  -0.001118  -0.000714  -0.000666  -0.000643   0.000222
    33  H    0.000224  -0.000328   0.000036  -0.000007   0.000028  -0.000001
    34  H    0.003719   0.001644   0.000072   0.000045   0.000284   0.000009
    35  H    0.045431   0.010185   0.000710   0.000613   0.006600   0.000599
    36  H   -0.034916   0.022613  -0.007455   0.005171   0.016914   0.006975
    37  H   -0.086417   0.015566  -0.003717  -0.022173   0.360878  -0.020379
    38  H    0.025728   0.004127   0.024044  -0.101953   0.009410   0.373304
    39  H    0.003105  -0.017066   0.028288  -0.092479   0.001061  -0.001329
    40  H    0.001715  -0.001039  -0.013205  -0.024824  -0.001445   0.004353
    41  H   -0.000259   0.004508  -0.010144   0.010247   0.000366  -0.000076
    42  H    0.000011  -0.000347   0.001517   0.000466   0.000002   0.000043
    43  H   -0.000010   0.000012   0.000041   0.000036   0.000000   0.000001
    44  H   -0.000023  -0.000221  -0.000432  -0.000002  -0.000004  -0.000001
               7          8          9         10         11         12
     1  C    0.136994   0.052406  -0.183972   0.149344  -0.031380  -0.070307
     2  C    0.054810   0.134216  -0.379230  -0.641272  -0.150902  -0.244995
     3  C   -0.045767   0.097891   0.540113  -1.579820  -0.140439  -0.253221
     4  C    0.294745   0.298515  -0.349613  -1.832601   0.175868  -0.253804
     5  C   -0.434233  -0.254986   0.224476  -0.577148  -0.505180  -0.133030
     6  C   -0.040059  -0.107803  -0.137507   0.023487  -0.293059  -0.013094
     7  C    6.940140   1.130367   0.086566   0.442990  -0.105651  -0.415281
     8  C    1.130367   8.966862  -0.465109  -0.357842   0.175183  -0.739834
     9  C    0.086566  -0.465109   8.978299   0.579965  -0.272086  -0.530572
    10  C    0.442990  -0.357842   0.579965   9.650858  -0.016908   0.158649
    11  C   -0.105651   0.175183  -0.272086  -0.016908   8.093336   0.510322
    12  C   -0.415281  -0.739834  -0.530572   0.158649   0.510322   7.664130
    13  C   -0.151618  -0.935009  -0.293023  -0.318168   0.114503   0.164608
    14  C    0.295610   1.623476  -0.640665   0.399581   0.495977   0.468294
    15  C   -0.002025  -0.004798  -0.086440   0.118728   0.183899   0.035340
    16  C   -0.366799   0.103222  -0.128221  -0.202996  -0.603599  -0.392370
    17  C   -0.091208  -0.127240  -0.086033  -0.050603   0.479876  -0.185538
    18  C   -0.154617   0.006351  -0.396921   0.158648  -0.370380   0.579784
    19  C   -0.874503  -1.759836  -0.358945  -0.188733  -0.314498   0.158319
    20  C   -0.291098  -1.263775  -0.056246  -0.070264  -0.054532   1.390140
    21  C    0.399377   0.211802   0.107840   0.007921  -0.443922  -0.770093
    22  C   -0.319750  -0.433153  -0.126320   0.001873  -0.227895   0.224435
    23  C   -0.060678   0.056335  -0.026801   0.000642   0.196571   0.085972
    24  C   -0.036013   0.026905  -0.005058   0.004779   0.204251   0.008376
    25  C    0.093807  -0.022330   0.006904  -0.018253  -0.765544  -0.267744
    26  C   -0.224197  -0.215774  -0.031883  -0.084688  -0.509469  -0.506009
    27  C   -0.654896  -0.413761  -0.079447   0.100573   0.750371   0.170290
    28  C    0.104202   0.037964   0.024678   0.003493  -0.402611  -1.018609
    29  C   -0.017117  -0.001778  -0.002499   0.003653   0.078110   0.117776
    30  C    0.035247   0.000720   0.000792  -0.000245  -0.151447   0.053447
    31  H    0.000107   0.000074   0.000003   0.000000   0.001202   0.003255
    32  H   -0.011800  -0.003546  -0.000865   0.000181   0.046044  -0.010760
    33  H    0.000064   0.000009   0.000001  -0.000001  -0.000298   0.001014
    34  H    0.000011   0.000006   0.000002   0.000003   0.000486   0.000270
    35  H   -0.000046   0.000045   0.000015   0.000021   0.001060  -0.000163
    36  H    0.002803  -0.000111   0.000140  -0.000036  -0.001427  -0.000359
    37  H    0.000713   0.001728  -0.001862   0.002014   0.001587  -0.000299
    38  H   -0.013906   0.005069  -0.002032  -0.000653   0.001949  -0.000243
    39  H   -0.000993   0.013999   0.023523   0.371102   0.002282   0.000342
    40  H    0.019089  -0.078112   0.339703   0.008483  -0.009709   0.008396
    41  H    0.028925  -0.047043   0.013015  -0.005397  -0.005029  -0.020501
    42  H    0.006949   0.051850   0.008259   0.001045  -0.003862   0.010780
    43  H    0.001461   0.003278   0.000387   0.000018  -0.000818  -0.008712
    44  H    0.001838  -0.001572  -0.000078  -0.000003  -0.009560   0.033655
              13         14         15         16         17         18
     1  C    0.132623   0.010505   0.911569  -0.879032  -0.874461   0.043220
     2  C   -0.127967  -0.267228   0.647465  -0.179288   0.349073  -0.115156
     3  C   -0.186041  -0.342108  -0.359887  -0.059849   0.021584  -0.420463
     4  C   -0.302575  -0.663286  -0.294781  -0.687195  -0.282230   0.247110
     5  C   -0.006704  -0.163340  -0.966332   0.421401  -0.573066  -0.707218
     6  C   -0.089499  -0.020439  -0.078551   0.077780  -0.088213  -0.225041
     7  C   -0.151618   0.295610  -0.002025  -0.366799  -0.091208  -0.154617
     8  C   -0.935009   1.623476  -0.004798   0.103222  -0.127240   0.006351
     9  C   -0.293023  -0.640665  -0.086440  -0.128221  -0.086033  -0.396921
    10  C   -0.318168   0.399581   0.118728  -0.202996  -0.050603   0.158648
    11  C    0.114503   0.495977   0.183899  -0.603599   0.479876  -0.370380
    12  C    0.164608   0.468294   0.035340  -0.392370  -0.185538   0.579784
    13  C   12.491877   1.284321  -0.075229   0.062437  -0.293654  -0.441248
    14  C    1.284321   8.728354   0.028477  -0.089186  -0.112896   0.026451
    15  C   -0.075229   0.028477   8.566753   0.536229   0.960085   0.647922
    16  C    0.062437  -0.089186   0.536229  14.138582  -0.252687   0.017501
    17  C   -0.293654  -0.112896   0.960085  -0.252687   8.784817   0.055446
    18  C   -0.441248   0.026451   0.647922   0.017501   0.055446   7.875630
    19  C   -1.477617  -2.339432   0.009698   0.104011   0.185140   0.358698
    20  C   -0.980312  -1.529820  -0.288279  -0.387525  -0.933509  -0.166536
    21  C    2.291958  -0.291404   0.025874  -0.071543  -0.284171  -0.543603
    22  C   -1.736168  -0.791481   0.007777  -0.026726  -0.018930   0.043026
    23  C    0.061057   0.015330  -2.376417  -1.232640   0.040935  -0.760253
    24  C    0.019701  -0.000669  -0.631298  -3.065151   1.146042  -0.560651
    25  C    0.125082  -0.040290  -0.856168   2.200419  -1.221385   0.209393
    26  C   -0.977527  -0.352085  -0.871072  -0.286802   0.925808   0.365956
    27  C   -3.052998  -0.247372  -0.057016  -1.770373  -0.022780   0.600847
    28  C   -0.122857   0.003494  -0.024206   0.036015  -0.049676  -0.413247
    29  C   -0.042501   0.005221  -0.110993  -1.053208  -0.684604   0.175147
[...]
 30,0.03217357,0.00009634,0.00007332,-0.00008534,-0.00041570,-0.0001400
 0,0.00001447,-0.00020083,0.00084918,0.00044973,-0.00004577,0.00001295,
 -0.00001045,-0.00005277,-0.00003248,-0.00001934,0.00004238,-0.00001537
 ,-0.00000543,-0.00046449,-0.00394865,0.00169849,-0.01431480,0.00699586
 ,0.00476470,0.00070482,0.00096235,-0.00095679,0.00005028,-0.00024713,-
 0.00011532,0.00056204,-0.00007816,-0.00042621,0.00140140,0.00117811,0.
 00123139,-0.00670258,0.00078964,0.00285088,-0.30135740,0.05271641,0.06
 928941,-0.00002146,0.00005554,-0.00003433,-0.00003767,-0.00002638,-0.0
 0002768,0.00006003,-0.00010592,0.00003685,-0.00030530,-0.00005300,-0.0
 0021354,0.00026077,-0.00229738,-0.00079431,-0.00045196,-0.00031257,0.0
 0019036,0.00020826,-0.00000875,-0.00006063,-0.00003180,0.00039546,-0.0
 0019342,-0.00000713,0.00001108,-0.00000202,-0.00003325,-0.00001175,-0.
 00000451,0.00003134,-0.00000790,0.00002792,0.00001149,0.00007577,0.000
 00833,0.00014933,0.00023798,-0.00008266,-0.00014057,-0.00008980,-0.000
 01522,0.00001556,0.00000756,-0.00000663,-0.00000728,0.00004764,0.00003
 658,-0.00001125,0.00000991,-0.00000257,0.00000747,0.00000464,0.0000043
 1,-0.00000097,0.00000383,-0.00000431,-0.00000151,0.00000289,-0.0000021
 1,-0.00000617,0.00000020,-0.00000160,-0.00003221,0.00000990,0.00002734
 ,-0.00000670,-0.00000605,0.00000241,-0.00002211,-0.00002278,-0.0000041
 3,-0.00002589,-0.00006067,0.00006806,0.00004127,-0.00087990,0.00002496
 ,0.32041550,0.00003086,0.00009891,-0.00003633,-0.00030417,-0.00026897,
 -0.00001139,-0.00089469,0.00068323,0.00027596,-0.00019976,0.00028643,0
 .00004167,-0.00004426,0.00002862,-0.00000832,0.00009162,-0.00005217,-0
 .00000717,-0.00286252,-0.00346533,0.00136043,-0.02152808,0.00988174,0.
 00600955,-0.00028904,0.00156201,-0.00032767,0.00047657,-0.00000515,-0.
 00009062,-0.00013695,-0.00084566,0.00008826,0.00011609,-0.00464025,0.0
 0148392,0.02819455,-0.00283167,-0.00722786,0.05179601,-0.06925289,-0.0
 1071888,-0.00005224,0.00001024,-0.00003144,-0.00003628,-0.00002947,-0.
 00000477,0.00006354,-0.00009600,0.00002182,-0.00013837,0.00006423,-0.0
 0015782,0.00159692,0.00074227,-0.00096455,0.00140391,0.00016227,-0.000
 38714,0.00029657,0.00007404,-0.00012203,-0.00057148,0.00026983,0.00004
 139,0.00000245,0.00000666,0.00000385,-0.00002212,-0.00000614,-0.000007
 87,0.00004104,-0.00002025,0.00002782,-0.00003194,0.00001950,-0.0000642
 6,-0.00002717,-0.00033515,0.00014268,0.00008478,-0.00007383,-0.0000891
 8,0.00000239,-0.00000979,0.00000961,0.00001575,-0.00002470,0.00006016,
 0.00001403,-0.00000532,-0.00000821,-0.00007032,0.00004292,0.00002241,0
 .00001335,0.00000436,-0.00000413,0.00000320,-0.00000043,0.00000066,0.0
 0000041,0.00000217,0.00000066,-0.00001592,0.00001116,0.00000563,0.0000
 0226,-0.00000526,0.00000082,-0.00001550,-0.00001131,-0.00000302,0.0000
 1510,-0.00001226,0.00004236,0.00067065,-0.00028516,-0.00008439,-0.0567
 0820,0.06869752,0.00011203,-0.00004458,-0.00032694,0.00004879,0.000341
 15,0.00030792,0.00072219,-0.00060820,0.00053340,-0.00033925,0.00008325
 ,-0.00016325,-0.00004714,0.00004260,-0.00004070,0.00005118,-0.00002875
 ,0.00009797,0.00093709,0.00241814,0.00556549,0.00859959,-0.00152657,0.
 00106138,-0.00138483,-0.00054619,-0.00305219,0.00030532,0.00012578,-0.
 00017029,-0.00015351,-0.00003686,-0.00094177,0.00035023,0.00103012,0.0
 0559974,-0.00005558,0.00135531,0.00334169,0.07043832,-0.01273176,-0.05
 266864,0.00003874,-0.00004635,-0.00003823,0.00003674,0.00004989,-0.000
 02026,0.00001440,-0.00014327,0.00008021,-0.00003426,-0.00023675,-0.000
 78229,-0.00180885,-0.00064930,-0.00329078,-0.00001928,-0.00000774,-0.0
 0001369,0.00018329,0.00004423,-0.00009637,-0.00032640,0.00022371,-0.00
 000675,-0.00000431,-0.00002213,-0.00000034,-0.00001926,0.00001055,0.00
 002160,0.00006187,-0.00009411,0.00006485,0.00003474,0.00009607,-0.0000
 7341,0.00021041,0.00032484,0.00007653,-0.00025746,-0.00036051,-0.00019
 062,0.00006101,0.00004901,-0.00001806,-0.00001667,0.00014157,0.0001854
 8,-0.00000866,0.00000253,-0.00001916,-0.00004491,0.00004329,0.00003843
 ,0.00002925,0.00001040,-0.00000832,0.00000367,-0.00000356,0.00000095,-
 0.00000240,0.00000472,0.00000468,-0.00003631,0.00000141,0.00011417,0.0
 0000489,-0.00000053,-0.00000399,0.00000639,0.00000756,0.00000834,0.000
 01385,-0.00003562,0.00024267,-0.00008258,0.00031590,0.00039426,-0.0776
 2468,0.01033038,0.04367332,0.00005952,-0.00003225,-0.00000749,-0.00015
 576,0.00001561,-0.00004170,0.00014463,-0.00005382,-0.00003290,0.000009
 91,-0.00006293,0.00001525,-0.00002025,-0.00002998,-0.00000861,-0.00000
 924,0.00001365,0.00000043,0.00020739,-0.00000907,-0.00001407,0.0001154
 9,-0.00049586,-0.00003601,-0.00003418,0.00010216,0.00005373,-0.0000979
 0,-0.00001416,-0.00000521,-0.00076858,0.00085536,0.00001648,0.00018389
 ,-0.00338746,0.00171282,-0.01529645,0.00672888,0.00311060,0.00051935,0
 .00192154,-0.00089492,-0.00000449,0.00003475,0.00000144,-0.00001205,-0
 .00002498,-0.00001627,0.00000037,-0.00000803,0.00002021,-0.00002344,-0
 .00018462,0.00019426,-0.30692785,0.06200974,0.05368014,0.00038992,-0.0
 0032032,-0.00022137,0.00199153,0.00230492,0.00108983,-0.00601382,-0.00
 009757,0.00267757,-0.00000978,0.00001337,-0.00000755,-0.00000252,-0.00
 001745,-0.00000426,-0.00001932,0.00007397,-0.00001229,-0.00000956,-0.0
 0000029,0.00004461,-0.00008906,0.00007506,-0.00025113,-0.00014679,0.00
 004086,0.00008859,-0.00002531,-0.00003886,-0.00004061,0.00004747,-0.00
 001549,0.00001042,-0.00001284,0.00000364,0.00001919,0.00007139,-0.0000
 2603,-0.00002326,-0.00000866,0.00000041,-0.00001102,-0.00000402,0.0000
 0402,-0.00000193,-0.00000506,-0.00000225,-0.00000307,-0.00000743,-0.00
 000081,0.00000240,-0.00000462,-0.00000565,-0.00000028,-0.00000465,-0.0
 0000988,-0.00000077,-0.00000071,-0.00001145,-0.00000494,0.00001586,-0.
 00002300,-0.00000047,0.00058840,-0.00091962,-0.00006400,0.32526687,0.0
 0006164,-0.00003320,-0.00001372,-0.00014766,-0.00000454,-0.00003293,0.
 00006676,-0.00006592,0.00002313,-0.00008957,0.00004001,0.00000890,-0.0
 0002818,-0.00000463,-0.00000824,0.00001642,-0.00000379,-0.00000285,-0.
 00018112,0.00020729,-0.00001772,0.00041594,0.00018507,-0.00020954,-0.0
 0000749,-0.00010348,0.00003752,0.00006800,0.00004392,-0.00000470,-0.00
 105119,0.00042580,0.00012680,-0.00162963,-0.00309175,0.00208481,-0.021
 00053,0.00784705,0.00414804,-0.00162755,0.00092334,-0.00017966,-0.0000
 1117,0.00002233,-0.00000250,-0.00001932,0.00000092,-0.00002203,0.00004
 242,-0.00001102,0.00001307,-0.00006253,-0.00022532,0.00018832,0.061723
 97,-0.07170516,-0.00707693,-0.00033500,-0.00075626,0.00006413,0.001118
 17,-0.00455879,0.00294999,0.02972725,-0.00231970,-0.00590412,0.0000027
 5,-0.00000322,0.00000300,-0.00001259,0.00000356,-0.00001001,0.00000589
 ,-0.00000074,-0.00000330,-0.00005549,-0.00004341,-0.00000603,-0.000021
 08,0.00006907,-0.00027961,0.00009305,0.00008078,-0.00013696,-0.0000093
 9,-0.00002630,0.00005053,-0.00000981,0.00002176,-0.00002339,0.00001811
 ,0.00000120,-0.00002971,0.00008616,-0.00001482,-0.00004789,0.00000256,
 -0.00000017,0.00001783,0.00000303,-0.00000181,0.00000099,0.00000104,0.
 00000385,-0.00000037,-0.00000087,0.00000254,0.00000485,0.00000239,-0.0
 0000357,0.00000258,-0.00000229,0.00000098,0.00000018,0.00000814,0.0000
 0549,-0.00000249,-0.00000628,-0.00001603,0.00000539,0.00051330,-0.0003
 5474,-0.00000507,-0.06819511,0.07290801,0.00004979,0.00000971,-0.00002
 602,0.00009683,-0.00011038,0.00001534,-0.00011264,0.00001902,0.0000585
 9,-0.00003631,0.00000196,-0.00000787,-0.00000065,0.00003384,0.00000030
 ,0.00003865,-0.00001238,0.00001024,-0.00012654,0.00006586,-0.00014049,
 0.00003598,0.00014824,-0.00015300,0.00005065,-0.00004236,0.00009602,0.
 00002841,0.00001232,0.00000013,0.00047060,-0.00027530,0.00018751,0.002
 12871,0.00180879,0.00361267,0.00885272,-0.00271221,0.00094491,-0.00054
 931,-0.00120898,-0.00215407,-0.00002331,0.00003012,-0.00000359,-0.0000
 1072,-0.00005257,-0.00004268,0.00004335,0.00009258,0.00002288,0.000042
 15,0.00025667,0.00023672,0.05383052,-0.00734968,-0.04731618,-0.0000949
 6,0.00015607,-0.00095469,0.00171287,0.00281055,0.00757636,-0.00459287,
 0.00170332,0.00520881,-0.00000972,0.00002229,-0.00000229,0.00000734,-0
 .00000612,-0.00002678,-0.00007551,0.00008654,-0.00004255,-0.00014165,0
 .00002473,0.00007175,-0.00030634,-0.00025465,-0.00072360,-0.00016990,0
 .00011311,-0.00010141,-0.00004905,-0.00011855,-0.00005377,0.00013052,-
 0.00000197,0.00007284,0.00000317,-0.00001320,0.00001488,0.00017424,-0.
 00001915,-0.00005954,0.00000508,0.00000139,-0.00000787,-0.00000350,-0.
 00000269,-0.00000111,0.00000256,-0.00000121,0.00000242,-0.00000133,0.0
 0000315,0.00001048,0.00000165,0.00000255,-0.00000377,0.00000183,0.0000
 0158,0.00000286,-0.00000054,0.00000486,-0.00001696,-0.00000007,0.00001
 043,0.00001660,-0.00009456,0.00032910,0.00029910,-0.05969292,0.0057690
 5,0.03787203,0.00000068,-0.00001987,0.00000597,0.00001606,-0.00004342,
 0.00001117,-0.00008995,-0.00006637,-0.00000227,-0.00006851,0.00003146,
 0.00000088,-0.00000802,0.00004690,0.00000382,0.00004500,-0.00000998,0.
 00000059,-0.00012877,0.00021950,0.00002629,0.00011265,0.00022427,-0.00
 023286,0.00001662,-0.00004756,-0.00003744,0.00007718,0.00001156,0.0000
 1592,0.00000197,-0.00036749,-0.00003625,-0.00022763,0.00104085,-0.0003
 9024,0.00048556,0.00313221,0.00144764,0.00043716,-0.00002931,-0.000040
 25,-0.00002089,0.00000139,-0.00000464,0.00004291,-0.00002443,-0.000000
 75,-0.00006615,-0.00004407,-0.00005975,0.00005570,0.00003647,0.0000095
 2,0.01008093,0.00907389,-0.00376832,-0.00386300,0.00288641,0.00202485,
 -0.01471793,-0.02224662,0.00956900,-0.16562647,-0.12166082,0.06221095,
 -0.00003528,0.00002191,-0.00001609,0.00000735,-0.00001135,-0.00002943,
 -0.00006815,-0.00008920,-0.00004364,-0.00004015,0.00026983,0.00037604,
 -0.00062325,-0.00102745,0.00000063,0.00031699,-0.00018208,0.00014551,0
 .00004884,0.00006659,0.00004615,-0.00016298,0.00001897,-0.00018744,-0.
 00003400,0.00001982,0.00002249,-0.00012193,0.00005239,0.00014558,-0.00
 004430,-0.00000301,0.00000781,-0.00001858,0.00000072,-0.00000711,-0.00
 000632,-0.00000491,0.00000284,-0.00000424,-0.00000489,-0.00000169,-0.0
 0000334,-0.00000299,-0.00000267,0.00000139,-0.00000401,-0.00000045,0.0
 0000632,-0.00000038,0.00000553,0.00000245,-0.00000378,0.00000111,-0.00
 000173,-0.00000054,0.00005414,0.00049624,-0.00067385,-0.00129023,0.172
 89693,-0.00003518,0.00002350,-0.00001371,-0.00000978,-0.00002007,-0.00
 000149,-0.00000274,0.00003436,0.00001259,0.00011176,-0.00006309,-0.000
 00225,0.00001116,-0.00001935,0.00000325,-0.00002698,0.00001931,-0.0000
 0270,0.00015731,-0.00005889,-0.00002711,0.00003911,-0.00063545,-0.0001
 7079,-0.00012303,0.00012267,0.00001689,-0.00009767,-0.00009580,0.00001
 319,-0.00001926,0.00021992,-0.00011616,0.00041618,-0.00029868,-0.00025
 393,0.00397934,-0.00342417,0.00205945,-0.00118854,-0.00010789,0.000449
 37,-0.00000342,-0.00001823,0.00000300,-0.00001577,-0.00000711,0.000013
 32,-0.00003155,-0.00000278,0.00001131,0.00001813,-0.00000831,-0.000008
 32,-0.02070354,-0.01683059,0.01021651,0.00223709,0.00082319,0.00023020
 ,0.00692252,0.00868477,-0.00313413,-0.12071679,-0.19491031,0.06898362,
 0.00001203,-0.00000280,0.00000409,0.00000828,-0.00000077,-0.00000201,0
 .00000755,0.00003377,0.00001354,0.00003833,-0.00007019,-0.00006763,0.0
 0033124,0.00021769,-0.00012179,-0.00001168,0.00001220,0.00004641,-0.00
 001206,-0.00001484,-0.00000594,0.00001714,-0.00000975,0.00002413,0.000
 00179,0.00000545,0.00000061,-0.00000323,-0.00000265,-0.00000895,-0.000
 00217,0.00000207,-0.00000925,-0.00000139,0.00000416,0.00000141,-0.0000
 0380,-0.00000237,-0.00000038,-0.00000168,-0.00000101,-0.00000537,-0.00
 000507,-0.00000124,-0.00000153,-0.00000120,-0.00000625,-0.00000055,-0.
 00001604,-0.00001650,-0.00000185,0.00001319,-0.00000453,-0.00000670,0.
 00007637,-0.00000651,0.00006462,-0.00005444,0.00065826,-0.00138821,0.1
 2931273,0.20517500,-0.00006703,-0.00004237,-0.00001092,0.00004328,0.00
 009304,-0.00000389,-0.00003924,-0.00006889,0.00001284,-0.00005799,0.00
 005225,-0.00000077,-0.00001909,0.00002909,0.00000066,0.00002191,0.0000
 1096,-0.00000373,0.00002615,0.00015397,0.00011630,-0.00012217,0.000132
 56,-0.00078510,-0.00005271,-0.00006847,-0.00009665,0.00007330,0.000020
 01,0.00006459,0.00003443,-0.00020339,-0.00054080,-0.00042612,-0.000344
 90,-0.00056203,0.00106408,0.00211132,0.00839649,0.00036922,0.00010013,
 0.00020323,0.00001697,-0.00002499,0.00000366,-0.00001211,0.00001872,0.
 00002016,0.00000009,-0.00008038,0.00001010,-0.00014983,-0.00006198,0.0
 0003874,0.00356518,0.00262952,0.00249435,0.00192539,-0.00002771,0.0041
 4067,0.00325624,0.00424216,0.00107563,0.06162884,0.06892820,-0.0690053
 6,0.00000576,-0.00001128,0.00000192,0.00001093,-0.00000213,0.00000351,
 0.00004936,-0.00004907,0.00001758,0.00008110,0.00001742,-0.00001798,-0
 .00011116,0.00035540,-0.00006424,0.00017397,-0.00018053,-0.00007290,0.
 00003444,0.00006994,0.00003589,-0.00008176,0.00003002,-0.00001735,0.00
 001294,-0.00000624,-0.00000274,0.00006803,0.00004172,-0.00000960,0.000
 00338,0.00000147,0.00000856,0.00000327,-0.00000123,0.00000378,0.000000
 79,0.00000037,0.00000216,0.00000304,-0.00000062,-0.00000081,0.00000244
 ,0.00000292,-0.00000400,-0.00000036,0.00000220,0.00000151,0.00000416,-
 0.00000043,0.00001627,-0.00000279,0.00000289,0.00000103,0.00005049,0.0
 0002879,0.00021942,-0.00143940,-0.00123032,-0.00455744,-0.06895087,-0.
 07627098,0.06102703,0.00014713,0.00014251,0.00003241,-0.00007267,-0.00
 037482,-0.00000338,-0.00009054,-0.00008071,-0.00002345,0.00022615,-0.0
 0007552,0.00005159,0.00004041,-0.00013707,-0.00000660,-0.00012257,0.00
 003191,-0.00000190,-0.00021850,-0.00018899,-0.00042218,-0.00030596,-0.
 00041756,0.00018158,0.00009188,0.00028572,0.00004868,-0.00026379,-0.00
 009556,-0.00000431,0.00063732,-0.00085472,0.00006988,-0.00265559,-0.00
 113222,0.00422619,-0.00029185,-0.00094140,0.00007336,0.00003785,0.0006
 6395,-0.00032859,-0.00008520,0.00009908,-0.00000843,-0.00008970,-0.000
 08515,0.00000134,0.00008209,0.00004059,0.00001755,0.00049997,0.0002078
 6,0.00003619,-0.00446350,0.00046636,0.00268836,0.01098782,-0.02014496,
 0.00273881,-0.07722411,0.07544017,-0.00557651,-0.00462936,0.02801060,-
 0.00280163,0.00001635,0.00011608,0.00001163,-0.00009217,-0.00002557,-0
 .00022965,-0.00025919,0.00054156,-0.00014473,0.00023902,0.00009464,0.0
 0041817,-0.00046657,-0.00023436,-0.00083583,-0.00314387,-0.00014307,-0
 .00102838,-0.00048086,-0.00112077,0.00026204,0.00094073,0.00036039,0.0
 0060043,0.00012115,0.00008331,-0.00025189,0.00009672,-0.00009554,-0.00
 004909,0.00006825,0.00005103,0.00008265,-0.00000619,-0.00001269,-0.000
 00355,0.00000090,0.00001487,0.00001486,0.00001247,0.00001182,-0.000014
 07,-0.00000006,0.00000066,0.00000354,-0.00000924,-0.00000402,-0.000003
 33,-0.00000454,0.00000107,-0.00000964,0.00000393,-0.00000915,-0.000011
 96,0.00005262,-0.00006290,0.00001219,-0.00039386,0.00120071,-0.0003249
 6,0.00083268,-0.00062424,-0.00099657,0.08023444,0.00001088,0.00004363,
 -0.00000585,-0.00007769,0.00000644,-0.00001695,0.00011100,-0.00012603,
 0.00000996,-0.00001090,0.00002068,0.00000798,-0.00000502,-0.00006966,-
 0.00001234,-0.00004446,0.00001672,-0.00001212,-0.00032277,-0.00018758,
 -0.00002174,-0.00007875,0.00001533,-0.00000489,0.00000907,0.00001947,0
 .00002266,-0.00002639,0.00000192,-0.00000505,0.00085891,-0.00056218,0.
 00011615,-0.00278173,-0.00072763,0.00196414,-0.00037384,0.00024769,-0.
 00009763,0.00007190,0.00007108,-0.00008240,-0.00002045,-0.00002711,0.0
 0000162,-0.00005596,0.00001644,-0.00003215,-0.00004193,0.00007369,-0.0
 0009575,0.00006662,-0.00000907,0.00005933,0.00065327,0.00151795,0.0000
 5754,0.00531784,-0.01840980,0.00260791,0.07499391,-0.31319191,0.030207
 22,-0.00059685,-0.00116520,0.00087183,0.00005991,-0.00008134,0.0000253
 0,0.00001363,0.00008968,-0.00000386,0.00009939,-0.00048997,-0.00000595
 ,-0.00064951,-0.00030424,0.00006394,0.00085412,-0.00132326,-0.00189453
 ,0.00291983,0.00053751,-0.00089254,0.00023917,0.00038530,0.00059176,-0
 .00061869,0.00005019,-0.00055034,0.00011341,0.00002992,-0.00017819,0.0
 0039874,0.00004394,0.00001160,-0.00003242,-0.00001321,0.00010458,-0.00
 000727,0.00000420,0.00000219,-0.00000221,0.00000196,0.00000031,-0.0000
 0058,-0.00000199,-0.00000227,-0.00000033,-0.00000055,0.00000365,-0.000
 00781,-0.00000449,0.00000292,-0.00000042,-0.00000291,-0.00000190,0.000
 00134,-0.00000287,-0.00000163,0.00002297,-0.00000969,0.00001082,-0.000
 15657,-0.00010287,0.00005177,0.00010051,0.00060379,-0.00039917,-0.0810
 0387,0.33301605,0.00020613,-0.00014951,0.00006572,0.00010631,-0.000387
 78,0.00001486,-0.00033623,0.00016719,-0.00006592,-0.00009272,-0.000190
 30,0.00005146,-0.00004601,0.00021364,0.00001804,0.00023618,-0.00005122
 ,0.00004205,-0.00009796,0.00037775,-0.00090877,0.00021539,-0.00004628,
 0.00007318,0.00010215,0.00001774,0.00011396,-0.00004916,0.00001659,-0.
 00002086,-0.00131317,0.00007128,0.00032534,0.00435719,0.00417364,0.006
 21383,0.00038630,-0.00005436,-0.00087135,-0.00017931,-0.00026454,-0.00
 049160,-0.00008785,0.00025224,-0.00004391,-0.00016043,-0.00033610,-0.0
 0015515,0.00013213,0.00050668,0.00017690,0.00041749,0.00002380,0.00023
 457,0.00208141,-0.00003865,0.00439421,-0.00437315,0.00739383,0.0049324
 1,-0.00235282,0.02788490,-0.04244172,0.00116737,-0.00515426,0.00407995
 ,-0.00003040,0.00009383,-0.00002721,0.00004923,-0.00007277,-0.00006358
 ,-0.00024733,0.00053810,-0.00005791,-0.00080285,-0.00014330,0.00025459
 ,-0.00106913,-0.00124698,-0.00344603,-0.00016021,0.00047104,-0.0007226
 4,-0.00048198,-0.00053250,-0.00061126,0.00087789,-0.00013912,0.0006480
 4,-0.00003737,-0.00008211,0.00025593,0.00095972,-0.00008295,-0.0002159
 2,0.00006246,0.00002254,-0.00018570,-0.00001835,-0.00000120,-0.0000021
 2,-0.00000508,-0.00001144,0.00001361,-0.00001017,0.00000640,0.00001956
 ,-0.00000549,-0.00000277,-0.00000545,0.00000774,-0.00000419,0.00000422
 ,0.00000364,0.00000104,-0.00002027,0.00000170,0.00000372,-0.00000319,0
 .00001112,0.00002911,-0.00000557,0.00009848,-0.00024904,0.00006226,-0.
 00103204,-0.00054578,-0.00215972,0.00150919,-0.03247792,0.03053116\\-0
 .00002357,-0.00000542,-0.00000379,-0.00000955,0.00000874,-0.00001434,-
 0.00001669,-0.00003756,0.00004878,-0.00000549,0.00000239,-0.00000496,0
 .00000953,-0.00000667,0.00001247,-0.00001106,0.00000574,-0.00000806,0.
 00001440,0.00002627,0.00003834,0.00002775,0.00002209,-0.00000609,-0.00
 001622,-0.00001786,-0.00001151,0.00001492,0.00000189,-0.00000924,-0.00
 000646,-0.00001248,0.00003649,-0.00003531,0.00004426,-0.00000666,0.000
 03726,-0.00001742,-0.00000606,-0.00002046,-0.00001013,0.00000782,0.000
 01716,0.00000758,0.00000881,-0.00003422,-0.00002806,-0.00001542,0.0000
 1234,0.00005238,0.00000743,0.00001787,0.00000581,-0.00005078,-0.000001
 22,0.00000820,-0.00000532,0.00003955,-0.00005804,-0.00002800,0.0000045
 1,0.00001793,0.00000502,-0.00000551,-0.00001342,-0.00000037,-0.0000049
 8,0.00000963,-0.00000115,0.00002128,-0.00001361,-0.00001182,-0.0000570
 7,0.00004793,-0.00000689,0.00000261,-0.00009841,0.00000468,-0.00000118
 ,0.00017347,-0.00001355,0.00002745,-0.00010356,0.00000321,0.00000322,0
 .00002439,-0.00001236,0.00002904,-0.00005481,-0.00000416,-0.00001726,0
 .00000978,-0.00000516,-0.00000103,0.00002003,0.00002870,-0.00000318,-0
 .00000925,-0.00000728,0.00000052,0.00000579,0.00001132,0.00000347,-0.0
 0000123,-0.00000674,-0.00000324,0.00000708,-0.00000391,0.00000049,0.00
 000016,-0.00000007,-0.00000179,-0.00000073,0.00000297,-0.00000244,-0.0
 0000114,0.00000815,0.00000010,-0.00000106,0.00000856,0.00000068,0.0000
 0030,0.00000023,-0.00000021,-0.00000379,0.00000182,0.00000347,-0.00000
 033,0.00000691,-0.00000947,-0.00000683,0.00000198\\\@


 I DON'T EXACTLY UNDERSTAND WHAT YOU ARE SAYING,
 BUT YOU ARE ABSOLUTELY RIGHT.
     M.S.GORDON, IN A NDSU FACULTY MEETING
 Job cpu time:       0 days 21 hours 52 minutes 16.0 seconds.
 Elapsed time:       0 days  1 hours  5 minutes 48.1 seconds.
 File lengths (MBytes):  RWF=   2141 Int=      0 D2E=      0 Chk=     55 Scr=      1
 Normal termination of Gaussian 16 at Wed Jun 12 17:33:53 2019.
