 Entering Gaussian System, Link 0=/share/apps/gaussian16/g16/g16
 Initial command:
 /share/apps/gaussian16/g16/l1.exe "/home/amen01//scratch/583/Gau-13568.inp" -scrdir="/home/amen01//scratch/583/"
 Entering Link 1 = /share/apps/gaussian16/g16/l1.exe PID=     13569.
  
 Copyright (c) 1988-2017, Gaussian, Inc.  All Rights Reserved.
  
 This is part of the Gaussian(R) 16 program.  It is based on
 the Gaussian(R) 09 system (copyright 2009, Gaussian, Inc.),
 the Gaussian(R) 03 system (copyright 2003, Gaussian, Inc.),
 the Gaussian(R) 98 system (copyright 1998, Gaussian, Inc.),
 the Gaussian(R) 94 system (copyright 1995, Gaussian, Inc.),
 the Gaussian 92(TM) system (copyright 1992, Gaussian, Inc.),
 the Gaussian 90(TM) system (copyright 1990, Gaussian, Inc.),
 the Gaussian 88(TM) system (copyright 1988, Gaussian, Inc.),
 the Gaussian 86(TM) system (copyright 1986, Carnegie Mellon
 University), and the Gaussian 82(TM) system (copyright 1983,
 Carnegie Mellon University). Gaussian is a federally registered
 trademark of Gaussian, Inc.
  
 This software contains proprietary and confidential information,
 including trade secrets, belonging to Gaussian, Inc.
  
 This software is provided under written license and may be
 used, copied, transmitted, or stored only in accord with that
 written license.
  
 The following legend is applicable only to US Government
 contracts under FAR:
  
                    RESTRICTED RIGHTS LEGEND
  
 Use, reproduction and disclosure by the US Government is
 subject to restrictions as set forth in subparagraphs (a)
 and (c) of the Commercial Computer Software - Restricted
 Rights clause in FAR 52.227-19.
  
 Gaussian, Inc.
 340 Quinnipiac St., Bldg. 40, Wallingford CT 06492
  
  
 ---------------------------------------------------------------
 Warning -- This program may not be used in any manner that
 competes with the business of Gaussian, Inc. or will provide
 assistance to any competitor of Gaussian, Inc.  The licensee
 of this program is prohibited from giving any competitor of
 Gaussian, Inc. access to this program.  By using this program,
 the user acknowledges that Gaussian, Inc. is engaged in the
 business of creating and licensing software in the field of
 computational chemistry and represents and warrants to the
 licensee that it is not a competitor of Gaussian, Inc. and that
 it will not use this program in any manner prohibited above.
 ---------------------------------------------------------------
  

 Cite this work as:
 Gaussian 16, Revision B.01,
 M. J. Frisch, G. W. Trucks, H. B. Schlegel, G. E. Scuseria, 
 M. A. Robb, J. R. Cheeseman, G. Scalmani, V. Barone, 
 G. A. Petersson, H. Nakatsuji, X. Li, M. Caricato, A. V. Marenich, 
 J. Bloino, B. G. Janesko, R. Gomperts, B. Mennucci, H. P. Hratchian, 
 J. V. Ortiz, A. F. Izmaylov, J. L. Sonnenberg, D. Williams-Young, 
 F. Ding, F. Lipparini, F. Egidi, J. Goings, B. Peng, A. Petrone, 
 T. Henderson, D. Ranasinghe, V. G. Zakrzewski, J. Gao, N. Rega, 
 G. Zheng, W. Liang, M. Hada, M. Ehara, K. Toyota, R. Fukuda, 
 J. Hasegawa, M. Ishida, T. Nakajima, Y. Honda, O. Kitao, H. Nakai, 
 T. Vreven, K. Throssell, J. A. Montgomery, Jr., J. E. Peralta, 
 F. Ogliaro, M. J. Bearpark, J. J. Heyd, E. N. Brothers, K. N. Kudin, 
 V. N. Staroverov, T. A. Keith, R. Kobayashi, J. Normand, 
 K. Raghavachari, A. P. Rendell, J. C. Burant, S. S. Iyengar, 
 J. Tomasi, M. Cossi, J. M. Millam, M. Klene, C. Adamo, R. Cammi, 
 J. W. Ochterski, R. L. Martin, K. Morokuma, O. Farkas, 
 J. B. Foresman, and D. J. Fox, Gaussian, Inc., Wallingford CT, 2016.
 
 ******************************************
 Gaussian 16:  ES64L-G16RevB.01 20-Dec-2017
                21-Jun-2019 
 ******************************************
 %nprocshared=20
 Will use up to   20 processors via shared memory.
 %mem=100GB
 %chk=7-memb-carb-5a.chk
 -------------------------------------------
 # opt freq b3lyp/6-311+g(d,p) int=grid=fine
 -------------------------------------------
 1/18=20,19=15,26=3,38=1/1,3;
 2/9=110,12=2,17=6,18=5,40=1/2;
 3/5=4,6=6,7=111,11=2,25=1,30=1,71=1,74=-5,75=-4/1,2,3;
 4//1;
 5/5=2,38=5/2;
 6/7=2,8=2,9=2,10=2,28=1/1;
 7//1,2,3,16;
 1/18=20,19=15,26=3/3(2);
 2/9=110/2;
 99//99;
 2/9=110/2;
 3/5=4,6=6,7=111,11=2,25=1,30=1,71=1,74=-5,75=-4/1,2,3;
 4/5=5,16=3,69=1/1;
 5/5=2,38=5/2;
 7//1,2,3,16;
 1/18=20,19=15,26=3/3(-5);
 2/9=110/2;
 6/7=2,8=2,9=2,10=2,19=2,28=1/1;
 99/9=1/99;
 --------------
 7-memb-carb-5a
 --------------
 Symbolic Z-matrix:
 Charge =  0 Multiplicity = 1
 C                     1.5498   -2.85843  -0.0452 
 C                     1.41097  -1.50901   0.27812 
 C                     2.50738  -0.64637   0.3621 
 C                     3.79695  -1.01193   0.05719 
 C                     2.90574  -3.29871  -0.24057 
 C                     3.97705  -2.41231  -0.20617 
 C                     2.01945   0.67559   0.46493 
 C                     2.88485   1.77917   0.18583 
 C                     4.29005   1.41072  -0.039 
 C                     4.72301   0.11406  -0.08445 
 C                     0.63361   0.65367   0.4291 
 C                    -0.10917   1.83732   0.21569 
 C                     0.77123   3.1189    0.33622 
 C                     2.26482   2.97894   0.0491 
 C                     0.32026  -3.52432  -0.22923 
 C                    -0.90079  -2.82751  -0.1575 
 C                    -0.98779  -1.38068   0.0574 
 C                     0.22695  -0.75125   0.29329 
 C                     0.18668   4.28118  -0.41786 
 C                    -1.46236   1.88281  -0.00821 
 C                    -2.06614   3.23556  -0.38353 
 C                    -1.09176   4.30689  -0.76977 
 C                    -2.12233  -3.56286  -0.30485 
 C                    -3.3153   -2.93883  -0.2073 
 C                    -3.42998  -1.51614  -0.01016 
 C                    -2.26636  -0.67998   0.04982 
 C                    -2.4532    0.76473   0.12509 
 C                    -3.78384   1.20038   0.29464 
 C                    -4.72443  -0.98937   0.12046 
 C                    -4.89379   0.3621    0.31214 
 H                    -5.88166   0.7856    0.45444 
 H                    -3.98108   2.25163   0.42204 
 H                     0.71879   3.32825   1.42065 
 H                    -5.5741   -1.66182   0.08249 
 H                    -4.23734  -3.50494  -0.28353 
 H                    -2.06848  -4.63343  -0.47036 
 H                     0.28805  -4.58669  -0.45012 
 H                     3.09874  -4.34079  -0.47341 
 H                     4.97001  -2.79205  -0.42551 
 H                     5.77293  -0.08285  -0.27686 
 H                     5.00853   2.20942  -0.19292 
 H                     2.79864   3.88115  -0.23225 
 H                     0.85302   5.09712  -0.68002 
 H                    -1.49208   5.15054  -1.32415 
 H                    -2.79087   3.09742  -1.19289 
 H                    -2.65234   3.63552   0.45857 
 

 GradGradGradGradGradGradGradGradGradGradGradGradGradGradGradGradGradGrad
 Berny optimization.
 Initialization pass.
                           ----------------------------
                           !    Initial Parameters    !
                           ! (Angstroms and Degrees)  !
 --------------------------                            --------------------------
 ! Name  Definition              Value          Derivative Info.                !
 --------------------------------------------------------------------------------
 ! R1    R(1,2)                  1.3945         estimate D2E/DX2                !
 ! R2    R(1,5)                  1.439          estimate D2E/DX2                !
 ! R3    R(1,15)                 1.4103         estimate D2E/DX2                !
 ! R4    R(2,3)                  1.3976         estimate D2E/DX2                !
 ! R5    R(2,18)                 1.4058         estimate D2E/DX2                !
 ! R6    R(3,4)                  1.3746         estimate D2E/DX2                !
 ! R7    R(3,7)                  1.4129         estimate D2E/DX2                !
 ! R8    R(4,6)                  1.4363         estimate D2E/DX2                !
 ! R9    R(4,10)                 1.4648         estimate D2E/DX2                !
 ! R10   R(5,6)                  1.3909         estimate D2E/DX2                !
 ! R11   R(5,38)                 1.0851         estimate D2E/DX2                !
 ! R12   R(6,39)                 1.0855         estimate D2E/DX2                !
 ! R13   R(7,8)                  1.4299         estimate D2E/DX2                !
 ! R14   R(7,11)                 1.3865         estimate D2E/DX2                !
 ! R15   R(8,9)                  1.47           estimate D2E/DX2                !
 ! R16   R(8,14)                 1.3574         estimate D2E/DX2                !
 ! R17   R(9,10)                 1.3678         estimate D2E/DX2                !
 ! R18   R(9,41)                 1.0853         estimate D2E/DX2                !
 ! R19   R(10,40)                1.0854         estimate D2E/DX2                !
 ! R20   R(11,12)                1.4136         estimate D2E/DX2                !
 ! R21   R(11,18)                1.4689         estimate D2E/DX2                !
 ! R22   R(12,13)                1.5595         estimate D2E/DX2                !
 ! R23   R(12,20)                1.3723         estimate D2E/DX2                !
 ! R24   R(13,14)                1.5274         estimate D2E/DX2                !
 ! R25   R(13,19)                1.5037         estimate D2E/DX2                !
 ! R26   R(13,33)                1.1057         estimate D2E/DX2                !
 ! R27   R(14,42)                1.0854         estimate D2E/DX2                !
 ! R28   R(15,16)                1.4077         estimate D2E/DX2                !
 ! R29   R(15,37)                1.0856         estimate D2E/DX2                !
 ! R30   R(16,17)                1.4653         estimate D2E/DX2                !
 ! R31   R(16,23)                1.4334         estimate D2E/DX2                !
 ! R32   R(17,18)                1.3883         estimate D2E/DX2                !
 ! R33   R(17,26)                1.458          estimate D2E/DX2                !
 ! R34   R(19,22)                1.3262         estimate D2E/DX2                !
 ! R35   R(19,43)                1.0856         estimate D2E/DX2                !
 ! R36   R(20,21)                1.5282         estimate D2E/DX2                !
 ! R37   R(20,27)                1.4999         estimate D2E/DX2                !
 ! R38   R(21,22)                1.4988         estimate D2E/DX2                !
 ! R39   R(21,45)                1.0952         estimate D2E/DX2                !
 ! R40   R(21,46)                1.1012         estimate D2E/DX2                !
 ! R41   R(22,44)                1.086          estimate D2E/DX2                !
 ! R42   R(23,24)                1.3499         estimate D2E/DX2                !
 ! R43   R(23,36)                1.0846         estimate D2E/DX2                !
 ! R44   R(24,25)                1.4409         estimate D2E/DX2                !
 ! R45   R(24,35)                1.0846         estimate D2E/DX2                !
 ! R46   R(25,26)                1.4341         estimate D2E/DX2                !
 ! R47   R(25,29)                1.4036         estimate D2E/DX2                !
 ! R48   R(26,27)                1.4587         estimate D2E/DX2                !
 ! R49   R(27,28)                1.4104         estimate D2E/DX2                !
 ! R50   R(28,30)                1.391          estimate D2E/DX2                !
 ! R51   R(28,32)                1.0771         estimate D2E/DX2                !
 ! R52   R(29,30)                1.3755         estimate D2E/DX2                !
 ! R53   R(29,34)                1.0842         estimate D2E/DX2                !
 ! R54   R(30,31)                1.0842         estimate D2E/DX2                !
 ! A1    A(2,1,5)              114.9205         estimate D2E/DX2                !
 ! A2    A(2,1,15)             113.5993         estimate D2E/DX2                !
 ! A3    A(5,1,15)             131.2487         estimate D2E/DX2                !
 ! A4    A(1,2,3)              122.2145         estimate D2E/DX2                !
 ! A5    A(1,2,18)             127.4396         estimate D2E/DX2                !
 ! A6    A(3,2,18)             109.1091         estimate D2E/DX2                !
 ! A7    A(2,3,4)              123.9502         estimate D2E/DX2                !
 ! A8    A(2,3,7)              108.1175         estimate D2E/DX2                !
 ! A9    A(4,3,7)              126.0819         estimate D2E/DX2                !
 ! A10   A(3,4,6)              114.6835         estimate D2E/DX2                !
 ! A11   A(3,4,10)             114.2127         estimate D2E/DX2                !
 ! A12   A(6,4,10)             130.7306         estimate D2E/DX2                !
 ! A13   A(1,5,6)              121.8327         estimate D2E/DX2                !
 ! A14   A(1,5,38)             119.3791         estimate D2E/DX2                !
 ! A15   A(6,5,38)             118.7081         estimate D2E/DX2                !
 ! A16   A(4,6,5)              121.9593         estimate D2E/DX2                !
 ! A17   A(4,6,39)             119.5282         estimate D2E/DX2                !
 ! A18   A(5,6,39)             118.4656         estimate D2E/DX2                !
 ! A19   A(3,7,8)              119.9275         estimate D2E/DX2                !
 ! A20   A(3,7,11)             109.1785         estimate D2E/DX2                !
 ! A21   A(8,7,11)             127.7401         estimate D2E/DX2                !
 ! A22   A(7,8,9)              114.5156         estimate D2E/DX2                !
 ! A23   A(7,8,14)             115.1736         estimate D2E/DX2                !
 ! A24   A(9,8,14)             129.9983         estimate D2E/DX2                !
 ! A25   A(8,9,10)             123.0435         estimate D2E/DX2                !
 ! A26   A(8,9,41)             118.0392         estimate D2E/DX2                !
 ! A27   A(10,9,41)            118.9079         estimate D2E/DX2                !
 ! A28   A(4,10,9)             121.6958         estimate D2E/DX2                !
 ! A29   A(4,10,40)            119.2907         estimate D2E/DX2                !
 ! A30   A(9,10,40)            118.9507         estimate D2E/DX2                !
 ! A31   A(7,11,12)            121.0562         estimate D2E/DX2                !
 ! A32   A(7,11,18)            107.1114         estimate D2E/DX2                !
 ! A33   A(12,11,18)           129.8986         estimate D2E/DX2                !
 ! A34   A(11,12,13)           112.3209         estimate D2E/DX2                !
 ! A35   A(11,12,20)           124.7854         estimate D2E/DX2                !
 ! A36   A(13,12,20)           122.8218         estimate D2E/DX2                !
 ! A37   A(12,13,14)           117.5303         estimate D2E/DX2                !
 ! A38   A(12,13,19)           112.1459         estimate D2E/DX2                !
 ! A39   A(12,13,33)           101.8071         estimate D2E/DX2                !
 ! A40   A(14,13,19)           110.8976         estimate D2E/DX2                !
 ! A41   A(14,13,33)           104.3651         estimate D2E/DX2                !
 ! A42   A(19,13,33)           109.0895         estimate D2E/DX2                !
 ! A43   A(8,14,13)            120.5793         estimate D2E/DX2                !
 ! A44   A(8,14,42)            122.4216         estimate D2E/DX2                !
 ! A45   A(13,14,42)           116.9684         estimate D2E/DX2                !
 ! A46   A(1,15,16)            121.0537         estimate D2E/DX2                !
 ! A47   A(1,15,37)            120.9627         estimate D2E/DX2                !
 ! A48   A(16,15,37)           117.9726         estimate D2E/DX2                !
 ! A49   A(15,16,17)           123.2117         estimate D2E/DX2                !
 ! A50   A(15,16,23)           118.6869         estimate D2E/DX2                !
 ! A51   A(17,16,23)           118.1011         estimate D2E/DX2                !
 ! A52   A(16,17,18)           114.8748         estimate D2E/DX2                !
 ! A53   A(16,17,26)           121.7247         estimate D2E/DX2                !
 ! A54   A(18,17,26)           123.3866         estimate D2E/DX2                !
 ! A55   A(2,18,11)            106.4617         estimate D2E/DX2                !
 ! A56   A(2,18,17)            119.3873         estimate D2E/DX2                !
 ! A57   A(11,18,17)           133.7556         estimate D2E/DX2                !
 ! A58   A(13,19,22)           121.5182         estimate D2E/DX2                !
 ! A59   A(13,19,43)           117.6087         estimate D2E/DX2                !
 ! A60   A(22,19,43)           120.8665         estimate D2E/DX2                !
 ! A61   A(12,20,21)           117.3222         estimate D2E/DX2                !
 ! A62   A(12,20,27)           127.7479         estimate D2E/DX2                !
 ! A63   A(21,20,27)           114.878          estimate D2E/DX2                !
 ! A64   A(20,21,22)           116.051          estimate D2E/DX2                !
 ! A65   A(20,21,45)           109.3476         estimate D2E/DX2                !
 ! A66   A(20,21,46)           110.1213         estimate D2E/DX2                !
 ! A67   A(22,21,45)           109.2647         estimate D2E/DX2                !
 ! A68   A(22,21,46)           106.4704         estimate D2E/DX2                !
 ! A69   A(45,21,46)           104.9917         estimate D2E/DX2                !
 ! A70   A(19,22,21)           122.987          estimate D2E/DX2                !
 ! A71   A(19,22,44)           120.3883         estimate D2E/DX2                !
 ! A72   A(21,22,44)           116.5644         estimate D2E/DX2                !
 ! A73   A(16,23,24)           120.5687         estimate D2E/DX2                !
 ! A74   A(16,23,36)           118.6686         estimate D2E/DX2                !
 ! A75   A(24,23,36)           120.7439         estimate D2E/DX2                !
 ! A76   A(23,24,25)           122.4584         estimate D2E/DX2                !
 ! A77   A(23,24,35)           120.3267         estimate D2E/DX2                !
 ! A78   A(25,24,35)           117.2136         estimate D2E/DX2                !
 ! A79   A(24,25,26)           121.12           estimate D2E/DX2                !
 ! A80   A(24,25,29)           117.1737         estimate D2E/DX2                !
 ! A81   A(26,25,29)           121.7063         estimate D2E/DX2                !
 ! A82   A(17,26,25)           115.5649         estimate D2E/DX2                !
 ! A83   A(17,26,27)           126.0179         estimate D2E/DX2                !
 ! A84   A(25,26,27)           118.4038         estimate D2E/DX2                !
 ! A85   A(20,27,26)           130.4738         estimate D2E/DX2                !
 ! A86   A(20,27,28)           113.809          estimate D2E/DX2                !
 ! A87   A(26,27,28)           115.6572         estimate D2E/DX2                !
 ! A88   A(27,28,30)           124.6231         estimate D2E/DX2                !
 ! A89   A(27,28,32)           119.2381         estimate D2E/DX2                !
 ! A90   A(30,28,32)           116.1388         estimate D2E/DX2                !
 ! A91   A(25,29,30)           119.687          estimate D2E/DX2                !
 ! A92   A(25,29,34)           119.1234         estimate D2E/DX2                !
 ! A93   A(30,29,34)           121.1835         estimate D2E/DX2                !
 ! A94   A(28,30,29)           119.4801         estimate D2E/DX2                !
 ! A95   A(28,30,31)           119.5566         estimate D2E/DX2                !
 ! A96   A(29,30,31)           120.9491         estimate D2E/DX2                !
 ! D1    D(5,1,2,3)              1.9517         estimate D2E/DX2                !
 ! D2    D(5,1,2,18)           167.8241         estimate D2E/DX2                !
 ! D3    D(15,1,2,3)          -173.1524         estimate D2E/DX2                !
 ! D4    D(15,1,2,18)           -7.2801         estimate D2E/DX2                !
 ! D5    D(2,1,5,6)             -4.6356         estimate D2E/DX2                !
 ! D6    D(2,1,5,38)           178.662          estimate D2E/DX2                !
 ! D7    D(15,1,5,6)           169.3938         estimate D2E/DX2                !
 ! D8    D(15,1,5,38)           -7.3086         estimate D2E/DX2                !
 ! D9    D(2,1,15,16)            3.3981         estimate D2E/DX2                !
 ! D10   D(2,1,15,37)         -177.8271         estimate D2E/DX2                !
 ! D11   D(5,1,15,16)         -170.6932         estimate D2E/DX2                !
 ! D12   D(5,1,15,37)            8.0816         estimate D2E/DX2                !
 ! D13   D(1,2,3,4)              4.2774         estimate D2E/DX2                !
 ! D14   D(1,2,3,7)            169.5826         estimate D2E/DX2                !
 ! D15   D(18,2,3,4)          -163.8871         estimate D2E/DX2                !
 ! D16   D(18,2,3,7)             1.4181         estimate D2E/DX2                !
 ! D17   D(1,2,18,11)         -168.8646         estimate D2E/DX2                !
 ! D18   D(1,2,18,17)            4.8841         estimate D2E/DX2                !
 ! D19   D(3,2,18,11)           -1.4885         estimate D2E/DX2                !
 ! D20   D(3,2,18,17)          172.2602         estimate D2E/DX2                !
 ! D21   D(2,3,4,6)             -7.268          estimate D2E/DX2                !
 ! D22   D(2,3,4,10)           166.4846         estimate D2E/DX2                !
 ! D23   D(7,3,4,6)           -169.9113         estimate D2E/DX2                !
 ! D24   D(7,3,4,10)             3.8412         estimate D2E/DX2                !
 ! D25   D(2,3,7,8)           -162.2007         estimate D2E/DX2                !
 ! D26   D(2,3,7,11)            -0.7628         estimate D2E/DX2                !
 ! D27   D(4,3,7,8)              2.7071         estimate D2E/DX2                !
 ! D28   D(4,3,7,11)           164.1451         estimate D2E/DX2                !
 ! D29   D(3,4,6,5)              4.3826         estimate D2E/DX2                !
 ! D30   D(3,4,6,39)          -178.145          estimate D2E/DX2                !
 ! D31   D(10,4,6,5)          -168.0916         estimate D2E/DX2                !
 ! D32   D(10,4,6,39)            9.3808         estimate D2E/DX2                !
 ! D33   D(3,4,10,9)            -5.8805         estimate D2E/DX2                !
 ! D34   D(3,4,10,40)          177.034          estimate D2E/DX2                !
 ! D35   D(6,4,10,9)           166.622          estimate D2E/DX2                !
 ! D36   D(6,4,10,40)          -10.4635         estimate D2E/DX2                !
 ! D37   D(1,5,6,4)              1.4905         estimate D2E/DX2                !
 ! D38   D(1,5,6,39)          -176.0078         estimate D2E/DX2                !
 ! D39   D(38,5,6,4)           178.2142         estimate D2E/DX2                !
 ! D40   D(38,5,6,39)            0.7159         estimate D2E/DX2                !
 ! D41   D(3,7,8,9)             -6.9228         estimate D2E/DX2                !
 ! D42   D(3,7,8,14)           167.3094         estimate D2E/DX2                !
 ! D43   D(11,7,8,9)          -164.5765         estimate D2E/DX2                !
 ! D44   D(11,7,8,14)            9.6558         estimate D2E/DX2                !
 ! D45   D(3,7,11,12)         -165.814          estimate D2E/DX2                !
 ! D46   D(3,7,11,18)           -0.1578         estimate D2E/DX2                !
 ! D47   D(8,7,11,12)           -6.2322         estimate D2E/DX2                !
 ! D48   D(8,7,11,18)          159.424          estimate D2E/DX2                !
 ! D49   D(7,8,9,10)             4.9523         estimate D2E/DX2                !
 ! D50   D(7,8,9,41)          -176.1748         estimate D2E/DX2                !
 ! D51   D(14,8,9,10)         -168.2291         estimate D2E/DX2                !
 ! D52   D(14,8,9,41)           10.6437         estimate D2E/DX2                !
 ! D53   D(7,8,14,13)            6.4774         estimate D2E/DX2                !
 ! D54   D(7,8,14,42)         -175.5977         estimate D2E/DX2                !
 ! D55   D(9,8,14,13)          179.6223         estimate D2E/DX2                !
 ! D56   D(9,8,14,42)           -2.4528         estimate D2E/DX2                !
 ! D57   D(8,9,10,4)             1.5454         estimate D2E/DX2                !
 ! D58   D(8,9,10,40)          178.6405         estimate D2E/DX2                !
 ! D59   D(41,9,10,4)         -177.3181         estimate D2E/DX2                !
 ! D60   D(41,9,10,40)          -0.223          estimate D2E/DX2                !
 ! D61   D(7,11,12,13)         -11.9882         estimate D2E/DX2                !
 ! D62   D(7,11,12,20)         171.0328         estimate D2E/DX2                !
 ! D63   D(18,11,12,13)       -174.0117         estimate D2E/DX2                !
 ! D64   D(18,11,12,20)          9.0094         estimate D2E/DX2                !
 ! D65   D(7,11,18,2)            1.0069         estimate D2E/DX2                !
 ! D66   D(7,11,18,17)        -171.4452         estimate D2E/DX2                !
 ! D67   D(12,11,18,2)         164.9474         estimate D2E/DX2                !
 ! D68   D(12,11,18,17)         -7.5047         estimate D2E/DX2                !
 ! D69   D(11,12,13,14)         25.9311         estimate D2E/DX2                !
 ! D70   D(11,12,13,19)        156.2037         estimate D2E/DX2                !
 ! D71   D(11,12,13,33)        -87.3216         estimate D2E/DX2                !
 ! D72   D(20,12,13,14)       -157.0214         estimate D2E/DX2                !
 ! D73   D(20,12,13,19)        -26.7488         estimate D2E/DX2                !
 ! D74   D(20,12,13,33)         89.7259         estimate D2E/DX2                !
 ! D75   D(11,12,20,21)       -172.8662         estimate D2E/DX2                !
 ! D76   D(11,12,20,27)          9.9057         estimate D2E/DX2                !
 ! D77   D(13,12,20,21)         10.4597         estimate D2E/DX2                !
 ! D78   D(13,12,20,27)       -166.7684         estimate D2E/DX2                !
 ! D79   D(12,13,14,8)         -24.293          estimate D2E/DX2                !
 ! D80   D(12,13,14,42)        157.6724         estimate D2E/DX2                !
 ! D81   D(19,13,14,8)        -155.1407         estimate D2E/DX2                !
 ! D82   D(19,13,14,42)         26.8246         estimate D2E/DX2                !
 ! D83   D(33,13,14,8)          87.5266         estimate D2E/DX2                !
 ! D84   D(33,13,14,42)        -90.508          estimate D2E/DX2                !
 ! D85   D(12,13,19,22)         19.1632         estimate D2E/DX2                !
 ! D86   D(12,13,19,43)       -159.9097         estimate D2E/DX2                !
 ! D87   D(14,13,19,22)        152.759          estimate D2E/DX2                !
 ! D88   D(14,13,19,43)        -26.314          estimate D2E/DX2                !
 ! D89   D(33,13,19,22)        -92.8376         estimate D2E/DX2                !
 ! D90   D(33,13,19,43)         88.0895         estimate D2E/DX2                !
 ! D91   D(1,15,16,17)           2.3881         estimate D2E/DX2                !
 ! D92   D(1,15,16,23)        -177.7937         estimate D2E/DX2                !
 ! D93   D(37,15,16,17)       -176.4223         estimate D2E/DX2                !
 ! D94   D(37,15,16,23)          3.3958         estimate D2E/DX2                !
 ! D95   D(15,16,17,18)         -4.8924         estimate D2E/DX2                !
 ! D96   D(15,16,17,26)        176.4196         estimate D2E/DX2                !
 ! D97   D(23,16,17,18)        175.2884         estimate D2E/DX2                !
 ! D98   D(23,16,17,26)         -3.3996         estimate D2E/DX2                !
 ! D99   D(15,16,23,24)        178.2391         estimate D2E/DX2                !
 ! D100  D(15,16,23,36)         -0.1956         estimate D2E/DX2                !
 ! D101  D(17,16,23,24)         -1.9334         estimate D2E/DX2                !
 ! D102  D(17,16,23,36)        179.632          estimate D2E/DX2                !
 ! D103  D(16,17,18,2)           1.4719         estimate D2E/DX2                !
 ! D104  D(16,17,18,11)        173.1592         estimate D2E/DX2                !
 ! D105  D(26,17,18,2)        -179.8646         estimate D2E/DX2                !
 ! D106  D(26,17,18,11)         -8.1773         estimate D2E/DX2                !
 ! D107  D(16,17,26,25)          7.6007         estimate D2E/DX2                !
 ! D108  D(16,17,26,27)       -173.7593         estimate D2E/DX2                !
 ! D109  D(18,17,26,25)       -170.9737         estimate D2E/DX2                !
 ! D110  D(18,17,26,27)          7.6663         estimate D2E/DX2                !
 ! D111  D(13,19,22,21)          3.6305         estimate D2E/DX2                !
 ! D112  D(13,19,22,44)       -179.2929         estimate D2E/DX2                !
 ! D113  D(43,19,22,21)       -177.3266         estimate D2E/DX2                !
 ! D114  D(43,19,22,44)         -0.25           estimate D2E/DX2                !
 ! D115  D(12,20,21,22)         13.2646         estimate D2E/DX2                !
 ! D116  D(12,20,21,45)        137.3805         estimate D2E/DX2                !
 ! D117  D(12,20,21,46)       -107.7454         estimate D2E/DX2                !
 ! D118  D(27,20,21,22)       -169.1511         estimate D2E/DX2                !
 ! D119  D(27,20,21,45)        -45.0352         estimate D2E/DX2                !
 ! D120  D(27,20,21,46)         69.8388         estimate D2E/DX2                !
 ! D121  D(12,20,27,26)        -24.3292         estimate D2E/DX2                !
 ! D122  D(12,20,27,28)        158.6537         estimate D2E/DX2                !
 ! D123  D(21,20,27,26)        158.3853         estimate D2E/DX2                !
 ! D124  D(21,20,27,28)        -18.6318         estimate D2E/DX2                !
 ! D125  D(20,21,22,19)        -21.2599         estimate D2E/DX2                !
 ! D126  D(20,21,22,44)        161.5594         estimate D2E/DX2                !
 ! D127  D(45,21,22,19)       -145.4187         estimate D2E/DX2                !
 ! D128  D(45,21,22,44)         37.4006         estimate D2E/DX2                !
 ! D129  D(46,21,22,19)        101.6841         estimate D2E/DX2                !
 ! D130  D(46,21,22,44)        -75.4966         estimate D2E/DX2                !
 ! D131  D(16,23,24,25)          2.662          estimate D2E/DX2                !
 ! D132  D(16,23,24,35)       -177.7718         estimate D2E/DX2                !
 ! D133  D(36,23,24,25)       -178.9361         estimate D2E/DX2                !
 ! D134  D(36,23,24,35)          0.6301         estimate D2E/DX2                !
 ! D135  D(23,24,25,26)          2.0326         estimate D2E/DX2                !
 ! D136  D(23,24,25,29)       -177.9316         estimate D2E/DX2                !
 ! D137  D(35,24,25,26)       -177.5463         estimate D2E/DX2                !
 ! D138  D(35,24,25,29)          2.4895         estimate D2E/DX2                !
 ! D139  D(24,25,26,17)         -6.9239         estimate D2E/DX2                !
 ! D140  D(24,25,26,27)        174.3266         estimate D2E/DX2                !
 ! D141  D(29,25,26,17)        173.0386         estimate D2E/DX2                !
 ! D142  D(29,25,26,27)         -5.7109         estimate D2E/DX2                !
 ! D143  D(24,25,29,30)        179.9232         estimate D2E/DX2                !
 ! D144  D(24,25,29,34)          0.8146         estimate D2E/DX2                !
 ! D145  D(26,25,29,30)         -0.0407         estimate D2E/DX2                !
 ! D146  D(26,25,29,34)       -179.1493         estimate D2E/DX2                !
 ! D147  D(17,26,27,20)         11.7911         estimate D2E/DX2                !
 ! D148  D(17,26,27,28)       -171.2365         estimate D2E/DX2                !
 ! D149  D(25,26,27,20)       -169.6037         estimate D2E/DX2                !
 ! D150  D(25,26,27,28)          7.3687         estimate D2E/DX2                !
 ! D151  D(20,27,28,30)        173.5429         estimate D2E/DX2                !
 ! D152  D(20,27,28,32)         -6.4885         estimate D2E/DX2                !
 ! D153  D(26,27,28,30)         -3.9401         estimate D2E/DX2                !
 ! D154  D(26,27,28,32)        176.0285         estimate D2E/DX2                !
 ! D155  D(27,28,30,29)         -1.727          estimate D2E/DX2                !
 ! D156  D(27,28,30,31)        179.6323         estimate D2E/DX2                !
 ! D157  D(32,28,30,29)        178.3034         estimate D2E/DX2                !
 ! D158  D(32,28,30,31)         -0.3372         estimate D2E/DX2                !
 ! D159  D(25,29,30,28)          3.8004         estimate D2E/DX2                !
 ! D160  D(25,29,30,31)       -177.5783         estimate D2E/DX2                !
 ! D161  D(34,29,30,28)       -177.1098         estimate D2E/DX2                !
 ! D162  D(34,29,30,31)          1.5115         estimate D2E/DX2                !
 --------------------------------------------------------------------------------
 Trust Radius=3.00D-01 FncErr=1.00D-07 GrdErr=1.00D-06 EigMax=2.50D+02 EigMin=1.00D-04
 Number of steps in this run=    276 maximum allowed number of steps=    276.
 GradGradGradGradGradGradGradGradGradGradGradGradGradGradGradGradGradGrad

                          Input orientation:                          
 ---------------------------------------------------------------------
 Center     Atomic      Atomic             Coordinates (Angstroms)
 Number     Number       Type             X           Y           Z
 ---------------------------------------------------------------------
      1          6           0        1.549798   -2.858428   -0.045198
      2          6           0        1.410968   -1.509011    0.278123
      3          6           0        2.507376   -0.646366    0.362103
      4          6           0        3.796945   -1.011933    0.057193
      5          6           0        2.905742   -3.298711   -0.240567
      6          6           0        3.977048   -2.412306   -0.206172
      7          6           0        2.019453    0.675590    0.464927
      8          6           0        2.884848    1.779166    0.185828
      9          6           0        4.290052    1.410723   -0.038997
     10          6           0        4.723009    0.114060   -0.084452
     11          6           0        0.633613    0.653674    0.429096
     12          6           0       -0.109172    1.837319    0.215691
     13          6           0        0.771228    3.118901    0.336218
     14          6           0        2.264819    2.978937    0.049099
     15          6           0        0.320263   -3.524320   -0.229226
     16          6           0       -0.900790   -2.827506   -0.157495
     17          6           0       -0.987789   -1.380684    0.057396
     18          6           0        0.226952   -0.751248    0.293286
     19          6           0        0.186675    4.281177   -0.417864
     20          6           0       -1.462355    1.882805   -0.008213
     21          6           0       -2.066140    3.235562   -0.383529
     22          6           0       -1.091757    4.306887   -0.769773
     23          6           0       -2.122331   -3.562855   -0.304847
     24          6           0       -3.315303   -2.938834   -0.207304
     25          6           0       -3.429980   -1.516136   -0.010160
     26          6           0       -2.266365   -0.679982    0.049819
     27          6           0       -2.453203    0.764725    0.125088
     28          6           0       -3.783844    1.200384    0.294637
     29          6           0       -4.724434   -0.989372    0.120463
     30          6           0       -4.893789    0.362099    0.312135
     31          1           0       -5.881659    0.785601    0.454439
     32          1           0       -3.981075    2.251629    0.422042
     33          1           0        0.718785    3.328251    1.420645
     34          1           0       -5.574103   -1.661821    0.082489
     35          1           0       -4.237336   -3.504938   -0.283529
     36          1           0       -2.068482   -4.633427   -0.470356
     37          1           0        0.288054   -4.586689   -0.450123
     38          1           0        3.098736   -4.340785   -0.473413
     39          1           0        4.970014   -2.792047   -0.425508
     40          1           0        5.772931   -0.082849   -0.276856
     41          1           0        5.008527    2.209422   -0.192921
     42          1           0        2.798644    3.881152   -0.232249
     43          1           0        0.853019    5.097119   -0.680017
     44          1           0       -1.492080    5.150544   -1.324145
     45          1           0       -2.790867    3.097416   -1.192885
     46          1           0       -2.652341    3.635521    0.458570
 ---------------------------------------------------------------------
                    Distance matrix (angstroms):
                    1          2          3          4          5
     1  C    0.000000
     2  C    1.394538   0.000000
     3  C    2.444600   1.397612   0.000000
     4  C    2.910274   2.447199   1.374626   0.000000
     5  C    1.438959   2.388810   2.748971   2.472298   0.000000
     6  C    2.473152   2.763196   2.366731   1.436260   1.390897
     7  C    3.601401   2.275441   1.412873   2.484645   4.132590
     8  C    4.831460   3.604573   2.461049   2.939167   5.095791
     9  C    5.072936   4.112729   2.751441   2.474201   4.912811
    10  C    4.348160   3.706135   2.384678   1.464759   3.869604
    11  C    3.660493   2.303102   2.281574   3.594333   4.607859
    12  C    4.987012   3.675955   3.610603   4.837469   5.972996
    13  C    6.039877   4.672281   4.146338   5.128022   6.787825
    14  C    5.881749   4.574187   3.646865   4.274871   6.316926
    15  C    1.410331   2.347022   3.662752   4.299005   2.595328
    16  C    2.453355   2.696742   4.079577   5.040943   3.836485
    17  C    2.938299   2.412307   3.584445   4.798922   4.350539
    18  C    2.510916   1.405820   2.283872   3.587276   3.735034
    19  C    7.278114   5.958991   5.502243   6.424698   8.054779
    20  C    5.617270   4.454480   4.721504   6.003667   6.781030
    21  C    7.094095   5.919378   6.045029   7.253359   8.211990
    22  C    7.671021   6.417662   6.226525   7.271391   8.608436
    23  C    3.748088   4.128236   5.512252   6.455703   5.035417
    24  C    4.868465   4.961620   6.283568   7.373397   6.231534
    25  C    5.157632   4.849529   6.012260   7.244805   6.585745
    26  C    4.395197   3.776531   4.784063   6.072394   5.804546
    27  C    5.401875   4.486102   5.162819   6.498113   6.735244
    28  C    6.710975   5.858939   6.557018   7.900575   8.079533
    29  C    6.548802   6.159386   7.243971   8.521644   7.980161
    30  C    7.212440   6.576638   7.469722   8.802376   8.633637
    31  H    8.291872   7.647139   8.510873   9.852122   9.715094
    32  H    7.544637   6.575504   7.106473   8.442840   8.869812
    33  H    6.412041   5.018324   4.485215   5.492838   7.173495
    34  H    7.224828   6.989481   8.149824   9.393590   8.642427
    35  H    5.828010   6.016853   7.353871   8.419076   7.146184
    36  H    4.052571   4.735902   6.126020   6.913520   5.155305
    37  H    2.177808   3.356096   4.594698   5.034736   2.924909
    38  H    2.186312   3.381170   3.833605   3.442426   1.085072
    39  H    3.441935   3.848128   3.359890   2.185840   2.133572
    40  H    5.058889   4.622625   3.374858   2.208915   4.308580
    41  H    6.137404   5.195292   3.836578   3.450741   5.896058
    42  H    6.856861   5.589274   4.575643   5.002266   7.180667
    43  H    8.011194   6.698529   6.067168   6.821341   8.654291
    44  H    8.662122   7.439397   7.241771   8.237597   9.586704
    45  H    7.458595   6.406126   6.671227   7.864395   8.617929
    46  H    7.751331   6.558144   6.705710   7.959474   8.914295
                    6          7          8          9         10
     6  C    0.000000
     7  C    3.717210   0.000000
     8  C    4.349138   1.429925   0.000000
     9  C    3.839462   2.439258   1.469998   0.000000
    10  C    2.637006   2.815377   2.494888   1.367791   0.000000
    11  C    4.580650   1.386476   2.528630   3.763214   4.156690
    12  C    5.910539   2.437781   2.994734   4.427191   5.139035
    13  C    6.416052   2.746707   2.506970   3.929476   4.982229
    14  C    5.662366   2.353407   1.357417   2.562933   3.777308
    15  C    3.822196   4.583485   5.905618   6.336408   5.713400
    16  C    4.895719   4.602924   5.972466   6.702348   6.347067
    17  C    5.077728   3.665767   4.999846   5.971336   5.904879
    18  C    4.131803   2.297474   3.671369   4.614468   4.594124
    19  C    7.695093   4.139886   3.728893   5.022026   6.168821
    20  C    6.933561   3.715403   4.352765   5.771828   6.433739
    21  C    8.273451   4.895447   5.192065   6.621927   7.478353
    22  C    8.435519   4.938667   4.807903   6.155133   7.201456
    23  C    6.207731   5.975897   7.338242   8.119471   7.773478
    24  C    7.311335   6.478856   7.801022   8.762899   8.599402
    25  C    7.463619   5.892851   7.125621   8.256284   8.314703
    26  C    6.484341   4.514214   5.709720   6.882263   7.035615
    27  C    7.179929   4.486434   5.433928   6.776114   7.208695
    28  C    8.575184   5.829465   6.694646   8.083523   8.584309
    29  C    8.823107   6.954909   8.097546   9.329890   9.513870
    30  C    9.309013   6.922033   7.907669   9.250181   9.628167
    31  H   10.385428   7.901885   8.826719  10.202841  10.639566
    32  H    9.245467   6.204198   6.886212   8.326537   8.977016
    33  H    6.798294   3.105116   2.935348   4.308296   5.350715
    34  H    9.584938   7.954360   9.132630  10.332320  10.450461
    35  H    8.287094   7.562037   8.880741   9.845804   9.665638
    36  H    6.446053   6.765473   8.129416   8.783438   8.295294
    37  H    4.289071   5.614859   6.904483   7.221770   6.472989
    38  H    2.135856   5.216258   6.159070   5.889635   4.757646
    39  H    1.085492   4.639309   5.061387   4.274929   2.936459
    40  H    2.942204   3.900522   3.467304   2.118080   1.085416
    41  H    4.735451   3.423444   2.199678   1.085274   2.117505
    42  H    6.402884   3.371768   2.144893   2.892173   4.232730
    43  H    8.147119   4.713956   3.985828   5.080710   6.337381
    44  H    9.399890   5.962957   5.727452   7.005064   8.095081
    45  H    8.782671   5.634959   5.987685   7.369926   8.160108
    46  H    8.998160   5.530542   5.846444   7.307128   8.190931
                   11         12         13         14         15
    11  C    0.000000
    12  C    1.413608   0.000000
    13  C    2.470811   1.559514   0.000000
    14  C    2.865672   2.639484   1.527364   0.000000
    15  C    4.241133   5.397179   6.682476   6.793461   0.000000
    16  C    3.849298   4.746211   6.196705   6.616535   1.407716
    17  C    2.627873   3.339546   4.839230   5.439285   2.527514
    18  C    1.468885   2.611452   3.908469   4.257559   2.823412
    19  C    3.751783   2.541920   1.503738   2.496511   7.808919
    20  C    2.468822   1.372336   2.575938   3.885436   5.697681
    21  C    3.822979   2.478683   2.929557   4.360072   7.170407
    22  C    4.214280   2.834674   2.470878   3.701433   7.975826
    23  C    5.090483   5.786679   7.309549   7.884631   2.444068
    24  C    5.376342   5.768001   7.327435   8.137783   3.682474
    25  C    4.627506   4.724874   6.265277   7.255338   4.259708
    26  C    3.214399   3.319307   4.872423   5.824029   3.854707
    27  C    3.103737   2.579370   3.997959   5.212316   5.119918
    28  C    4.453190   3.730299   4.942784   6.309506   6.280203
    29  C    5.612800   5.412938   6.864893   8.037551   5.656608
    30  C    5.536323   5.007807   6.300235   7.626447   6.525616
    31  H    6.516657   5.872369   7.051182   8.446308   7.583314
    32  H    4.883529   3.899470   4.831554   6.299147   7.230992
    33  H    2.853732   2.088134   1.105694   2.096039   7.059648
    34  H    6.634560   6.490547   7.948768   9.109690   6.189476
    35  H    6.444225   6.769835   8.327367   9.188542   4.557964
    36  H    6.005312   6.795595   8.295366   8.774703   2.644686
    37  H    5.324833   6.470624   7.760664   7.835529   1.085569
    38  H    5.642338   6.995320   7.856189   7.385578   2.906227
    39  H    5.604259   6.902195   7.290359   6.391212   4.711150
    40  H    5.239601   6.207156   5.970268   4.667722   6.448068
    41  H    4.684776   5.147453   4.365987   2.859836   7.406547
    42  H    3.942252   3.582359   2.239330   1.085411   7.809187
    43  H    4.585027   3.514883   2.225482   2.647921   8.649639
    44  H    5.273923   3.906532   3.465103   4.551480   8.929541
    45  H    4.508854   3.280765   3.876485   5.207353   7.379374
    46  H    4.437316   3.124137   3.464490   4.977673   7.782850
                   16         17         18         19         20
    16  C    0.000000
    17  C    1.465278   0.000000
    18  C    2.405380   1.388319   0.000000
    19  C    7.196092   5.801888   5.082584   0.000000
    20  C    4.746016   3.298466   3.143707   2.939269   0.000000
    21  C    6.178181   4.760985   4.648764   2.483881   1.528192
    22  C    7.163164   5.748346   5.334212   1.326231   2.567779
    23  C    1.433392   2.486016   3.712415   8.177599   5.493521
    24  C    2.417591   2.813400   4.193291   8.027250   5.169261
    25  C    2.852753   2.446877   3.748371   6.845090   3.927385
    26  C    2.553357   1.458011   2.506189   5.554208   2.686573
    27  C    3.923514   2.599000   3.083779   4.430484   1.499884
    28  C    4.973964   3.812626   4.460421   5.075822   2.438591
    29  C    4.251617   3.757608   4.960120   7.224090   4.348232
    30  C    5.132073   4.284743   5.240409   6.457800   3.766950
    31  H    6.183693   5.366600   6.301032   7.057240   4.576915
    32  H    5.968386   4.720850   5.171203   4.711120   2.581686
    33  H    6.557964   5.190849   4.260886   2.138066   2.981329
    34  H    4.822475   4.594991   5.875867   8.291932   5.429463
    35  H    3.406954   3.897209   5.276873   8.956199   6.066638
    36  H    2.173186   3.467961   4.574219   9.195578   6.560659
    37  H    2.143293   3.487667   3.907301   8.868504   6.716664
    38  H    4.287893   5.073819   4.660445   9.100627   7.730009
    39  H    5.877025   6.141706   5.213268   8.538787   7.962647
    40  H    7.217059   6.892274   5.615132   7.090195   7.502355
    41  H    7.764788   6.993377   5.644947   5.252906   6.481752
    42  H    7.661429   6.489059   5.324370   2.648935   4.711655
    43  H    8.133176   6.774532   5.961768   1.085587   4.017971
    44  H    8.084552   6.694767   6.356281   2.096512   3.522879
    45  H    6.304691   4.986750   5.111570   3.296620   2.154918
    46  H    6.724447   5.300376   5.249894   3.040562   2.169324
                   21         22         23         24         25
    21  C    0.000000
    22  C    1.498781   0.000000
    23  C    6.799104   7.950539   0.000000
    24  C    6.301954   7.600066   1.349851   0.000000
    25  C    4.957630   6.320751   2.446599   1.440863   0.000000
    26  C    3.944536   5.188477   2.908176   2.503756   1.434138
    27  C    2.552165   3.898875   4.361453   3.817074   2.484897
    28  C    2.748157   4.246253   5.080202   4.195784   2.756375
    29  C    5.017031   6.483766   3.684378   2.427650   1.403622
    30  C    4.091007   5.584561   4.844266   3.695618   2.402993
    31  H    4.611148   6.069704   5.798115   4.571160   3.394786
    32  H    2.298705   3.740677   6.147481   5.270696   3.832304
    33  H    3.319555   3.005615   7.650922   7.628921   6.536631
    34  H    6.042130   7.512872   3.959632   2.610923   2.151063
    35  H    7.082262   8.435384   2.115905   1.084633   2.163767
    36  H    7.869468   8.998492   1.084628   2.120237   3.432632
    37  H    8.169105   9.005651   2.622841   3.969706   4.842070
    38  H    9.169790   9.614067   5.281395   6.570858   7.128631
    39  H    9.265058   9.341223   7.135129   8.289490   8.506489
    40  H    8.513182   8.163130   8.628232   9.526672   9.317672
    41  H    7.151238   6.476541   9.175012   9.787282   9.226136
    42  H    4.909765   3.950367   8.923817   9.159322   8.244744
    43  H    3.474880   2.101113   9.164530   9.065038   7.907460
    44  H    2.209402   1.085976   8.795425   8.367169   7.065878
    45  H    1.095158   2.128102   6.752389   6.138625   4.805431
    46  H    1.101240   2.096421   7.258122   6.641163   5.231061
                   26         27         28         29         30
    26  C    0.000000
    27  C    1.458682   0.000000
    28  C    2.428673   1.410373   0.000000
    29  C    2.478470   2.869733   2.389577   0.000000
    30  C    2.838679   2.480636   1.391045   1.375461   0.000000
    31  H    3.921989   3.444302   2.144390   2.145050   1.084201
    32  H    3.416595   2.152547   1.077148   3.338805   2.101297
    33  H    5.182298   4.279210   5.105818   7.068308   6.444210
    34  H    3.450537   3.953474   3.382640   1.084236   2.147514
    35  H    3.460668   4.645441   4.762351   2.593944   3.967332
    36  H    3.992426   5.444503   6.128706   4.547778   5.792230
    37  H    4.694396   6.040115   7.115141   6.196071   7.205764
    38  H    6.516100   7.566271   8.869293   8.531509   9.306700
    39  H    7.553273   8.249723   9.648220   9.875730  10.382069
    40  H    8.068058   8.279446   9.659464  10.543923  10.692231
    41  H    7.831451   7.606950   8.863501  10.249928  10.085809
    42  H    6.821864   6.117328   7.126940   8.969008   8.476651
    43  H    6.605915   5.508987   6.134737   8.294222   7.512029
    44  H    6.040060   4.717991   4.845245   7.087565   6.097396
    45  H    4.011004   2.700466   2.607193   4.708014   3.764216
    46  H    4.351967   2.896953   2.690179   5.079126   3.969990
                   31         32         33         34         35
    31  H    0.000000
    32  H    2.400522   0.000000
    33  H    7.138941   4.923922   0.000000
    34  H    2.494556   4.238883   8.141985   0.000000
    35  H    4.653721   5.805305   8.611609   2.306078   0.000000
    36  H    6.690398   7.201276   8.644828   4.628764   2.452003
    37  H    8.230741   8.108559   8.144420   6.572930   4.655867
    38  H   10.382111   9.715219   8.250196   9.094175   7.385976
    39  H   11.460047  10.309171   7.677192  10.616679   9.235998
    40  H   11.709759  10.053799   6.329416  11.462001  10.579045
    41  H   11.001931   9.010711   4.717760  11.271842  10.869595
    42  H    9.241301   7.003430   2.713590  10.046218  10.201077
    43  H    8.076637   5.716626   2.749490   9.358022  10.003215
    44  H    6.440846   4.200949   3.967688   8.065349   9.139840
    45  H    4.196565   2.177140   4.381949   5.658915   6.819845
    46  H    4.307036   1.918860   3.519161   6.061350   7.351808
                   36         37         38         39         40
    36  H    0.000000
    37  H    2.357086   0.000000
    38  H    5.175499   2.821515   0.000000
    39  H    7.275515   5.014189   2.429520   0.000000
    40  H    9.068239   7.099188   5.031896   2.829581   0.000000
    41  H    9.848127   8.278656   6.828703   5.007022   2.417822
    42  H    9.810386   8.834866   8.230945   7.020241   4.955974
    43  H   10.161823   9.702998   9.703606   8.902436   7.155427
    44  H    9.838053   9.937127  10.577555  10.278665   9.014744
    45  H    7.798065   8.311253   9.514825   9.772713   9.181058
    46  H    8.341420   8.779316   9.877496  10.009771   9.238633
                   41         42         43         44         45
    41  H    0.000000
    42  H    2.771247   0.000000
    43  H    5.083729   2.337633   0.000000
    44  H    7.224109   4.605856   2.432539   0.000000
    45  H    7.913217   5.725356   4.188049   2.432984   0.000000
    46  H    7.819661   5.500073   3.964870   2.611431   1.742426
                   46
    46  H    0.000000
 Stoichiometry    C30H16
 Framework group  C1[X(C30H16)]
 Deg. of freedom   132
 Full point group                 C1      NOp   1
 Largest Abelian subgroup         C1      NOp   1
 Largest concise Abelian subgroup C1      NOp   1
                         Standard orientation:                         
 ---------------------------------------------------------------------
 Center     Atomic      Atomic             Coordinates (Angstroms)
 Number     Number       Type             X           Y           Z
 ---------------------------------------------------------------------
      1          6           0       -1.549798   -2.858428    0.045198
      2          6           0       -1.410968   -1.509011   -0.278123
      3          6           0       -2.507376   -0.646366   -0.362103
      4          6           0       -3.796945   -1.011933   -0.057193
      5          6           0       -2.905742   -3.298711    0.240567
      6          6           0       -3.977048   -2.412306    0.206172
      7          6           0       -2.019453    0.675590   -0.464927
      8          6           0       -2.884848    1.779166   -0.185828
      9          6           0       -4.290052    1.410723    0.038997
     10          6           0       -4.723009    0.114060    0.084452
     11          6           0       -0.633613    0.653674   -0.429096
     12          6           0        0.109172    1.837319   -0.215691
     13          6           0       -0.771228    3.118901   -0.336218
     14          6           0       -2.264819    2.978937   -0.049099
     15          6           0       -0.320263   -3.524320    0.229226
     16          6           0        0.900790   -2.827506    0.157495
     17          6           0        0.987789   -1.380684   -0.057396
     18          6           0       -0.226952   -0.751248   -0.293286
     19          6           0       -0.186675    4.281177    0.417864
     20          6           0        1.462355    1.882805    0.008213
     21          6           0        2.066140    3.235562    0.383529
     22          6           0        1.091757    4.306887    0.769773
     23          6           0        2.122331   -3.562855    0.304847
     24          6           0        3.315303   -2.938834    0.207304
     25          6           0        3.429980   -1.516136    0.010160
     26          6           0        2.266365   -0.679982   -0.049819
     27          6           0        2.453203    0.764725   -0.125088
     28          6           0        3.783844    1.200384   -0.294637
     29          6           0        4.724434   -0.989372   -0.120463
     30          6           0        4.893789    0.362099   -0.312135
     31          1           0        5.881659    0.785601   -0.454439
     32          1           0        3.981075    2.251629   -0.422042
     33          1           0       -0.718785    3.328251   -1.420645
     34          1           0        5.574103   -1.661821   -0.082489
     35          1           0        4.237336   -3.504938    0.283529
     36          1           0        2.068482   -4.633427    0.470356
     37          1           0       -0.288054   -4.586689    0.450123
     38          1           0       -3.098736   -4.340785    0.473413
     39          1           0       -4.970014   -2.792047    0.425508
     40          1           0       -5.772931   -0.082849    0.276856
     41          1           0       -5.008527    2.209422    0.192921
     42          1           0       -2.798644    3.881152    0.232249
     43          1           0       -0.853019    5.097119    0.680017
     44          1           0        1.492080    5.150544    1.324145
     45          1           0        2.790867    3.097416    1.192885
     46          1           0        2.652341    3.635521   -0.458570
 ---------------------------------------------------------------------
 Rotational constants (GHZ):           0.2378648           0.1763232           0.1027265
 Standard basis: 6-311+G(d,p) (5D, 7F)
 There are   786 symmetry adapted cartesian basis functions of A   symmetry.
 There are   756 symmetry adapted basis functions of A   symmetry.
   756 basis functions,  1208 primitive gaussians,   786 cartesian basis functions
    98 alpha electrons       98 beta electrons
       nuclear repulsion energy      2624.8288588297 Hartrees.
 NAtoms=   46 NActive=   46 NUniq=   46 SFac= 1.00D+00 NAtFMM=   60 NAOKFM=F Big=F
 Integral buffers will be    131072 words long.
 Raffenetti 2 integral format.
 Two-electron integral symmetry is turned on.
 One-electron integrals computed using PRISM.
 NBasis=   756 RedAO= T EigKep=  1.42D-06  NBF=   756
 NBsUse=   734 1.00D-06 EigRej=  9.75D-07 NBFU=   734
 ExpMin= 4.38D-02 ExpMax= 4.56D+03 ExpMxC= 6.82D+02 IAcc=2 IRadAn=         4 AccDes= 0.00D+00
 Harris functional with IExCor=  402 and IRadAn=       4 diagonalized for initial guess.
 HarFok:  IExCor=  402 AccDes= 0.00D+00 IRadAn=         4 IDoV= 1 UseB2=F ITyADJ=14
 ICtDFT=  3500011 ScaDFX=  1.000000  1.000000  1.000000  1.000000
 FoFCou: FMM=F IPFlag=           0 FMFlag=      100000 FMFlg1=           0
         NFxFlg=           0 DoJE=T BraDBF=F KetDBF=T FulRan=T
         wScrn=  0.000000 ICntrl=       500 IOpCl=  0 I1Cent=   200000004 NGrid=           0
         NMat0=    1 NMatS0=      1 NMatT0=    0 NMatD0=    1 NMtDS0=    0 NMtDT0=    0
 Petite list used in FoFCou.
 Requested convergence on RMS density matrix=1.00D-08 within 128 cycles.
 Requested convergence on MAX density matrix=1.00D-06.
 Requested convergence on             energy=1.00D-06.
 No special actions if energy rises.
 SCF Done:  E(RB3LYP) =  -1153.06025341     A.U. after   17 cycles
            NFock= 17  Conv=0.79D-08     -V/T= 2.0045

 **********************************************************************

            Population analysis using the SCF Density.

 **********************************************************************

 Orbital symmetries:
       Occupied  (A) (A) (A) (A) (A) (A) (A) (A) (A) (A) (A) (A)
                 (A) (A) (A) (A) (A) (A) (A) (A) (A) (A) (A) (A)
                 (A) (A) (A) (A) (A) (A) (A) (A) (A) (A) (A) (A)
                 (A) (A) (A) (A) (A) (A) (A) (A) (A) (A) (A) (A)
                 (A) (A) (A) (A) (A) (A) (A) (A) (A) (A) (A) (A)
                 (A) (A) (A) (A) (A) (A) (A) (A) (A) (A) (A) (A)
                 (A) (A) (A) (A) (A) (A) (A) (A) (A) (A) (A) (A)
                 (A) (A) (A) (A) (A) (A) (A) (A) (A) (A) (A) (A)
                 (A) (A)
       Virtual   (A) (A) (A) (A) (A) (A) (A) (A) (A) (A) (A) (A)
                 (A) (A) (A) (A) (A) (A) (A) (A) (A) (A) (A) (A)
                 (A) (A) (A) (A) (A) (A) (A) (A) (A) (A) (A) (A)
                 (A) (A) (A) (A) (A) (A) (A) (A) (A) (A) (A) (A)
                 (A) (A) (A) (A) (A) (A) (A) (A) (A) (A) (A) (A)
                 (A) (A) (A) (A) (A) (A) (A) (A) (A) (A) (A) (A)
                 (A) (A) (A) (A) (A) (A) (A) (A) (A) (A) (A) (A)
                 (A) (A) (A) (A) (A) (A) (A) (A) (A) (A) (A) (A)
                 (A) (A) (A) (A) (A) (A) (A) (A) (A) (A) (A) (A)
                 (A) (A) (A) (A) (A) (A) (A) (A) (A) (A) (A) (A)
                 (A) (A) (A) (A) (A) (A) (A) (A) (A) (A) (A) (A)
                 (A) (A) (A) (A) (A) (A) (A) (A) (A) (A) (A) (A)
                 (A) (A) (A) (A) (A) (A) (A) (A) (A) (A) (A) (A)
                 (A) (A) (A) (A) (A) (A) (A) (A) (A) (A) (A) (A)
                 (A) (A) (A) (A) (A) (A) (A) (A) (A) (A) (A) (A)
                 (A) (A) (A) (A) (A) (A) (A) (A) (A) (A) (A) (A)
                 (A) (A) (A) (A) (A) (A) (A) (A) (A) (A) (A) (A)
                 (A) (A) (A) (A) (A) (A) (A) (A) (A) (A) (A) (A)
                 (A) (A) (A) (A) (A) (A) (A) (A) (A) (A) (A) (A)
                 (A) (A) (A) (A) (A) (A) (A) (A) (A) (A) (A) (A)
                 (A) (A) (A) (A) (A) (A) (A) (A) (A) (A) (A) (A)
                 (A) (A) (A) (A) (A) (A) (A) (A) (A) (A) (A) (A)
                 (A) (A) (A) (A) (A) (A) (A) (A) (A) (A) (A) (A)
                 (A) (A) (A) (A) (A) (A) (A) (A) (A) (A) (A) (A)
                 (A) (A) (A) (A) (A) (A) (A) (A) (A) (A) (A) (A)
                 (A) (A) (A) (A) (A) (A) (A) (A) (A) (A) (A) (A)
                 (A) (A) (A) (A) (A) (A) (A) (A) (A) (A) (A) (A)
                 (A) (A) (A) (A) (A) (A) (A) (A) (A) (A) (A) (A)
                 (A) (A) (A) (A) (A) (A) (A) (A) (A) (A) (A) (A)
                 (A) (A) (A) (A) (A) (A) (A) (A) (A) (A) (A) (A)
                 (A) (A) (A) (A) (A) (A) (A) (A) (A) (A) (A) (A)
                 (A) (A) (A) (A) (A) (A) (A) (A) (A) (A) (A) (A)
                 (A) (A) (A) (A) (A) (A) (A) (A) (A) (A) (A) (A)
                 (A) (A) (A) (A) (A) (A) (A) (A) (A) (A) (A) (A)
                 (A) (A) (A) (A) (A) (A) (A) (A) (A) (A) (A) (A)
                 (A) (A) (A) (A) (A) (A) (A) (A) (A) (A) (A) (A)
                 (A) (A) (A) (A) (A) (A) (A) (A) (A) (A) (A) (A)
                 (A) (A) (A) (A) (A) (A) (A) (A) (A) (A) (A) (A)
                 (A) (A) (A) (A) (A) (A) (A) (A) (A) (A) (A) (A)
                 (A) (A) (A) (A) (A) (A) (A) (A) (A) (A) (A) (A)
                 (A) (A) (A) (A) (A) (A) (A) (A) (A) (A) (A) (A)
                 (A) (A) (A) (A) (A) (A) (A) (A) (A) (A) (A) (A)
                 (A) (A) (A) (A) (A) (A) (A) (A) (A) (A) (A) (A)
                 (A) (A) (A) (A) (A) (A) (A) (A) (A) (A) (A) (A)
                 (A) (A) (A) (A) (A) (A) (A) (A) (A) (A) (A) (A)
                 (A) (A) (A) (A) (A) (A) (A) (A) (A) (A) (A) (A)
                 (A) (A) (A) (A) (A) (A) (A) (A) (A) (A) (A) (A)
                 (A) (A) (A) (A) (A) (A) (A) (A) (A) (A) (A) (A)
                 (A) (A) (A) (A) (A) (A) (A) (A) (A) (A) (A) (A)
                 (A) (A) (A) (A) (A) (A) (A) (A) (A) (A) (A) (A)
                 (A) (A) (A) (A) (A) (A) (A) (A) (A) (A) (A) (A)
                 (A) (A) (A) (A) (A) (A) (A) (A) (A) (A) (A) (A)
                 (A) (A) (A) (A) (A) (A) (A) (A) (A) (A) (A) (A)
 The electronic state is 1-A.
 Alpha  occ. eigenvalues --  -10.20761 -10.20468 -10.20394 -10.20174 -10.19751
 Alpha  occ. eigenvalues --  -10.19735 -10.19540 -10.19475 -10.19346 -10.19080
 Alpha  occ. eigenvalues --  -10.19068 -10.19057 -10.19010 -10.19001 -10.18955
 Alpha  occ. eigenvalues --  -10.18892 -10.18653 -10.18343 -10.18333 -10.18146
 Alpha  occ. eigenvalues --  -10.18097 -10.18090 -10.17997 -10.17980 -10.17781
 Alpha  occ. eigenvalues --  -10.17504 -10.17406 -10.16672 -10.16603 -10.16234
 Alpha  occ. eigenvalues --   -0.91922  -0.88644  -0.87341  -0.85070  -0.83842
 Alpha  occ. eigenvalues --   -0.83150  -0.80193  -0.79704  -0.78068  -0.77268
 Alpha  occ. eigenvalues --   -0.75226  -0.74627  -0.72648  -0.71327  -0.70740
 Alpha  occ. eigenvalues --   -0.66554  -0.65421  -0.64517  -0.63253  -0.62061
 Alpha  occ. eigenvalues --   -0.59835  -0.59259  -0.58490  -0.56735  -0.55485
 Alpha  occ. eigenvalues --   -0.52441  -0.51797  -0.51358  -0.50688  -0.49499
 Alpha  occ. eigenvalues --   -0.49311  -0.47572  -0.47067  -0.46200  -0.45647
 Alpha  occ. eigenvalues --   -0.45323  -0.44687  -0.43983  -0.43387  -0.42669
 Alpha  occ. eigenvalues --   -0.42463  -0.42246  -0.41641  -0.41060  -0.40304
 Alpha  occ. eigenvalues --   -0.40137  -0.39630  -0.39388  -0.38748  -0.37161
 Alpha  occ. eigenvalues --   -0.36439  -0.36015  -0.35463  -0.35054  -0.34509
 Alpha  occ. eigenvalues --   -0.33965  -0.33456  -0.32890  -0.32210  -0.30143
 Alpha  occ. eigenvalues --   -0.29901  -0.28796  -0.26627  -0.25415  -0.24632
 Alpha  occ. eigenvalues --   -0.23649  -0.20910  -0.18014
 Alpha virt. eigenvalues --   -0.10229  -0.06483  -0.04314  -0.03430  -0.01486
 Alpha virt. eigenvalues --   -0.00170   0.00255   0.00530   0.00633   0.01513
 Alpha virt. eigenvalues --    0.01580   0.01589   0.02185   0.02379   0.02878
 Alpha virt. eigenvalues --    0.03023   0.03546   0.04030   0.04290   0.04756
 Alpha virt. eigenvalues --    0.04834   0.05208   0.05483   0.05932   0.06428
 Alpha virt. eigenvalues --    0.06734   0.07220   0.07285   0.07718   0.08386
 Alpha virt. eigenvalues --    0.08430   0.08644   0.09064   0.09305   0.09479
 Alpha virt. eigenvalues --    0.09844   0.10008   0.10299   0.11280   0.11478
 Alpha virt. eigenvalues --    0.11887   0.12170   0.12246   0.12578   0.12933
 Alpha virt. eigenvalues --    0.13160   0.13982   0.14066   0.14327   0.14752
 Alpha virt. eigenvalues --    0.14979   0.15343   0.15531   0.15767   0.15939
 Alpha virt. eigenvalues --    0.16100   0.16312   0.16614   0.16690   0.16765
 Alpha virt. eigenvalues --    0.17139   0.17376   0.17424   0.17702   0.18167
 Alpha virt. eigenvalues --    0.18529   0.18701   0.18993   0.19115   0.19288
 Alpha virt. eigenvalues --    0.19386   0.19620   0.19875   0.19981   0.20087
 Alpha virt. eigenvalues --    0.20247   0.20460   0.20816   0.21226   0.21305
 Alpha virt. eigenvalues --    0.21375   0.21660   0.21767   0.21899   0.22319
 Alpha virt. eigenvalues --    0.22433   0.22915   0.23280   0.23390   0.23440
 Alpha virt. eigenvalues --    0.23604   0.23671   0.24292   0.24359   0.24653
 Alpha virt. eigenvalues --    0.25054   0.25162   0.25415   0.25784   0.25944
 Alpha virt. eigenvalues --    0.26057   0.26393   0.26529   0.27016   0.27151
 Alpha virt. eigenvalues --    0.27424   0.27537   0.27579   0.27873   0.28160
 Alpha virt. eigenvalues --    0.28434   0.28873   0.29261   0.29589   0.29959
 Alpha virt. eigenvalues --    0.30222   0.30482   0.30701   0.30888   0.31515
 Alpha virt. eigenvalues --    0.31835   0.32080   0.32264   0.32446   0.32566
 Alpha virt. eigenvalues --    0.33161   0.33360   0.33870   0.33959   0.34449
 Alpha virt. eigenvalues --    0.34853   0.35386   0.35546   0.35948   0.36239
 Alpha virt. eigenvalues --    0.36492   0.37302   0.37549   0.38032   0.38448
 Alpha virt. eigenvalues --    0.38698   0.38902   0.39203   0.39868   0.40529
 Alpha virt. eigenvalues --    0.40641   0.41071   0.41642   0.42822   0.42908
 Alpha virt. eigenvalues --    0.43803   0.44296   0.45029   0.45260   0.45856
 Alpha virt. eigenvalues --    0.47518   0.47980   0.48265   0.48486   0.49307
 Alpha virt. eigenvalues --    0.49502   0.50590   0.51565   0.52019   0.52439
 Alpha virt. eigenvalues --    0.52544   0.53191   0.53291   0.53600   0.54234
 Alpha virt. eigenvalues --    0.54675   0.55108   0.55459   0.55789   0.56209
 Alpha virt. eigenvalues --    0.56795   0.56946   0.57194   0.57232   0.58383
 Alpha virt. eigenvalues --    0.58558   0.58862   0.59131   0.59749   0.59815
 Alpha virt. eigenvalues --    0.60520   0.60727   0.60855   0.61298   0.61491
 Alpha virt. eigenvalues --    0.61987   0.62386   0.62525   0.63194   0.63964
 Alpha virt. eigenvalues --    0.64315   0.64956   0.65719   0.65912   0.66248
 Alpha virt. eigenvalues --    0.66508   0.67022   0.67663   0.67910   0.68245
 Alpha virt. eigenvalues --    0.68581   0.68774   0.69094   0.69345   0.69723
 Alpha virt. eigenvalues --    0.70035   0.70443   0.70820   0.71501   0.71717
 Alpha virt. eigenvalues --    0.71744   0.72160   0.72360   0.72616   0.73689
 Alpha virt. eigenvalues --    0.73739   0.74016   0.74438   0.74831   0.75106
 Alpha virt. eigenvalues --    0.75569   0.75746   0.76120   0.76318   0.76865
 Alpha virt. eigenvalues --    0.77217   0.78039   0.78435   0.78853   0.79716
 Alpha virt. eigenvalues --    0.79840   0.80142   0.81664   0.82596   0.83122
 Alpha virt. eigenvalues --    0.84017   0.84875   0.85122   0.85939   0.86345
 Alpha virt. eigenvalues --    0.86638   0.87056   0.87843   0.88177   0.88796
 Alpha virt. eigenvalues --    0.89292   0.89768   0.90249   0.90563   0.90850
 Alpha virt. eigenvalues --    0.91455   0.91822   0.91950   0.92916   0.93435
 Alpha virt. eigenvalues --    0.93946   0.94193   0.94357   0.94960   0.95170
 Alpha virt. eigenvalues --    0.95392   0.95664   0.96466   0.97080   0.97211
 Alpha virt. eigenvalues --    0.97699   0.98036   0.98221   0.99267   0.99350
 Alpha virt. eigenvalues --    1.00709   1.00890   1.01324   1.01925   1.02517
 Alpha virt. eigenvalues --    1.02644   1.03345   1.03783   1.04422   1.05407
 Alpha virt. eigenvalues --    1.05686   1.06633   1.07286   1.08244   1.08956
 Alpha virt. eigenvalues --    1.09388   1.09727   1.11130   1.11946   1.12111
 Alpha virt. eigenvalues --    1.13151   1.14501   1.14982   1.15612   1.16650
 Alpha virt. eigenvalues --    1.17587   1.18110   1.19176   1.20083   1.20904
 Alpha virt. eigenvalues --    1.22848   1.23729   1.24708   1.25191   1.26290
 Alpha virt. eigenvalues --    1.28577   1.29727   1.30856   1.32500   1.32994
 Alpha virt. eigenvalues --    1.34700   1.35149   1.36115   1.36825   1.38678
 Alpha virt. eigenvalues --    1.39043   1.40587   1.41530   1.42109   1.42960
 Alpha virt. eigenvalues --    1.43606   1.44596   1.45362   1.45919   1.46607
 Alpha virt. eigenvalues --    1.47244   1.48498   1.48943   1.49699   1.50176
 Alpha virt. eigenvalues --    1.50641   1.50951   1.51002   1.51670   1.52257
 Alpha virt. eigenvalues --    1.52977   1.53396   1.53489   1.54448   1.54922
 Alpha virt. eigenvalues --    1.55791   1.56187   1.57077   1.57647   1.58548
 Alpha virt. eigenvalues --    1.58891   1.59180   1.59602   1.60682   1.61225
 Alpha virt. eigenvalues --    1.62066   1.62953   1.63453   1.64842   1.65248
 Alpha virt. eigenvalues --    1.65917   1.66476   1.67327   1.67806   1.68176
 Alpha virt. eigenvalues --    1.69551   1.69994   1.71381   1.72269   1.72600
 Alpha virt. eigenvalues --    1.72911   1.73364   1.73728   1.75004   1.75388
 Alpha virt. eigenvalues --    1.75817   1.76916   1.77284   1.77793   1.78403
 Alpha virt. eigenvalues --    1.78697   1.79821   1.80193   1.81214   1.82160
 Alpha virt. eigenvalues --    1.83154   1.83561   1.84911   1.85188   1.85935
 Alpha virt. eigenvalues --    1.86242   1.87310   1.87365   1.88201   1.89177
 Alpha virt. eigenvalues --    1.89722   1.90105   1.90823   1.91186   1.92096
 Alpha virt. eigenvalues --    1.92369   1.92766   1.93286   1.94636   1.94712
 Alpha virt. eigenvalues --    1.95575   1.96226   1.96765   1.97171   1.97566
 Alpha virt. eigenvalues --    1.98561   1.99408   1.99944   2.01534   2.02673
 Alpha virt. eigenvalues --    2.02975   2.03696   2.04371   2.04843   2.05549
 Alpha virt. eigenvalues --    2.05745   2.07146   2.07938   2.08791   2.09736
 Alpha virt. eigenvalues --    2.10065   2.11294   2.12148   2.12551   2.13070
 Alpha virt. eigenvalues --    2.13297   2.14817   2.15703   2.16792   2.18084
 Alpha virt. eigenvalues --    2.19015   2.20057   2.20648   2.20729   2.22185
 Alpha virt. eigenvalues --    2.23469   2.23994   2.24916   2.25218   2.26330
 Alpha virt. eigenvalues --    2.26467   2.28220   2.29983   2.31452   2.32165
 Alpha virt. eigenvalues --    2.33814   2.34262   2.35750   2.36344   2.38081
 Alpha virt. eigenvalues --    2.38990   2.39813   2.40607   2.41286   2.42536
 Alpha virt. eigenvalues --    2.45383   2.45872   2.46746   2.47473   2.48777
 Alpha virt. eigenvalues --    2.49597   2.50221   2.52075   2.53831   2.54273
 Alpha virt. eigenvalues --    2.55756   2.56041   2.57281   2.58233   2.58505
 Alpha virt. eigenvalues --    2.59656   2.60740   2.62229   2.62777   2.64491
 Alpha virt. eigenvalues --    2.65617   2.68894   2.69178   2.69400   2.70072
 Alpha virt. eigenvalues --    2.71376   2.71498   2.71669   2.72302   2.72609
 Alpha virt. eigenvalues --    2.72737   2.73470   2.74037   2.74541   2.75328
 Alpha virt. eigenvalues --    2.75750   2.76214   2.76451   2.76877   2.77301
 Alpha virt. eigenvalues --    2.77708   2.78052   2.78464   2.79279   2.79978
 Alpha virt. eigenvalues --    2.81042   2.81567   2.82913   2.83064   2.83773
 Alpha virt. eigenvalues --    2.85543   2.85784   2.86738   2.87303   2.88503
 Alpha virt. eigenvalues --    2.88818   2.89594   2.91042   2.91629   2.92725
 Alpha virt. eigenvalues --    2.92853   2.94533   2.96254   2.97276   2.99075
 Alpha virt. eigenvalues --    2.99814   3.01211   3.01957   3.03781   3.05210
 Alpha virt. eigenvalues --    3.06045   3.07624   3.08038   3.09196   3.10616
 Alpha virt. eigenvalues --    3.11918   3.13956   3.14412   3.15241   3.17529
 Alpha virt. eigenvalues --    3.18898   3.19647   3.20830   3.21303   3.23267
 Alpha virt. eigenvalues --    3.24115   3.25534   3.27007   3.27450   3.28600
 Alpha virt. eigenvalues --    3.31935   3.33695   3.34641   3.35830   3.37744
 Alpha virt. eigenvalues --    3.39115   3.40983   3.41184   3.42055   3.43726
 Alpha virt. eigenvalues --    3.44087   3.44928   3.48207   3.48655   3.49965
 Alpha virt. eigenvalues --    3.52243   3.54497   3.56752   3.57694   3.58939
 Alpha virt. eigenvalues --    3.60440   3.61533   3.62882   3.67242   3.69483
 Alpha virt. eigenvalues --    3.71647   3.79590   3.80730   3.82770   3.84610
 Alpha virt. eigenvalues --    3.86108   3.93428   3.96572   4.01175   4.05464
 Alpha virt. eigenvalues --    4.05685   4.06801   4.07934   4.10202   4.10712
 Alpha virt. eigenvalues --    4.14632   4.19502   4.23893   4.27979   4.33146
 Alpha virt. eigenvalues --    4.41918   4.50864   4.61139   4.65618   4.72535
 Alpha virt. eigenvalues --    4.76200   4.78097   4.79124   4.82242   4.85647
 Alpha virt. eigenvalues --    4.89011  23.39556  23.63043  23.67817  23.74372
 Alpha virt. eigenvalues --   23.75668  23.80731  23.82550  23.84833  23.87622
 Alpha virt. eigenvalues --   23.89291  23.91156  23.91983  23.92211  23.93685
 Alpha virt. eigenvalues --   23.97024  23.99702  24.00652  24.06141  24.07347
 Alpha virt. eigenvalues --   24.08645  24.10416  24.12090  24.13227  24.14396
 Alpha virt. eigenvalues --   24.16101  24.19101  24.19770  24.19925  24.23681
 Alpha virt. eigenvalues --   24.30352
          Condensed to atoms (all electrons):
               1          2          3          4          5          6
     1  C    9.795572   0.909015   0.122252  -0.079134  -0.636365  -1.540985
     2  C    0.909015   8.104252   0.578118   0.067213   0.367573   1.053993
     3  C    0.122252   0.578118   9.566272   2.110744   1.142111  -1.531757
     4  C   -0.079134   0.067213   2.110744  12.195640  -0.628565  -2.551267
     5  C   -0.636365   0.367573   1.142111  -0.628565   9.684843   1.827147
     6  C   -1.540985   1.053993  -1.531757  -2.551267   1.827147  10.944526
     7  C    0.243015   0.224065   1.119851   0.396978  -0.260966  -1.016613
     8  C   -0.261451   0.061919   0.018430   0.425389   0.005696   0.214011
     9  C   -0.298973  -0.760054   2.742265  -0.136074   0.168786  -1.886277
    10  C    0.232888  -1.056277  -1.835935  -2.089283  -0.721863  -0.640736
    11  C   -0.294251   0.279111  -1.753758  -0.475487  -0.558414   0.653518
    12  C   -0.230241  -0.328076  -1.105880  -0.281735  -0.249740   0.047166
    13  C    0.026792  -0.141952   0.736311  -0.017544   0.031615  -0.237273
    14  C   -0.014937  -0.355616  -1.488127  -0.474371  -0.111462   0.141470
    15  C    1.349121   0.247621  -0.666126  -0.746950  -1.177270   0.094246
    16  C   -0.817575  -0.415387  -0.543145  -0.438024  -0.615166  -0.012591
    17  C   -0.746816   0.069562  -0.735233  -0.502755  -0.659440   0.323995
    18  C    0.313901  -0.493008  -1.533460  -0.353473  -0.946235  -0.201962
    19  C   -0.020362  -0.067925  -0.091796  -0.121751  -0.019101  -0.017088
    20  C    0.066798  -0.398708  -0.613893  -0.026795  -0.041990   0.114399
    21  C   -0.006948  -0.182573  -0.124714  -0.006796  -0.008328   0.010088
    22  C    0.004371  -0.014717   0.029332   0.007360   0.006249  -0.004808
    23  C   -1.082411  -0.915251  -0.082508  -0.217232  -0.407790  -0.049701
    24  C   -0.089768  -0.308523  -0.034570  -0.030657  -0.173318  -0.016249
    25  C   -0.044021  -0.376982   0.041589  -0.062802  -0.035130   0.040530
    26  C   -0.888496  -0.142957  -0.306492  -0.000413  -0.204975  -0.058547
    27  C   -0.218822  -0.056716  -0.047668  -0.047926  -0.084132   0.004015
    28  C   -0.004660  -0.020387  -0.039463  -0.017396  -0.023072   0.000503
    29  C   -0.034306  -0.169451   0.010386  -0.003429  -0.000428   0.004492
    30  C   -0.025750   0.009480  -0.001414  -0.002914  -0.002599  -0.001921
    31  H    0.000046   0.000095  -0.000001   0.000002   0.000001  -0.000000
    32  H   -0.000169   0.000380  -0.000060  -0.000003  -0.000008  -0.000002
    33  H   -0.001168   0.000602  -0.000265  -0.003771  -0.000044  -0.001201
    34  H    0.000409  -0.000049   0.000018  -0.000001   0.000024   0.000001
    35  H    0.003680   0.000746   0.000155   0.000017   0.000360   0.000019
    36  H    0.050061   0.008073   0.001201   0.000400   0.006607   0.000395
    37  H   -0.044890   0.019313  -0.003003   0.005640   0.021978   0.007967
    38  H   -0.091689   0.024507  -0.014019  -0.055469   0.390614   0.002915
    39  H   -0.003391  -0.000191   0.014372  -0.099043  -0.030670   0.419026
    40  H    0.005735  -0.006685   0.025481  -0.069345   0.020152   0.030725
    41  H    0.000617  -0.002499  -0.023453  -0.042445  -0.001296   0.005431
    42  H   -0.000127   0.000505  -0.003860   0.003426   0.000075  -0.000668
    43  H    0.000022   0.000002   0.001049   0.000299   0.000014  -0.000001
    44  H   -0.000007   0.000062   0.000054  -0.000004  -0.000001   0.000002
    45  H    0.000187  -0.002470  -0.000597   0.000061  -0.000005   0.000044
    46  H   -0.000117   0.002121   0.000374  -0.000085   0.000005  -0.000029
               7          8          9         10         11         12
     1  C    0.243015  -0.261451  -0.298973   0.232888  -0.294251  -0.230241
     2  C    0.224065   0.061919  -0.760054  -1.056277   0.279111  -0.328076
     3  C    1.119851   0.018430   2.742265  -1.835935  -1.753758  -1.105880
     4  C    0.396978   0.425389  -0.136074  -2.089283  -0.475487  -0.281735
     5  C   -0.260966   0.005696   0.168786  -0.721863  -0.558414  -0.249740
     6  C   -1.016613   0.214011  -1.886277  -0.640736   0.653518   0.047166
     7  C    8.366310   0.656066  -0.257830   0.996087   0.394490  -0.762981
     8  C    0.656066   9.339947  -0.604967  -1.504999   0.247334  -0.525327
     9  C   -0.257830  -0.604967  12.597335   0.114384  -1.975119  -0.750367
    10  C    0.996087  -1.504999   0.114384  11.015654   0.457654   0.494589
    11  C    0.394490   0.247334  -1.975119   0.457654   9.247926   0.966481
    12  C   -0.762981  -0.525327  -0.750367   0.494589   0.966481  10.313795
    13  C    0.841030   0.875866   0.623282  -0.604719  -1.373611  -1.283028
    14  C   -0.669969  -0.279474  -1.677372   0.501864   0.795817   0.621897
    15  C   -0.362038  -0.140372  -0.154876   0.008800  -0.122704   0.081136
    16  C   -0.660741  -0.026900  -0.122057  -0.086443  -0.553239  -0.516937
    17  C   -0.622311  -0.569448  -0.383239   0.018319   0.554675   0.437156
    18  C   -0.708663  -0.611275  -0.869981   0.611929   0.120211   0.955205
    19  C   -0.262105  -0.328039  -0.030678   0.076875  -0.071930  -1.158807
    20  C   -0.730270  -0.646504  -0.378855   0.099897   0.297818   0.129359
    21  C   -0.176793  -0.359784  -0.132302   0.014527  -1.041979  -1.407818
    22  C    0.007593   0.380850   0.062180  -0.019194   0.112667   1.529584
    23  C   -0.049610   0.071376  -0.018559  -0.020631   0.430143   0.127411
    24  C   -0.137612   0.009802  -0.007897   0.005474  -0.039532  -0.032521
    25  C   -0.258170  -0.147338  -0.025917  -0.000776  -0.863503  -0.866533
    26  C   -0.082554   0.154975   0.012623   0.025107   0.980678   0.439165
    27  C   -0.127819  -0.185946  -0.024231   0.003752   0.839059   0.880594
    28  C   -0.324007  -0.154880  -0.003371   0.007980  -0.891544  -1.491698
    29  C    0.039594  -0.009504  -0.002372  -0.000670  -0.017965   0.334167
    30  C   -0.024877  -0.004494   0.002936   0.000732  -0.146162  -0.057853
    31  H   -0.000016  -0.000002  -0.000000   0.000000  -0.000857   0.000421
    32  H   -0.000216   0.000233   0.000019   0.000001  -0.001734   0.008620
[...]
 00003145,0.00001715,0.00004872,-0.00025850,0.00005706,-0.00005794,0.00
 002084,0.00010364,0.00000537,-0.00001883,-0.00001920,0.00005992,-0.000
 02412,0.00002791,-0.00000430,0.00000219,0.00000707,0.00007279,-0.00007
 484,-0.00007384,0.00010001,-0.00011310,-0.00021158,-0.00000381,-0.0000
 1329,-0.00000738,-0.00000381,-0.00000575,-0.00000157,0.00000310,-0.000
 00326,-0.00000094,0.00000069,-0.00000354,0.00000073,-0.00000218,-0.000
 00322,-0.00000010,0.00000450,-0.00000104,-0.00000138,0.00000681,-0.000
 00757,0.00000488,-0.00000022,0.00001090,-0.00000701,-0.00011627,0.0000
 4882,-0.00011745,0.17471419,0.00013485,0.00010065,0.00003453,-0.000105
 83,-0.00018846,-0.00000330,0.00013358,0.00019317,-0.00002918,0.0000127
 2,-0.00010950,0.00000616,0.00000436,-0.00004383,-0.00001680,0.00001000
 ,0.00002407,-0.00000423,0.00019543,0.00013062,0.00024853,0.00037924,-0
 .00001865,-0.00024042,0.00001495,-0.00006854,0.00001195,-0.00006932,-0
 .00001838,-0.00001097,-0.00099370,-0.00056282,-0.00026590,0.00226525,-
 0.00079138,0.00281210,-0.01171756,-0.01174735,0.00558475,-0.00257431,0
 .00043345,-0.00038606,-0.00013054,0.00003658,-0.00000244,0.00004866,-0
 .00011023,-0.00000849,-0.00012385,0.00012932,0.00000483,0.00024541,-0.
 00011540,-0.00012049,-0.12570941,-0.18531566,0.07261720,0.00024947,-0.
 00012799,-0.00020496,0.00018018,0.00426688,0.00471495,0.00176423,0.004
 44633,0.00137489,-0.00001189,-0.00001350,-0.00000232,0.00001276,-0.000
 00374,0.00000088,-0.00007540,0.00002558,0.00002659,0.00012716,-0.00011
 226,-0.00001144,0.00014498,0.00039026,-0.00022085,-0.00024244,0.000023
 00,-0.00000309,0.00001275,-0.00009735,-0.00001728,0.00005554,0.0000581
 9,-0.00005736,-0.00000781,0.00000054,0.00000316,0.00002012,-0.00006263
 ,0.00007158,-0.00006972,-0.00076371,0.00059859,0.00000051,-0.00000909,
 0.00001169,-0.00000276,-0.00000133,0.00000031,-0.00000012,-0.00000463,
 0.00000071,-0.00000204,-0.00000605,0.00000349,0.00000394,-0.00000266,-
 0.00000033,0.00000631,-0.00000863,0.00000172,0.00001296,0.00000039,0.0
 0000222,0.00002534,0.00000343,0.00001227,0.00116857,0.00036250,0.00005
 844,0.13418345,0.19149876,-0.00007376,-0.00004276,-0.00000097,0.000118
 17,0.00012852,0.00001757,-0.00008382,-0.00013667,-0.00000426,-0.000024
 16,0.00003674,-0.00000133,-0.00000493,0.00001702,0.00000844,-0.0000037
 8,-0.00000153,-0.00000645,-0.00011612,-0.00015575,0.00005869,-0.000310
 52,0.00002887,0.00012090,-0.00000305,0.00001929,-0.00008539,0.00004576
 ,0.00002833,-0.00000724,0.00099151,0.00058249,0.00025059,-0.00330602,-
 0.00018256,-0.00172789,0.01106951,0.01290186,-0.00192270,0.00147580,-0
 .00025393,0.00042563,0.00005119,-0.00002082,-0.00000365,-0.00001256,0.
 00003938,0.00001634,0.00003116,-0.00005195,-0.00002416,-0.00019062,0.0
 0012762,-0.00008220,0.05597807,0.07425209,-0.07253376,0.00069063,0.000
 46114,0.00007395,-0.00219532,0.00539707,0.00742572,-0.00786602,-0.0051
 6114,0.00698131,0.00000262,0.00000694,-0.00000278,0.00000024,0.0000013
 1,0.00000782,0.00000746,-0.00000370,-0.00001040,0.00001669,0.00008038,
 -0.00005212,-0.00021345,-0.00006678,0.00009250,-0.00005591,0.00003797,
 0.00003883,-0.00001306,0.00002456,0.00000971,0.00002097,-0.00008697,-0
 .00002810,0.00000709,0.00000472,-0.00000316,0.00005810,-0.00008436,0.0
 0000827,-0.00000569,-0.00038324,-0.00065712,0.00000286,-0.00000579,0.0
 0000212,0.00000269,0.00000306,0.00000199,0.00000021,0.00000315,0.00000
 265,0.00000082,0.00000417,-0.00000250,-0.00000342,0.00000166,0.0000038
 4,-0.00000276,0.00000328,0.00000283,-0.00000423,-0.00000101,0.00001548
 ,-0.00001083,0.00000404,0.00001512,-0.00080340,-0.00016731,0.00022068,
 -0.05597344,-0.08272676,0.06570883,0.00007834,0.00006397,0.00000982,-0
 .00004567,-0.00002537,-0.00000560,0.00003756,0.00014273,-0.00002478,-0
 .00003064,-0.00013736,0.00001095,-0.00001018,-0.00004575,-0.00000582,0
 .00000593,0.00005264,0.00000635,0.00013640,-0.00027530,0.00012672,-0.0
 0066788,0.00014966,0.00007624,0.00017072,0.00004664,0.00009826,-0.0001
 2006,0.00008367,0.00000631,0.00011896,0.00009982,-0.00014595,-0.000014
 76,-0.00059006,0.00009008,-0.00392606,-0.00261925,-0.00105957,0.000575
 52,0.00065989,-0.00106604,-0.00008556,0.00003048,0.00000644,0.00004008
 ,-0.00006424,-0.00001010,-0.00010383,0.00010341,0.00001361,-0.00001184
 ,-0.00002859,0.00001138,-0.00872561,0.02428908,-0.02053712,-0.00357416
 ,-0.00091080,0.00140269,0.00888606,-0.01694410,0.01120017,-0.08958206,
 0.06894961,-0.05950489,-0.00001638,-0.00000804,-0.00000240,-0.00002989
 ,-0.00001620,-0.00000004,-0.00000885,-0.00011164,-0.00004389,-0.000211
 23,-0.00010150,-0.00000459,0.00072158,-0.00095789,0.00007329,-0.000003
 42,-0.00003148,-0.00006592,0.00006966,-0.00006440,-0.00001184,0.000025
 73,0.00007720,0.00001804,-0.00000800,-0.00000501,0.00000626,0.00007086
 ,0.00004619,0.00001843,-0.00031588,0.00052311,-0.00050281,-0.00000192,
 -0.00000357,0.00000083,0.00000232,-0.00001277,-0.00000276,0.00000152,0
 .00000183,-0.00000037,0.00000008,0.00000031,0.00000208,-0.00000169,0.0
 0000429,0.00000015,-0.00000073,-0.00000223,-0.00000190,-0.00000410,0.0
 0001949,-0.00001568,-0.00001107,-0.00000730,0.00000026,-0.00008290,-0.
 00003840,-0.00001469,0.00055908,0.00074898,0.00152484,0.09506677,0.000
 02391,0.00005604,0.00001016,-0.00002457,-0.00009406,-0.00001040,0.0000
 3878,0.00014458,-0.00002223,0.00004546,-0.00001387,0.00000768,0.000050
 99,-0.00003706,-0.00001400,-0.00003641,-0.00001773,-0.00000255,0.00026
 045,-0.00007828,0.00009182,-0.00027156,-0.00024114,-0.00006314,-0.0000
 4504,0.00007043,0.00005125,-0.00007025,-0.00006482,0.00000481,0.000107
 20,0.00024124,-0.00011415,-0.00049747,0.00021459,-0.00023035,-0.001541
 32,0.00403793,0.00397536,-0.00029324,0.00076457,-0.00019182,-0.0000448
 9,0.00002330,0.00000605,0.00003432,-0.00004937,-0.00000751,-0.00006549
 ,0.00006653,0.00002800,-0.00002667,-0.00000630,-0.00003387,-0.00204121
 ,0.00361878,0.00113383,-0.00287649,-0.00065183,0.00133622,0.00753082,-
 0.01142343,0.01007190,0.07174352,-0.19383145,0.12645323,-0.00000401,-0
 .00000308,-0.00000414,-0.00002857,-0.00000344,-0.00000560,-0.00001269,
 -0.00008087,-0.00004953,-0.00018273,-0.00007303,-0.00001587,0.00068167
 ,-0.00055544,0.00024114,-0.00012682,-0.00003530,-0.00002913,0.00002478
 ,-0.00007921,-0.00001521,0.00004390,0.00005323,-0.00000017,-0.00001943
 ,-0.00000295,0.00001258,0.00011129,0.00001474,0.00001292,0.00038509,-0
 .00084104,0.00062275,-0.00000576,-0.00001420,0.00000343,-0.00000510,-0
 .00001481,0.00000178,0.00000276,-0.00000697,0.00000135,-0.00000038,-0.
 00000789,0.00000044,-0.00000076,-0.00000497,0.00000258,0.00000791,-0.0
 0000732,0.00000009,0.00000704,0.00000388,-0.00000602,0.00000764,0.0000
 0535,0.00000159,0.00002021,-0.00002840,0.00000688,0.00111038,-0.001640
 66,-0.00383159,-0.07396934,0.20056544,0.00000009,0.00001891,0.00000333
 ,-0.00002544,0.00002639,-0.00000282,0.00000139,0.00005942,0.00001687,0
 .00002015,0.00001824,0.00000003,0.00002057,0.00000440,-0.00000160,-0.0
 0000343,-0.00002096,-0.00000648,0.00016406,-0.00002587,-0.00006116,-0.
 00046373,-0.00033747,0.00001679,0.00001483,0.00015704,0.00007637,-0.00
 007868,-0.00004876,0.00001027,0.00004192,0.00011409,-0.00002385,-0.000
 39391,-0.00016300,-0.00007746,-0.00293512,0.00324991,0.00760978,-0.000
 40639,0.00141696,-0.00055509,-0.00000283,0.00000959,0.00000026,-0.0000
 1868,0.00000094,0.00000597,-0.00001619,0.00000061,-0.00000687,0.000012
 42,0.00000987,-0.00001076,-0.00208513,0.00822406,-0.00045287,0.0028449
 2,-0.00105901,0.00060633,-0.00535719,0.00744679,-0.00289279,-0.0620595
 8,0.12593697,-0.13816212,0.00000196,0.00000353,-0.00000134,0.00001756,
 -0.00000474,0.00000212,-0.00001520,0.00005192,-0.00001431,0.00021583,-
 0.00001271,-0.00005026,-0.00047358,0.00056094,0.00012061,0.00000917,0.
 00008112,0.00000555,0.00001237,0.00003257,0.00000799,-0.00002414,-0.00
 001906,-0.00000331,0.00001966,0.00000557,-0.00000330,-0.00004304,-0.00
 000538,0.00000356,0.00074619,-0.00148376,0.00091268,0.00000519,0.00000
 698,0.00000140,0.00000468,0.00001011,0.00000408,-0.00000224,0.00000568
 ,0.00000104,-0.00000032,0.00000509,0.00000127,-0.00000036,0.00000492,0
 .00000389,-0.00000536,0.00000104,0.00000196,-0.00001169,0.00001773,-0.
 00000910,-0.00000880,-0.00000749,0.00000379,-0.00002667,-0.00005118,0.
 00001671,0.00115149,-0.00397796,-0.00446818,0.06848225,-0.13957565,0.1
 3662849,0.00000505,0.00008213,0.00002813,0.00008667,0.00007648,0.00001
 700,-0.00015778,-0.00001423,-0.00007271,0.00002134,0.00003653,-0.00002
 427,-0.00003667,0.00007995,0.00001446,0.00007557,-0.00001163,0.0000072
 8,0.00032698,0.00032536,-0.00001129,-0.00004238,-0.00020871,0.00014590
 ,0.00005329,0.00002990,-0.00001880,-0.00002788,-0.00000966,-0.00000734
 ,-0.00106366,-0.00008265,0.00034831,0.00090338,0.00194442,-0.00100050,
 0.00066916,-0.00056902,-0.00104964,-0.00010515,0.00001987,0.00018025,-
 0.00004268,-0.00000944,-0.00000608,0.00001273,0.00009878,0.00000497,0.
 00005145,-0.00011722,0.00000371,-0.00010516,-0.00002054,0.00002851,-0.
 00049329,-0.00345527,0.00161346,-0.01174410,0.00168716,-0.00950641,-0.
 17010373,-0.02723967,-0.12709751,-0.01834195,-0.00410359,-0.01397992,-
 0.00008766,-0.00009944,-0.00001359,0.00009517,0.00001694,-0.00002759,-
 0.00025602,-0.00006833,-0.00000589,0.00006517,0.00091215,0.00018463,-0
 .00056420,-0.00190855,0.00131074,-0.00000323,-0.00104658,0.00119726,0.
 00010309,-0.00007603,-0.00003723,0.00010002,-0.00009108,0.00009776,-0.
 00000755,-0.00001058,0.00002424,-0.00032806,-0.00124778,0.00139985,-0.
 00028365,0.00004910,-0.00013020,-0.00000122,0.00000255,-0.00002865,0.0
 0000524,0.00000130,-0.00000550,0.00000351,0.00000466,0.00000232,0.0000
 0136,0.00000656,-0.00000237,0.00000369,0.00000409,-0.00000084,-0.00000
 743,0.00000869,0.00000352,-0.00000844,0.00000750,0.00000147,-0.0000068
 6,-0.00000653,0.00000459,0.00000192,-0.00000101,-0.00004236,-0.0010777
 4,0.00044296,0.00066630,0.00092714,0.00031541,0.00064984,0.19202883,-0
 .00001533,0.00020301,0.00006121,0.00012627,-0.00029686,-0.00000448,0.0
 0017252,0.00002319,0.00010042,-0.00012990,-0.00004115,0.00004966,0.000
 13282,-0.00006969,-0.00003639,-0.00005606,-0.00009040,-0.00003985,-0.0
 0007825,-0.00045162,0.00020468,-0.00023569,0.00010307,-0.00012353,0.00
 002328,-0.00000366,0.00002113,-0.00002478,0.00003277,-0.00000460,0.001
 66019,0.00002077,-0.00133499,0.00029821,-0.00407743,0.00109184,-0.0000
 7363,-0.00091719,0.00061684,0.00025346,0.00010054,-0.00024479,-0.00002
 619,-0.00002798,-0.00000899,-0.00005341,-0.00000919,0.00000799,-0.0000
 0123,0.00001540,0.00004133,-0.00005629,0.00019943,0.00000382,-0.002187
 61,-0.00268060,0.00218010,0.02060212,0.00269551,0.02018340,-0.02726627
 ,-0.05222562,-0.02553710,-0.01546682,-0.00359160,-0.01549056,0.0000429
 0,0.00001374,-0.00000011,-0.00002205,-0.00001394,0.00001055,0.00020306
 ,-0.00003373,0.00004401,0.00018854,-0.00005447,-0.00045335,0.00127954,
 0.00014395,0.00083275,-0.00055366,-0.00007472,0.00102583,-0.00019785,0
 .00030205,0.00001786,-0.00033018,-0.00050650,-0.00009586,0.00001109,-0
 .00000757,0.00004794,-0.00063216,-0.00059413,0.00083033,0.00012292,0.0
 0041425,-0.00018252,-0.00000396,0.00000585,0.00000070,-0.00000066,0.00
 000649,0.00000403,-0.00000598,-0.00000050,-0.00000483,-0.00000397,-0.0
 0000591,0.00000088,0.00000338,-0.00000220,0.00000577,0.00000349,-0.000
 01103,-0.00000357,0.00000737,0.00000319,-0.00000245,0.00001395,0.00000
 092,0.00000288,0.00009771,0.00001938,0.00003766,-0.00096539,0.00067285
 ,0.00086154,0.00012942,0.00046450,-0.00015506,0.03235786,0.06267734,0.
 00004904,-0.00006723,-0.00002097,0.00003417,0.00020601,0.00002548,-0.0
 0006220,-0.00015581,-0.00004129,0.00002278,-0.00003489,-0.00000731,-0.
 00013020,0.00007806,0.00003376,0.00009577,0.00008409,0.00001027,-0.000
 09798,0.00017144,-0.00015048,0.00012184,0.00002855,0.00004253,0.000072
 18,0.00001020,-0.00001529,0.00001009,0.00003967,-0.00000014,-0.0002513
 5,-0.00041430,0.00051184,-0.00016175,0.00138980,-0.00047194,0.00042647
 ,0.00022821,-0.00005724,-0.00001823,-0.00009667,0.00015567,-0.00002572
 ,0.00001056,-0.00000268,0.00003577,-0.00002682,0.00000661,-0.00004130,
 -0.00009202,-0.00002603,0.00004786,0.00003495,0.00002515,0.00133962,0.
 00136789,-0.00060979,-0.00384653,-0.00030085,-0.00362095,-0.12655261,-
 0.02442895,-0.16773242,0.01127114,0.00256492,0.01055635,-0.00007516,-0
 .00011771,-0.00001568,0.00011287,0.00005243,0.00000926,-0.00026438,-0.
 00006996,0.00001379,0.00010596,0.00050671,-0.00012134,-0.00110567,-0.0
 0044226,0.00074920,-0.00003631,0.00056515,0.00067596,0.00011015,-0.000
 20793,-0.00014174,0.00040847,-0.00010540,0.00016600,0.00001972,0.00002
 576,0.00002133,0.00064267,-0.00020095,-0.00151196,0.00027945,-0.000191
 39,-0.00008375,-0.00000626,-0.00006088,-0.00004955,-0.00000257,-0.0000
 0463,-0.00000120,0.00001052,0.00000029,0.00000201,0.00000298,0.0000050
 3,-0.00000117,0.00000130,0.00000052,-0.00000303,-0.00000275,0.00000906
 ,0.00000097,-0.00000506,0.00000543,0.00000082,-0.00000799,-0.00000208,
 0.00000357,-0.00003115,-0.00001218,-0.00000162,0.00063329,-0.00018655,
 -0.00043823,-0.00045659,-0.00051124,0.00081082,0.13521249,0.02543393,0
 .18247133,0.00000797,-0.00000322,-0.00001524,0.00002845,0.00013495,0.0
 0000660,-0.00014047,-0.00002869,0.00025976,0.00004536,-0.00000325,-0.0
 0001027,-0.00009138,0.00005628,0.00002542,0.00007562,0.00005973,-0.000
 02656,0.00004356,0.00011069,-0.00021727,0.00007965,0.00001882,0.000014
 44,0.00006753,0.00002126,0.00000546,0.00001551,0.00002482,-0.00000604,
 -0.00045997,-0.00018506,-0.00095407,0.00133602,0.00153892,0.00045277,-
 0.00044399,0.00024402,-0.00026319,0.00006137,-0.00019759,0.00013644,-0
 .00000002,-0.00002269,-0.00000682,-0.00000688,0.00004579,0.00000168,-0
 .00005056,-0.00008001,0.00000777,0.00001005,0.00002342,0.00005641,0.00
 099450,-0.00200310,0.00160107,-0.00952423,0.01018867,0.00804435,-0.088
 88308,0.04648289,0.08861477,-0.01697901,0.00423594,0.01952048,-0.00002
 680,-0.00005299,-0.00000970,0.00004420,0.00002917,0.00000739,-0.000017
 44,-0.00001521,0.00001363,0.00000120,0.00032767,-0.00003560,-0.0008159
 7,-0.00063016,0.00056398,-0.00035854,-0.00120412,-0.00071305,-0.000085
 67,0.00004112,0.00004569,0.00019744,-0.00034489,-0.00009926,-0.0000192
 3,0.00000216,-0.00001046,-0.00103059,-0.00232141,0.00015686,-0.0000014
 0,0.00005069,-0.00009771,0.00000322,-0.00002030,-0.00000614,0.00000615
 ,0.00000131,0.00000198,0.00000291,0.00000482,-0.00000059,0.00000272,0.
 00000718,-0.00000205,0.00000304,0.00000300,0.00000526,-0.00000831,0.00
 001279,-0.00000083,-0.00001163,0.00000656,0.00000144,-0.00000596,-0.00
 000672,0.00001024,0.00002043,0.00002659,0.00008498,0.00005369,-0.00076
 792,-0.00148584,0.00010007,-0.00036335,0.00002115,0.00935572,-0.009342
 78,-0.01788488,0.10640475,-0.00004941,0.00029225,0.00006368,0.00017508
 ,-0.00048558,-0.00001246,0.00028138,0.00004543,-0.00039341,-0.00027693
 ,-0.00005395,0.00006141,0.00031107,-0.00016380,-0.00007975,-0.00017747
 ,-0.00019969,0.00000148,-0.00024685,-0.00035078,0.00054140,-0.00039632
 ,0.00026637,-0.00005184,0.00000980,-0.00005841,0.00004731,-0.00006278,
 0.00007645,-0.00001427,0.00117921,0.00013307,0.00180828,-0.00374873,-0
 .00238017,-0.00055835,0.00056908,0.00170866,0.00061705,0.00060167,0.00
 027616,-0.00050612,-0.00002919,0.00001218,0.00000928,-0.00002327,0.000
 02466,-0.00007746,0.00018305,0.00008637,0.00002672,-0.00017838,0.00015
 741,-0.00007368,-0.00009328,-0.00182160,0.00184967,0.01624582,-0.01498
 055,-0.01817643,0.04434233,-0.07930884,-0.07681704,-0.01347456,0.00861
 904,0.01684747,0.00005545,0.00009942,0.00003360,-0.00009827,-0.0000610
 7,-0.00002834,0.00008908,0.00001041,-0.00007533,0.00006756,-0.00026047
 ,0.00051840,0.00080854,0.00018771,0.00059314,-0.00002784,-0.00088768,-
 0.00022778,0.00003226,0.00023539,-0.00000899,-0.00032505,0.00030759,0.
 00013082,-0.00001695,-0.00003394,0.00001501,-0.00258698,-0.00167657,-0
 .00013131,0.00000828,-0.00014183,-0.00037585,-0.00000464,0.00006218,0.
 00002005,-0.00000729,0.00000812,-0.00000040,-0.00001123,-0.00000290,-0
 .00000207,-0.00000794,-0.00001420,0.00000514,-0.00000110,-0.00000464,0
 .00001040,0.00001315,-0.00002815,0.00000457,0.00001911,0.00000061,-0.0
 0000695,0.00001760,0.00000526,-0.00001060,0.00007330,-0.00001358,-0.00
 012921,0.00023213,-0.00085211,-0.00169258,0.00074817,-0.00043618,-0.00
 053334,0.00188717,-0.00233049,-0.00508796,-0.04610581,0.09393243,0.000
 01233,-0.00003153,0.00001959,0.00011425,-0.00002419,0.00000068,-0.0000
 2290,-0.00025020,0.00009263,-0.00009486,0.00000655,0.00000114,-0.00006
 010,-0.00000028,0.00000129,0.00000669,0.00002840,-0.00000534,-0.000709
 96,0.00002007,0.00004197,0.00024518,0.00034156,-0.00014604,-0.00002571
 ,-0.00004084,0.00001559,0.00011349,0.00006356,0.00000284,0.00075351,-0
 .00079480,-0.00071277,-0.00123398,0.00104515,-0.00044966,0.00049353,-0
 .00069272,0.00161572,-0.00002094,-0.00041949,-0.00000864,0.00001444,-0
 .00003622,-0.00001198,-0.00000259,0.00001566,0.00004256,0.00008163,0.0
 0002963,-0.00000792,0.00005419,0.00018418,-0.00004592,-0.00243982,0.00
 165230,-0.00090820,-0.00368973,0.00225919,0.01022816,0.08295324,-0.076
 99484,-0.19019752,0.00874027,-0.00063823,-0.00770093,0.00000092,0.0000
 4252,0.00000829,-0.00004360,-0.00002743,-0.00000372,-0.00002665,-0.000
 00950,0.00000627,-0.00037615,0.00009568,-0.00023972,0.00093389,0.00014
 312,0.00004810,0.00111803,-0.00017830,-0.00015012,0.00015411,-0.000083
 49,0.00005530,-0.00025226,0.00070705,0.00013630,-0.00000928,-0.0000314
 7,-0.00005273,-0.00006053,0.00099139,0.00059375,0.00080987,-0.00026057
 ,-0.00080003,0.00000043,0.00007756,0.00001377,0.00000142,-0.00000608,-
 0.00000209,-0.00000275,-0.00000154,-0.00000196,-0.00000144,-0.00000008
 ,-0.00000692,0.00000112,-0.00000326,-0.00000398,0.00000064,0.00000289,
 -0.00000364,-0.00000119,-0.00000631,-0.00000377,0.00000260,0.00000287,
 -0.00000036,0.00001945,-0.00000052,0.00003571,0.00004410,0.00029566,0.
 00055279,0.00029788,0.00065632,-0.00006827,0.00992167,-0.00999607,-0.0
 2116691,-0.09781445,0.08186663,0.20918668\\-0.00000684,0.00000662,0.00
 000092,0.00000043,-0.00000210,0.00000928,0.00000427,-0.00000308,0.0000
 0486,-0.00000472,0.00000665,0.00000194,0.00000553,0.00000078,-0.000005
 75,0.00000008,-0.00000467,-0.00000885,-0.00000386,0.00000138,0.0000005
 2,0.00000302,-0.00000136,0.00000211,0.00000175,-0.00000421,-0.00000165
 ,-0.00000089,0.00000172,0.00000026,0.00001806,0.00000035,0.00001675,-0
 .00001526,0.00001893,-0.00000086,-0.00000641,-0.00001843,0.00000229,0.
 00000249,0.00000533,-0.00001386,0.00000253,-0.00000216,-0.00000551,-0.
 00000115,0.00000660,-0.00000190,0.00000981,-0.00001069,-0.00000450,-0.
 00001064,-0.00000031,-0.00000047,-0.00000304,0.00001460,-0.00000653,0.
 00001420,0.00001533,0.00000422,0.00000009,-0.00002088,0.00000246,0.000
 00352,0.00000028,-0.00000109,-0.00000215,0.,0.00000019,0.00000154,0.00
 000176,-0.00000179,-0.00000421,-0.00000367,0.00000328,-0.00000244,0.00
 001326,-0.00000957,-0.00001381,-0.00001883,-0.00000591,0.00000475,0.00
 000612,0.00000442,0.00000408,0.00000200,0.00000049,-0.00000017,0.00000
 100,0.00000105,0.00000024,-0.00000068,0.00000261,0.00000269,0.00000298
 ,-0.00000035,-0.00000048,-0.00000939,0.00000864,-0.00000050,0.00000017
 ,-0.00000088,0.,-0.00000081,-0.00000130,-0.00000044,0.00000050,-0.0000
 0392,0.00000129,-0.00000003,-0.00000105,-0.00000162,-0.00000098,-0.000
 00126,-0.00000044,0.00000040,-0.00000061,-0.00000004,-0.00000218,-0.00
 000191,0.00000001,0.00000085,0.00000106,-0.00000137,-0.00000399,0.0000
 0284,0.00000114,-0.00000402,0.00000453,-0.00000043,0.00000091,0.000000
 10,-0.00000299,0.00000436,0.00000176,0.00000237,-0.00000044,0.00000296
 \\\@


 IN THE UNIVERSE THE DIFFICULT THINGS ARE DONE AS IF THEY WERE EASY.

                                                          -- LAO-TSU
 Job cpu time:       1 days  8 hours  5 minutes 16.6 seconds.
 Elapsed time:       0 days  1 hours 36 minutes 31.7 seconds.
 File lengths (MBytes):  RWF=   2285 Int=      0 D2E=      0 Chk=     53 Scr=      1
 Normal termination of Gaussian 16 at Fri Jun 21 17:37:24 2019.
