 Entering Gaussian System, Link 0=/share/apps/gaussian16/g16/g16
 Initial command:
 /share/apps/gaussian16/g16/l1.exe "/home/amen01//scratch/573/Gau-5482.inp" -scrdir="/home/amen01//scratch/573/"
 Entering Link 1 = /share/apps/gaussian16/g16/l1.exe PID=      5483.
  
 Copyright (c) 1988-2017, Gaussian, Inc.  All Rights Reserved.
  
 This is part of the Gaussian(R) 16 program.  It is based on
 the Gaussian(R) 09 system (copyright 2009, Gaussian, Inc.),
 the Gaussian(R) 03 system (copyright 2003, Gaussian, Inc.),
 the Gaussian(R) 98 system (copyright 1998, Gaussian, Inc.),
 the Gaussian(R) 94 system (copyright 1995, Gaussian, Inc.),
 the Gaussian 92(TM) system (copyright 1992, Gaussian, Inc.),
 the Gaussian 90(TM) system (copyright 1990, Gaussian, Inc.),
 the Gaussian 88(TM) system (copyright 1988, Gaussian, Inc.),
 the Gaussian 86(TM) system (copyright 1986, Carnegie Mellon
 University), and the Gaussian 82(TM) system (copyright 1983,
 Carnegie Mellon University). Gaussian is a federally registered
 trademark of Gaussian, Inc.
  
 This software contains proprietary and confidential information,
 including trade secrets, belonging to Gaussian, Inc.
  
 This software is provided under written license and may be
 used, copied, transmitted, or stored only in accord with that
 written license.
  
 The following legend is applicable only to US Government
 contracts under FAR:
  
                    RESTRICTED RIGHTS LEGEND
  
 Use, reproduction and disclosure by the US Government is
 subject to restrictions as set forth in subparagraphs (a)
 and (c) of the Commercial Computer Software - Restricted
 Rights clause in FAR 52.227-19.
  
 Gaussian, Inc.
 340 Quinnipiac St., Bldg. 40, Wallingford CT 06492
  
  
 ---------------------------------------------------------------
 Warning -- This program may not be used in any manner that
 competes with the business of Gaussian, Inc. or will provide
 assistance to any competitor of Gaussian, Inc.  The licensee
 of this program is prohibited from giving any competitor of
 Gaussian, Inc. access to this program.  By using this program,
 the user acknowledges that Gaussian, Inc. is engaged in the
 business of creating and licensing software in the field of
 computational chemistry and represents and warrants to the
 licensee that it is not a competitor of Gaussian, Inc. and that
 it will not use this program in any manner prohibited above.
 ---------------------------------------------------------------
  

 Cite this work as:
 Gaussian 16, Revision B.01,
 M. J. Frisch, G. W. Trucks, H. B. Schlegel, G. E. Scuseria, 
 M. A. Robb, J. R. Cheeseman, G. Scalmani, V. Barone, 
 G. A. Petersson, H. Nakatsuji, X. Li, M. Caricato, A. V. Marenich, 
 J. Bloino, B. G. Janesko, R. Gomperts, B. Mennucci, H. P. Hratchian, 
 J. V. Ortiz, A. F. Izmaylov, J. L. Sonnenberg, D. Williams-Young, 
 F. Ding, F. Lipparini, F. Egidi, J. Goings, B. Peng, A. Petrone, 
 T. Henderson, D. Ranasinghe, V. G. Zakrzewski, J. Gao, N. Rega, 
 G. Zheng, W. Liang, M. Hada, M. Ehara, K. Toyota, R. Fukuda, 
 J. Hasegawa, M. Ishida, T. Nakajima, Y. Honda, O. Kitao, H. Nakai, 
 T. Vreven, K. Throssell, J. A. Montgomery, Jr., J. E. Peralta, 
 F. Ogliaro, M. J. Bearpark, J. J. Heyd, E. N. Brothers, K. N. Kudin, 
 V. N. Staroverov, T. A. Keith, R. Kobayashi, J. Normand, 
 K. Raghavachari, A. P. Rendell, J. C. Burant, S. S. Iyengar, 
 J. Tomasi, M. Cossi, J. M. Millam, M. Klene, C. Adamo, R. Cammi, 
 J. W. Ochterski, R. L. Martin, K. Morokuma, O. Farkas, 
 J. B. Foresman, and D. J. Fox, Gaussian, Inc., Wallingford CT, 2016.
 
 ******************************************
 Gaussian 16:  ES64L-G16RevB.01 20-Dec-2017
                20-Jun-2019 
 ******************************************
 %nprocshared=20
 Will use up to   20 processors via shared memory.
 %mem=100GB
 %chk=7-memb-carb-5b.chk
 -------------------------------------------
 # opt freq b3lyp/6-311+g(d,p) int=grid=fine
 -------------------------------------------
 1/18=20,19=15,26=3,38=1/1,3;
 2/9=110,12=2,17=6,18=5,40=1/2;
 3/5=4,6=6,7=111,11=2,25=1,30=1,71=1,74=-5,75=-4/1,2,3;
 4//1;
 5/5=2,38=5/2;
 6/7=2,8=2,9=2,10=2,28=1/1;
 7//1,2,3,16;
 1/18=20,19=15,26=3/3(2);
 2/9=110/2;
 99//99;
 2/9=110/2;
 3/5=4,6=6,7=111,11=2,25=1,30=1,71=1,74=-5,75=-4/1,2,3;
 4/5=5,16=3,69=1/1;
 5/5=2,38=5/2;
 7//1,2,3,16;
 1/18=20,19=15,26=3/3(-5);
 2/9=110/2;
 6/7=2,8=2,9=2,10=2,19=2,28=1/1;
 99/9=1/99;
 --------------
 7-memb-carb-5b
 --------------
 Symbolic Z-matrix:
 Charge =  0 Multiplicity = 1
 C                    -1.58256  -2.80839  -0.10116 
 C                    -1.43852  -1.47091   0.24076 
 C                    -2.53061  -0.61414   0.39747 
 C                    -3.84499  -0.97485   0.1977 
 C                    -2.9512   -3.24913  -0.21308 
 C                    -4.02753  -2.37756  -0.07653 
 C                    -2.04719   0.70304   0.46069 
 C                    -2.89464   1.80164   0.29689 
 C                    -4.30805   1.45935   0.21751 
 C                    -4.75864   0.15503   0.16962 
 C                    -0.64998   0.69036   0.35008 
 C                     0.02976   1.86695   0.06419 
 C                    -0.81191   3.06045  -0.06346 
 C                    -2.22806   3.01304   0.07184 
 C                    -0.34793  -3.45476  -0.38289 
 C                     0.8669   -2.75699  -0.33963 
 C                     0.95015  -1.3296   -0.04887 
 C                    -0.24925  -0.71343   0.22073 
 C                    -0.18132   4.27338  -0.44533 
 C                     1.45613   1.90832  -0.18751 
 C                     1.95424   3.13546  -0.62364 
 C                     1.15549   4.2909   -0.74774 
 C                     2.10487  -3.46619  -0.59948 
 C                     3.29782  -2.87368  -0.41424 
 C                     3.42498  -1.49452   0.03007 
 C                     2.22875  -0.60309  -0.00631 
 C                     2.41827   0.77718   0.01538 
 C                     3.86995   1.24142   0.13105 
 C                     4.58654  -1.05366   0.55975 
 C                     4.6222    0.3385    1.08668 
 H                     5.63324   0.69698   1.2869 
 H                     4.34811   1.25106  -0.86049 
 H                     5.44176  -1.71504   0.64905 
 H                     4.217    -3.43568  -0.5432 
 H                     2.04717  -4.5074   -0.89831 
 H                    -0.32299  -4.50546  -0.6551 
 H                    -3.15601  -4.28658  -0.45701 
 H                    -5.02886  -2.77003  -0.22332 
 H                    -5.82419  -0.02085   0.0608 
 H                    -5.03604   2.26093   0.14341 
 H                    -2.78054   3.93276  -0.0936 
 H                    -0.7795    5.17385  -0.5331 
 H                     1.62194   5.20961  -1.08589 
 H                     2.99544   3.23759  -0.89002 
 H                     4.03569   0.37789   2.01544 
 H                     3.90571   2.25577   0.52134 
 

 GradGradGradGradGradGradGradGradGradGradGradGradGradGradGradGradGradGrad
 Berny optimization.
 Initialization pass.
                           ----------------------------
                           !    Initial Parameters    !
                           ! (Angstroms and Degrees)  !
 --------------------------                            --------------------------
 ! Name  Definition              Value          Derivative Info.                !
 --------------------------------------------------------------------------------
 ! R1    R(1,2)                  1.388          estimate D2E/DX2                !
 ! R2    R(1,5)                  1.4422         estimate D2E/DX2                !
 ! R3    R(1,15)                 1.4218         estimate D2E/DX2                !
 ! R4    R(2,3)                  1.3969         estimate D2E/DX2                !
 ! R5    R(2,18)                 1.4102         estimate D2E/DX2                !
 ! R6    R(3,4)                  1.3775         estimate D2E/DX2                !
 ! R7    R(3,7)                  1.4045         estimate D2E/DX2                !
 ! R8    R(4,6)                  1.4409         estimate D2E/DX2                !
 ! R9    R(4,10)                 1.4533         estimate D2E/DX2                !
 ! R10   R(5,6)                  1.3917         estimate D2E/DX2                !
 ! R11   R(5,37)                 1.0852         estimate D2E/DX2                !
 ! R12   R(6,38)                 1.0855         estimate D2E/DX2                !
 ! R13   R(7,8)                  1.3971         estimate D2E/DX2                !
 ! R14   R(7,11)                 1.4016         estimate D2E/DX2                !
 ! R15   R(8,9)                  1.4564         estimate D2E/DX2                !
 ! R16   R(8,14)                 1.4009         estimate D2E/DX2                !
 ! R17   R(9,10)                 1.3808         estimate D2E/DX2                !
 ! R18   R(9,40)                 1.0854         estimate D2E/DX2                !
 ! R19   R(10,39)                1.0854         estimate D2E/DX2                !
 ! R20   R(11,12)                1.3886         estimate D2E/DX2                !
 ! R21   R(11,18)                1.4656         estimate D2E/DX2                !
 ! R22   R(12,13)                1.466          estimate D2E/DX2                !
 ! R23   R(12,20)                1.449          estimate D2E/DX2                !
 ! R24   R(13,14)                1.4234         estimate D2E/DX2                !
 ! R25   R(13,19)                1.4194         estimate D2E/DX2                !
 ! R26   R(14,41)                1.0856         estimate D2E/DX2                !
 ! R27   R(15,16)                1.4016         estimate D2E/DX2                !
 ! R28   R(15,36)                1.0857         estimate D2E/DX2                !
 ! R29   R(16,17)                1.4591         estimate D2E/DX2                !
 ! R30   R(16,23)                1.4502         estimate D2E/DX2                !
 ! R31   R(17,18)                1.3751         estimate D2E/DX2                !
 ! R32   R(17,26)                1.4712         estimate D2E/DX2                !
 ! R33   R(19,22)                1.3707         estimate D2E/DX2                !
 ! R34   R(19,42)                1.0846         estimate D2E/DX2                !
 ! R35   R(20,21)                1.3944         estimate D2E/DX2                !
 ! R36   R(20,27)                1.4988         estimate D2E/DX2                !
 ! R37   R(21,22)                1.4101         estimate D2E/DX2                !
 ! R38   R(21,44)                1.0796         estimate D2E/DX2                !
 ! R39   R(22,43)                1.0844         estimate D2E/DX2                !
 ! R40   R(23,24)                1.3448         estimate D2E/DX2                !
 ! R41   R(23,35)                1.0848         estimate D2E/DX2                !
 ! R42   R(24,25)                1.4545         estimate D2E/DX2                !
 ! R43   R(24,34)                1.0851         estimate D2E/DX2                !
 ! R44   R(25,26)                1.4923         estimate D2E/DX2                !
 ! R45   R(25,29)                1.3506         estimate D2E/DX2                !
 ! R46   R(26,27)                1.3934         estimate D2E/DX2                !
 ! R47   R(27,28)                1.5285         estimate D2E/DX2                !
 ! R48   R(28,30)                1.5147         estimate D2E/DX2                !
 ! R49   R(28,32)                1.1009         estimate D2E/DX2                !
 ! R50   R(28,46)                1.0874         estimate D2E/DX2                !
 ! R51   R(29,30)                1.489          estimate D2E/DX2                !
 ! R52   R(29,33)                1.0848         estimate D2E/DX2                !
 ! R53   R(30,31)                1.0912         estimate D2E/DX2                !
 ! R54   R(30,45)                1.0991         estimate D2E/DX2                !
 ! A1    A(2,1,5)              114.3352         estimate D2E/DX2                !
 ! A2    A(2,1,15)             113.3766         estimate D2E/DX2                !
 ! A3    A(5,1,15)             132.0491         estimate D2E/DX2                !
 ! A4    A(1,2,3)              122.5158         estimate D2E/DX2                !
 ! A5    A(1,2,18)             126.9871         estimate D2E/DX2                !
 ! A6    A(3,2,18)             109.3582         estimate D2E/DX2                !
 ! A7    A(2,3,4)              124.6865         estimate D2E/DX2                !
 ! A8    A(2,3,7)              108.1293         estimate D2E/DX2                !
 ! A9    A(4,3,7)              125.4866         estimate D2E/DX2                !
 ! A10   A(3,4,6)              113.7905         estimate D2E/DX2                !
 ! A11   A(3,4,10)             113.5194         estimate D2E/DX2                !
 ! A12   A(6,4,10)             132.3403         estimate D2E/DX2                !
 ! A13   A(1,5,6)              122.341          estimate D2E/DX2                !
 ! A14   A(1,5,37)             119.2534         estimate D2E/DX2                !
 ! A15   A(6,5,37)             118.3457         estimate D2E/DX2                !
 ! A16   A(4,6,5)              122.0311         estimate D2E/DX2                !
 ! A17   A(4,6,38)             119.6431         estimate D2E/DX2                !
 ! A18   A(5,6,38)             118.2777         estimate D2E/DX2                !
 ! A19   A(3,7,8)              121.5595         estimate D2E/DX2                !
 ! A20   A(3,7,11)             109.3338         estimate D2E/DX2                !
 ! A21   A(8,7,11)             127.0505         estimate D2E/DX2                !
 ! A22   A(7,8,9)              114.2197         estimate D2E/DX2                !
 ! A23   A(7,8,14)             114.2163         estimate D2E/DX2                !
 ! A24   A(9,8,14)             131.0149         estimate D2E/DX2                !
 ! A25   A(8,9,10)             122.7237         estimate D2E/DX2                !
 ! A26   A(8,9,40)             118.7552         estimate D2E/DX2                !
 ! A27   A(10,9,40)            118.4504         estimate D2E/DX2                !
 ! A28   A(4,10,9)             121.9087         estimate D2E/DX2                !
 ! A29   A(4,10,39)            119.5445         estimate D2E/DX2                !
 ! A30   A(9,10,39)            118.4828         estimate D2E/DX2                !
 ! A31   A(7,11,12)            119.7725         estimate D2E/DX2                !
 ! A32   A(7,11,18)            106.7499         estimate D2E/DX2                !
 ! A33   A(12,11,18)           131.2686         estimate D2E/DX2                !
 ! A34   A(11,12,13)           115.2593         estimate D2E/DX2                !
 ! A35   A(11,12,20)           122.8084         estimate D2E/DX2                !
 ! A36   A(13,12,20)           121.7891         estimate D2E/DX2                !
 ! A37   A(12,13,14)           122.3993         estimate D2E/DX2                !
 ! A38   A(12,13,19)           117.6497         estimate D2E/DX2                !
 ! A39   A(14,13,19)           119.7383         estimate D2E/DX2                !
 ! A40   A(8,14,13)            121.1636         estimate D2E/DX2                !
 ! A41   A(8,14,41)            120.9931         estimate D2E/DX2                !
 ! A42   A(13,14,41)           117.6222         estimate D2E/DX2                !
 ! A43   A(1,15,16)            121.3456         estimate D2E/DX2                !
 ! A44   A(1,15,36)            120.6372         estimate D2E/DX2                !
 ! A45   A(16,15,36)           118.0096         estimate D2E/DX2                !
 ! A46   A(15,16,17)           122.8621         estimate D2E/DX2                !
 ! A47   A(15,16,23)           119.4002         estimate D2E/DX2                !
 ! A48   A(17,16,23)           117.7368         estimate D2E/DX2                !
 ! A49   A(16,17,18)           115.3192         estimate D2E/DX2                !
 ! A50   A(16,17,26)           122.5781         estimate D2E/DX2                !
 ! A51   A(18,17,26)           122.0788         estimate D2E/DX2                !
 ! A52   A(2,18,11)            106.419          estimate D2E/DX2                !
 ! A53   A(2,18,17)            119.8471         estimate D2E/DX2                !
 ! A54   A(11,18,17)           133.2349         estimate D2E/DX2                !
 ! A55   A(13,19,22)           120.2358         estimate D2E/DX2                !
 ! A56   A(13,19,42)           119.0919         estimate D2E/DX2                !
 ! A57   A(22,19,42)           120.6254         estimate D2E/DX2                !
 ! A58   A(12,20,21)           115.5383         estimate D2E/DX2                !
 ! A59   A(12,20,27)           125.9348         estimate D2E/DX2                !
 ! A60   A(21,20,27)           118.5038         estimate D2E/DX2                !
 ! A61   A(20,21,22)           123.1138         estimate D2E/DX2                !
 ! A62   A(20,21,44)           120.3292         estimate D2E/DX2                !
 ! A63   A(22,21,44)           116.5566         estimate D2E/DX2                !
 ! A64   A(19,22,21)           121.5035         estimate D2E/DX2                !
 ! A65   A(19,22,43)           119.9426         estimate D2E/DX2                !
 ! A66   A(21,22,43)           118.5531         estimate D2E/DX2                !
 ! A67   A(16,23,24)           121.1396         estimate D2E/DX2                !
 ! A68   A(16,23,35)           118.2516         estimate D2E/DX2                !
 ! A69   A(24,23,35)           120.5321         estimate D2E/DX2                !
 ! A70   A(23,24,25)           122.5056         estimate D2E/DX2                !
 ! A71   A(23,24,34)           120.4573         estimate D2E/DX2                !
 ! A72   A(25,24,34)           116.9586         estimate D2E/DX2                !
 ! A73   A(24,25,26)           119.2669         estimate D2E/DX2                !
 ! A74   A(24,25,29)           120.2975         estimate D2E/DX2                !
 ! A75   A(26,25,29)           120.2631         estimate D2E/DX2                !
 ! A76   A(17,26,25)           113.7269         estimate D2E/DX2                !
 ! A77   A(17,26,27)           127.4326         estimate D2E/DX2                !
 ! A78   A(25,26,27)           118.8374         estimate D2E/DX2                !
 ! A79   A(20,27,26)           131.1609         estimate D2E/DX2                !
 ! A80   A(20,27,28)           112.999          estimate D2E/DX2                !
 ! A81   A(26,27,28)           115.545          estimate D2E/DX2                !
 ! A82   A(27,28,30)           109.7772         estimate D2E/DX2                !
 ! A83   A(27,28,32)           110.3052         estimate D2E/DX2                !
 ! A84   A(27,28,46)           109.9807         estimate D2E/DX2                !
 ! A85   A(30,28,32)           110.9628         estimate D2E/DX2                !
 ! A86   A(30,28,46)           108.2564         estimate D2E/DX2                !
 ! A87   A(32,28,46)           107.5068         estimate D2E/DX2                !
 ! A88   A(25,29,30)           117.6834         estimate D2E/DX2                !
 ! A89   A(25,29,33)           120.7495         estimate D2E/DX2                !
 ! A90   A(30,29,33)           121.4679         estimate D2E/DX2                !
 ! A91   A(28,30,29)           108.7947         estimate D2E/DX2                !
 ! A92   A(28,30,31)           112.3378         estimate D2E/DX2                !
 ! A93   A(28,30,45)           104.2842         estimate D2E/DX2                !
 ! A94   A(29,30,31)           113.2203         estimate D2E/DX2                !
 ! A95   A(29,30,45)           108.6479         estimate D2E/DX2                !
 ! A96   A(31,30,45)           109.1218         estimate D2E/DX2                !
 ! D1    D(5,1,2,3)             -2.9694         estimate D2E/DX2                !
 ! D2    D(5,1,2,18)          -169.4413         estimate D2E/DX2                !
 ! D3    D(15,1,2,3)           172.1006         estimate D2E/DX2                !
 ! D4    D(15,1,2,18)            5.6287         estimate D2E/DX2                !
 ! D5    D(2,1,5,6)              4.1069         estimate D2E/DX2                !
 ! D6    D(2,1,5,37)          -178.7551         estimate D2E/DX2                !
 ! D7    D(15,1,5,6)          -169.795          estimate D2E/DX2                !
 ! D8    D(15,1,5,37)            7.343          estimate D2E/DX2                !
 ! D9    D(2,1,15,16)           -1.5357         estimate D2E/DX2                !
 ! D10   D(2,1,15,36)          179.4846         estimate D2E/DX2                !
 ! D11   D(5,1,15,16)          172.4113         estimate D2E/DX2                !
 ! D12   D(5,1,15,36)           -6.5684         estimate D2E/DX2                !
 ! D13   D(1,2,3,4)             -1.9824         estimate D2E/DX2                !
 ! D14   D(1,2,3,7)           -167.7855         estimate D2E/DX2                !
 ! D15   D(18,2,3,4)           166.5949         estimate D2E/DX2                !
 ! D16   D(18,2,3,7)             0.7918         estimate D2E/DX2                !
 ! D17   D(1,2,18,11)          166.9106         estimate D2E/DX2                !
 ! D18   D(1,2,18,17)           -6.0234         estimate D2E/DX2                !
 ! D19   D(3,2,18,11)           -1.0213         estimate D2E/DX2                !
 ! D20   D(3,2,18,17)         -173.9553         estimate D2E/DX2                !
 ! D21   D(2,3,4,6)              5.4744         estimate D2E/DX2                !
 ! D22   D(2,3,4,10)          -168.5885         estimate D2E/DX2                !
 ! D23   D(7,3,4,6)            168.8408         estimate D2E/DX2                !
 ! D24   D(7,3,4,10)            -5.2221         estimate D2E/DX2                !
 ! D25   D(2,3,7,8)            164.5437         estimate D2E/DX2                !
 ! D26   D(2,3,7,11)            -0.2239         estimate D2E/DX2                !
 ! D27   D(4,3,7,8)             -1.1164         estimate D2E/DX2                !
 ! D28   D(4,3,7,11)          -165.8841         estimate D2E/DX2                !
 ! D29   D(3,4,6,5)             -4.1623         estimate D2E/DX2                !
 ! D30   D(3,4,6,38)           178.4041         estimate D2E/DX2                !
 ! D31   D(10,4,6,5)           168.4656         estimate D2E/DX2                !
 ! D32   D(10,4,6,38)           -8.9681         estimate D2E/DX2                !
 ! D33   D(3,4,10,9)             5.5816         estimate D2E/DX2                !
 ! D34   D(3,4,10,39)         -177.3733         estimate D2E/DX2                !
 ! D35   D(6,4,10,9)          -167.0616         estimate D2E/DX2                !
 ! D36   D(6,4,10,39)            9.9835         estimate D2E/DX2                !
 ! D37   D(1,5,6,4)             -0.5327         estimate D2E/DX2                !
 ! D38   D(1,5,6,38)           176.9345         estimate D2E/DX2                !
 ! D39   D(37,5,6,4)          -177.6956         estimate D2E/DX2                !
 ! D40   D(37,5,6,38)           -0.2283         estimate D2E/DX2                !
 ! D41   D(3,7,8,9)              6.8158         estimate D2E/DX2                !
 ! D42   D(3,7,8,14)          -165.6394         estimate D2E/DX2                !
 ! D43   D(11,7,8,9)           168.7184         estimate D2E/DX2                !
 ! D44   D(11,7,8,14)           -3.7368         estimate D2E/DX2                !
 ! D45   D(3,7,11,12)          164.5556         estimate D2E/DX2                !
 ! D46   D(3,7,11,18)           -0.4019         estimate D2E/DX2                !
 ! D47   D(8,7,11,12)            0.8462         estimate D2E/DX2                !
 ! D48   D(8,7,11,18)         -164.1113         estimate D2E/DX2                !
 ! D49   D(7,8,9,10)            -6.3363         estimate D2E/DX2                !
 ! D50   D(7,8,9,40)           176.7729         estimate D2E/DX2                !
 ! D51   D(14,8,9,10)          164.532          estimate D2E/DX2                !
 ! D52   D(14,8,9,40)          -12.3588         estimate D2E/DX2                !
 ! D53   D(7,8,14,13)            4.0779         estimate D2E/DX2                !
 ! D54   D(7,8,14,41)          178.5465         estimate D2E/DX2                !
 ! D55   D(9,8,14,13)         -166.7907         estimate D2E/DX2                !
 ! D56   D(9,8,14,41)            7.6779         estimate D2E/DX2                !
 ! D57   D(8,9,10,4)             0.1065         estimate D2E/DX2                !
 ! D58   D(8,9,10,39)         -176.9689         estimate D2E/DX2                !
 ! D59   D(40,9,10,4)          177.0063         estimate D2E/DX2                !
 ! D60   D(40,9,10,39)          -0.0691         estimate D2E/DX2                !
 ! D61   D(7,11,12,13)           1.6235         estimate D2E/DX2                !
 ! D62   D(7,11,12,20)        -174.093          estimate D2E/DX2                !
 ! D63   D(18,11,12,13)        162.3153         estimate D2E/DX2                !
 ! D64   D(18,11,12,20)        -13.4012         estimate D2E/DX2                !
 ! D65   D(7,11,18,2)            0.8659         estimate D2E/DX2                !
 ! D66   D(7,11,18,17)         172.4447         estimate D2E/DX2                !
 ! D67   D(12,11,18,2)        -161.6932         estimate D2E/DX2                !
 ! D68   D(12,11,18,17)          9.8856         estimate D2E/DX2                !
 ! D69   D(11,12,13,14)         -1.095          estimate D2E/DX2                !
 ! D70   D(11,12,13,19)       -175.7776         estimate D2E/DX2                !
 ! D71   D(20,12,13,14)        174.6695         estimate D2E/DX2                !
 ! D72   D(20,12,13,19)         -0.0131         estimate D2E/DX2                !
 ! D73   D(11,12,20,21)        172.2311         estimate D2E/DX2                !
 ! D74   D(11,12,20,27)         -9.5547         estimate D2E/DX2                !
 ! D75   D(13,12,20,21)         -3.2107         estimate D2E/DX2                !
 ! D76   D(13,12,20,27)        175.0035         estimate D2E/DX2                !
 ! D77   D(12,13,14,8)          -1.931          estimate D2E/DX2                !
 ! D78   D(12,13,14,41)       -176.5799         estimate D2E/DX2                !
 ! D79   D(19,13,14,8)         172.6441         estimate D2E/DX2                !
 ! D80   D(19,13,14,41)         -2.0048         estimate D2E/DX2                !
 ! D81   D(12,13,19,22)          3.3354         estimate D2E/DX2                !
 ! D82   D(12,13,19,42)       -179.14           estimate D2E/DX2                !
 ! D83   D(14,13,19,22)       -171.4944         estimate D2E/DX2                !
 ! D84   D(14,13,19,42)          6.0302         estimate D2E/DX2                !
 ! D85   D(1,15,16,17)          -1.9766         estimate D2E/DX2                !
 ! D86   D(1,15,16,23)         178.3617         estimate D2E/DX2                !
 ! D87   D(36,15,16,17)        177.0291         estimate D2E/DX2                !
 ! D88   D(36,15,16,23)         -2.6326         estimate D2E/DX2                !
 ! D89   D(15,16,17,18)          1.8017         estimate D2E/DX2                !
 ! D90   D(15,16,17,26)       -179.9403         estimate D2E/DX2                !
 ! D91   D(23,16,17,18)       -178.5312         estimate D2E/DX2                !
 ! D92   D(23,16,17,26)         -0.2733         estimate D2E/DX2                !
 ! D93   D(15,16,23,24)       -172.0895         estimate D2E/DX2                !
 ! D94   D(15,16,23,35)          4.7407         estimate D2E/DX2                !
 ! D95   D(17,16,23,24)          8.2316         estimate D2E/DX2                !
 ! D96   D(17,16,23,35)       -174.9382         estimate D2E/DX2                !
 ! D97   D(16,17,18,2)           1.8569         estimate D2E/DX2                !
 ! D98   D(16,17,18,11)       -168.8224         estimate D2E/DX2                !
 ! D99   D(26,17,18,2)        -176.4106         estimate D2E/DX2                !
 ! D100  D(26,17,18,11)         12.91           estimate D2E/DX2                !
 ! D101  D(16,17,26,25)        -13.3944         estimate D2E/DX2                !
 ! D102  D(16,17,26,27)        167.2576         estimate D2E/DX2                !
 ! D103  D(18,17,26,25)        164.7471         estimate D2E/DX2                !
 ! D104  D(18,17,26,27)        -14.6009         estimate D2E/DX2                !
 ! D105  D(13,19,22,21)         -3.3476         estimate D2E/DX2                !
 ! D106  D(13,19,22,43)        176.9958         estimate D2E/DX2                !
 ! D107  D(42,19,22,21)        179.1662         estimate D2E/DX2                !
 ! D108  D(42,19,22,43)         -0.4905         estimate D2E/DX2                !
 ! D109  D(12,20,21,22)          3.3797         estimate D2E/DX2                !
 ! D110  D(12,20,21,44)       -176.3812         estimate D2E/DX2                !
 ! D111  D(27,20,21,22)       -174.975          estimate D2E/DX2                !
 ! D112  D(27,20,21,44)          5.2641         estimate D2E/DX2                !
 ! D113  D(12,20,27,26)         26.4608         estimate D2E/DX2                !
 ! D114  D(12,20,27,28)       -160.174          estimate D2E/DX2                !
 ! D115  D(21,20,27,26)       -155.3727         estimate D2E/DX2                !
 ! D116  D(21,20,27,28)         17.9925         estimate D2E/DX2                !
 ! D117  D(20,21,22,19)         -0.2014         estimate D2E/DX2                !
 ! D118  D(20,21,22,43)        179.4598         estimate D2E/DX2                !
 ! D119  D(44,21,22,19)        179.5679         estimate D2E/DX2                !
 ! D120  D(44,21,22,43)         -0.7708         estimate D2E/DX2                !
 ! D121  D(16,23,24,25)         -1.0939         estimate D2E/DX2                !
 ! D122  D(16,23,24,34)        175.5862         estimate D2E/DX2                !
 ! D123  D(35,23,24,25)       -177.8522         estimate D2E/DX2                !
 ! D124  D(35,23,24,34)         -1.172          estimate D2E/DX2                !
 ! D125  D(23,24,25,26)        -13.9563         estimate D2E/DX2                !
 ! D126  D(23,24,25,29)        161.2824         estimate D2E/DX2                !
 ! D127  D(34,24,25,26)        169.2542         estimate D2E/DX2                !
 ! D128  D(34,24,25,29)        -15.5072         estimate D2E/DX2                !
 ! D129  D(24,25,26,17)         20.1449         estimate D2E/DX2                !
 ! D130  D(24,25,26,27)       -160.4461         estimate D2E/DX2                !
 ! D131  D(29,25,26,17)       -155.0954         estimate D2E/DX2                !
 ! D132  D(29,25,26,27)         24.3136         estimate D2E/DX2                !
 ! D133  D(24,25,29,30)       -175.62           estimate D2E/DX2                !
 ! D134  D(24,25,29,33)          0.8116         estimate D2E/DX2                !
 ! D135  D(26,25,29,30)         -0.4291         estimate D2E/DX2                !
 ! D136  D(26,25,29,33)        176.0026         estimate D2E/DX2                !
 ! D137  D(17,26,27,20)         -9.7488         estimate D2E/DX2                !
 ! D138  D(17,26,27,28)        177.021          estimate D2E/DX2                !
 ! D139  D(25,26,27,20)        170.9326         estimate D2E/DX2                !
 ! D140  D(25,26,27,28)         -2.2976         estimate D2E/DX2                !
 ! D141  D(20,27,28,30)        146.4474         estimate D2E/DX2                !
 ! D142  D(20,27,28,32)        -90.976          estimate D2E/DX2                !
 ! D143  D(20,27,28,46)         27.4373         estimate D2E/DX2                !
 ! D144  D(26,27,28,30)        -39.0851         estimate D2E/DX2                !
 ! D145  D(26,27,28,32)         83.4914         estimate D2E/DX2                !
 ! D146  D(26,27,28,46)       -158.0952         estimate D2E/DX2                !
 ! D147  D(27,28,30,29)         60.2152         estimate D2E/DX2                !
 ! D148  D(27,28,30,31)       -173.6205         estimate D2E/DX2                !
 ! D149  D(27,28,30,45)        -55.5817         estimate D2E/DX2                !
 ! D150  D(32,28,30,29)        -61.9708         estimate D2E/DX2                !
 ! D151  D(32,28,30,31)         64.1935         estimate D2E/DX2                !
 ! D152  D(32,28,30,45)       -177.7678         estimate D2E/DX2                !
 ! D153  D(46,28,30,29)       -179.7197         estimate D2E/DX2                !
 ! D154  D(46,28,30,31)        -53.5554         estimate D2E/DX2                !
 ! D155  D(46,28,30,45)         64.4833         estimate D2E/DX2                !
 ! D156  D(25,29,30,28)        -41.3161         estimate D2E/DX2                !
 ! D157  D(25,29,30,31)       -166.9686         estimate D2E/DX2                !
 ! D158  D(25,29,30,45)         71.6333         estimate D2E/DX2                !
 ! D159  D(33,29,30,28)        142.2793         estimate D2E/DX2                !
 ! D160  D(33,29,30,31)         16.6269         estimate D2E/DX2                !
 ! D161  D(33,29,30,45)       -104.7713         estimate D2E/DX2                !
 --------------------------------------------------------------------------------
 Trust Radius=3.00D-01 FncErr=1.00D-07 GrdErr=1.00D-06 EigMax=2.50D+02 EigMin=1.00D-04
 Number of steps in this run=    276 maximum allowed number of steps=    276.
 GradGradGradGradGradGradGradGradGradGradGradGradGradGradGradGradGradGrad

                          Input orientation:                          
 ---------------------------------------------------------------------
 Center     Atomic      Atomic             Coordinates (Angstroms)
 Number     Number       Type             X           Y           Z
 ---------------------------------------------------------------------
      1          6           0       -1.582558   -2.808393   -0.101157
      2          6           0       -1.438521   -1.470911    0.240755
      3          6           0       -2.530614   -0.614138    0.397465
      4          6           0       -3.844994   -0.974852    0.197700
      5          6           0       -2.951202   -3.249125   -0.213080
      6          6           0       -4.027529   -2.377561   -0.076531
      7          6           0       -2.047188    0.703037    0.460685
      8          6           0       -2.894642    1.801642    0.296892
      9          6           0       -4.308053    1.459345    0.217509
     10          6           0       -4.758643    0.155031    0.169619
     11          6           0       -0.649981    0.690355    0.350075
     12          6           0        0.029760    1.866948    0.064193
     13          6           0       -0.811906    3.060447   -0.063455
     14          6           0       -2.228056    3.013041    0.071837
     15          6           0       -0.347925   -3.454760   -0.382894
     16          6           0        0.866900   -2.756993   -0.339633
     17          6           0        0.950152   -1.329604   -0.048874
     18          6           0       -0.249251   -0.713430    0.220728
     19          6           0       -0.181318    4.273381   -0.445329
     20          6           0        1.456130    1.908315   -0.187510
     21          6           0        1.954242    3.135464   -0.623640
     22          6           0        1.155486    4.290898   -0.747743
     23          6           0        2.104871   -3.466185   -0.599475
     24          6           0        3.297821   -2.873681   -0.414242
     25          6           0        3.424980   -1.494524    0.030069
     26          6           0        2.228752   -0.603091   -0.006311
     27          6           0        2.418271    0.777183    0.015382
     28          6           0        3.869953    1.241421    0.131048
     29          6           0        4.586535   -1.053659    0.559752
     30          6           0        4.622201    0.338501    1.086680
     31          1           0        5.633244    0.696975    1.286901
     32          1           0        4.348105    1.251059   -0.860494
     33          1           0        5.441764   -1.715044    0.649050
     34          1           0        4.217001   -3.435678   -0.543200
     35          1           0        2.047169   -4.507397   -0.898308
     36          1           0       -0.322986   -4.505459   -0.655102
     37          1           0       -3.156006   -4.286576   -0.457007
     38          1           0       -5.028856   -2.770034   -0.223319
     39          1           0       -5.824190   -0.020854    0.060801
     40          1           0       -5.036042    2.260933    0.143412
     41          1           0       -2.780537    3.932755   -0.093597
     42          1           0       -0.779502    5.173845   -0.533101
     43          1           0        1.621939    5.209610   -1.085890
     44          1           0        2.995444    3.237591   -0.890015
     45          1           0        4.035694    0.377890    2.015436
     46          1           0        3.905714    2.255772    0.521337
 ---------------------------------------------------------------------
                    Distance matrix (angstroms):
                    1          2          3          4          5
     1  C    0.000000
     2  C    1.387987   0.000000
     3  C    2.441759   1.396884   0.000000
     4  C    2.927423   2.457446   1.377540   0.000000
     5  C    1.442206   2.378280   2.737301   2.477887   0.000000
     6  C    2.482762   2.761457   2.361162   1.440873   1.391671
     7  C    3.586320   2.268236   1.404510   2.473172   4.109840
     8  C    4.809619   3.582324   2.445123   2.936312   5.076763
     9  C    5.073801   4.101360   2.736970   2.477929   4.918957
    10  C    4.352323   3.697561   2.368047   1.453334   3.873187
    11  C    3.648910   2.303219   2.289264   3.606139   4.596984
    12  C    4.948305   3.650798   3.580834   4.807013   5.927665
    13  C    5.919342   4.584582   4.082766   5.054845   6.664058
    14  C    5.859666   4.556065   3.654313   4.305069   6.310217
    15  C    1.421789   2.348190   3.666364   4.326260   2.616902
    16  C    2.461576   2.702929   4.083900   5.066231   3.851767
    17  C    2.933287   2.410314   3.581458   4.814569   4.351102
    18  C    2.504034   1.410157   2.290352   3.605307   3.730748
    19  C    7.227271   5.920149   5.487926   6.432726   8.019619
    20  C    5.611454   4.470076   4.753850   6.046731   6.784130
    21  C    6.936237   5.785906   5.934316   7.155448   8.061943
    22  C    7.636419   6.395658   6.241651   7.323031   8.602482
    23  C    3.778643   4.152437   5.533153   6.499471   5.075460
    24  C    4.890847   4.982943   6.303575   7.416187   6.263522
    25  C    5.178698   4.868120   6.031514   7.290451   6.617661
    26  C    4.404366   3.776645   4.776476   6.088532   5.820324
    27  C    5.373692   4.469851   5.154922   6.506255   6.715251
    28  C    6.795939   5.962271   6.669433   8.027248   8.173835
    29  C    6.447759   6.047905   7.132554   8.439667   7.888905
    30  C    7.057828   6.381372   7.248814   8.614440   8.480381
    31  H    8.141382   7.470208   8.316170   9.685988   9.566314
    32  H    7.226929   6.488984   7.237278   8.555777   8.599458
    33  H    7.148379   6.896711   8.051962   9.327136   8.575462
    34  H    5.850109   6.038197   7.374025   8.461700   7.178225
    35  H    4.086194   4.761066   6.147568   6.956845   5.199663
    36  H    2.184813   3.354916   4.596074   5.059348   2.946401
    37  H    2.188011   3.371142   3.822046   3.445412   1.085242
    38  H    3.448676   3.846244   3.357748   2.191224   2.132201
    39  H    5.078193   4.622677   3.363476   2.201379   4.330220
    40  H    6.138765   5.184428   3.822008   3.448456   5.902066
    41  H    6.846772   5.577849   4.580157   5.030162   7.184901
    42  H    8.034152   6.722049   6.118259   6.909254   8.704316
    43  H    8.690620   7.466978   7.304798   8.353594   9.655341
    44  H    7.624587   6.565720   6.857896   8.106750   8.826003
    45  H    6.796846   6.044385   6.835082   8.199958   8.181579
    46  H    7.493624   6.521330   7.048265   8.403282   8.823863
                    6          7          8          9         10
     6  C    0.000000
     7  C    3.701410   0.000000
     8  C    4.346103   1.397118   0.000000
     9  C    3.858368   2.396382   1.456434   0.000000
    10  C    2.647478   2.781550   2.490387   1.380782   0.000000
    11  C    4.582786   1.401636   2.505253   3.740376   4.147317
    12  C    5.873436   2.413630   2.934372   4.359618   5.086313
    13  C    6.317621   2.712568   2.460128   3.855582   4.906373
    14  C    5.684954   2.349475   1.400883   2.600304   3.818593
    15  C    3.846258   4.570164   5.880275   6.339679   5.726281
    16  C    4.916160   4.593934   5.944368   6.698362   6.354995
    17  C    5.086874   3.657229   4.970583   5.958013   5.902730
    18  C    4.139212   2.301420   3.650956   4.603785   4.592543
    19  C    7.691839   4.129127   3.744665   5.038660   6.187962
    20  C    6.960716   3.761129   4.378954   5.795811   6.467221
    21  C    8.153181   4.806652   5.112547   6.537067   7.387494
    22  C    8.472456   4.958847   4.867360   6.228937   7.274879
    23  C    6.250192   5.978791   7.317691   8.127355   7.798239
    24  C    7.349894   6.490572   7.791723   8.776306   8.626738
    25  C    7.505399   5.912641   7.132568   8.280113   8.349383
    26  C    6.503440   4.495300   5.667790   6.858102   7.030604
    27  C    7.176991   4.488220   5.418100   6.763848   7.205481
    28  C    8.689669   5.950721   6.789779   8.181366   8.696804
    29  C    8.738402   6.863095   8.011857   9.249109   9.431092
    30  C    9.140453   6.708614   7.698537   9.042189   9.427348
    31  H   10.229480   7.724746   8.655937  10.027671  10.465818
    32  H    9.161481   6.553290   7.355275   8.725511   9.230128
    33  H    9.520132   7.871912   9.054654  10.262646  10.381490
    34  H    8.325243   7.574748   8.871907   9.859841   9.693477
    35  H    6.489490   6.764558   8.102714   8.788396   8.318520
    36  H    4.311187   5.598775   6.877444   7.226417   6.486554
    37  H    2.132757   5.193060   6.140283   5.898965   4.763295
    38  H    1.085467   4.628221   5.072052   4.312949   2.963684
    39  H    2.966634   3.866480   3.458248   2.124669   1.085434
    40  H    4.751957   3.385403   2.195472   1.085358   2.124255
    41  H    6.432369   3.357992   2.169595   2.923670   4.272398
    42  H    8.232974   4.752132   4.066259   5.177992   6.443281
    43  H    9.513173   6.013617   5.824589   7.136396   8.236316
    44  H    9.028501   5.803145   6.177687   7.598015   8.411353
    45  H    8.774076   6.286845   7.280798   8.603499   8.988719
    46  H    9.206604   6.152374   6.819197   8.257880   8.922326
                   11         12         13         14         15
    11  C    0.000000
    12  C    1.388577   0.000000
    13  C    2.411340   1.465993   0.000000
    14  C    2.821809   2.532059   1.423388   0.000000
    15  C    4.220244   5.353794   6.539514   6.750861   0.000000
    16  C    3.828947   4.716430   6.061128   6.560591   1.401624
    17  C    2.607647   3.328340   4.730498   5.382763   2.512541
    18  C    1.465581   2.600135   3.826158   4.221898   2.808734
    19  C    3.700052   2.468823   1.419393   2.458669   7.730189
    20  C    2.491611   1.448999   2.546917   3.854985   5.661746
    21  C    3.702520   2.405385   2.823298   4.241496   6.984911
    22  C    4.174784   2.793212   2.419275   3.708502   7.898644
    23  C    5.076187   5.760976   7.168810   7.823381   2.462366
    24  C    5.373237   5.777775   7.226810   8.088577   3.691896
    25  C    4.634804   4.777884   6.221552   7.230263   4.271753
    26  C    3.176022   3.307813   4.761342   5.739831   3.861748
    27  C    3.087674   2.625825   3.956457   5.156608   5.071470
    28  C    4.558668   3.891380   5.026578   6.350422   6.333147
    29  C    5.523282   5.435046   6.815968   7.950771   5.568012
    30  C    5.335006   4.946933   6.185573   7.423550   6.422665
    31  H    6.352685   5.853451   6.996386   8.284961   7.469906
    32  H    5.173077   4.458976   5.525837   6.871660   6.665248
    33  H    6.556271   6.516327   7.900719   9.028516   6.132864
    34  H    6.442795   6.783786   8.229198   9.137998   4.567780
    35  H    5.987462   6.754896   8.132869   8.704925   2.666490
    36  H    5.302244   6.422568   7.604737   7.790095   1.085674
    37  H    5.630398   6.948857   7.721945   7.377342   2.929630
    38  H    5.610492   6.868323   7.197412   6.432383   4.733437
    39  H    5.230864   6.150816   5.884968   4.704978   6.479047
    40  H    4.663363   5.081717   4.304108   2.907847   7.411112
    41  H    3.905032   3.491450   2.153448   1.085577   7.783102
    42  H    4.571483   3.456477   2.165195   2.670830   8.640697
    43  H    5.258068   3.876998   3.404097   4.581234   8.913242
    44  H    4.616856   3.403595   3.900064   5.316064   7.498190
    45  H    4.982631   4.698101   5.917527   7.067967   6.297405
    46  H    4.820189   3.922140   4.821351   6.196664   7.177831
                   16         17         18         19         20
    16  C    0.000000
    17  C    1.459079   0.000000
    18  C    2.394984   1.375108   0.000000
    19  C    7.108874   5.729820   5.031554   0.000000
    20  C    4.704831   3.280145   3.154129   2.888121   0.000000
    21  C    5.998668   4.612525   4.514679   2.426369   1.394353
    22  C    7.065593   5.667506   5.287203   1.370695   2.465958
    23  C    1.450187   2.490284   3.713796   8.071636   5.429165
    24  C    2.434863   2.833587   4.201380   7.948954   5.129398
    25  C    2.876505   2.481573   3.761174   6.819099   3.937388
    26  C    2.570027   1.471207   2.490827   5.457211   2.633807
    27  C    3.875976   2.568668   3.062641   4.381041   1.498780
    28  C    5.022667   3.894583   4.560409   5.092916   2.524434
    29  C    4.188786   3.697276   4.859580   7.219416   4.373914
    30  C    5.071364   4.189988   5.058406   6.395633   3.756578
    31  H    6.106844   5.274720   6.142452   7.042757   4.592332
    32  H    5.334282   4.343344   5.115070   5.460995   3.041120
    33  H    4.795053   4.561824   5.794337   8.287216   5.451040
    34  H    3.424212   3.918189   5.285984   8.876057   6.025544
    35  H    2.183819   3.467471   4.573836   9.070469   6.481969
    36  H    2.138336   3.474831   3.892557   8.782489   6.672360
    37  H    4.305482   5.076494   4.655741   9.062106   7.727943
    38  H    5.896918   6.152545   5.222205   8.553222   7.996454
    39  H    7.239992   6.900476   5.620070   7.109052   7.535676
    40  H    7.762579   6.983083   5.636149   5.288186   6.510157
    41  H    7.623455   6.450772   5.300306   2.644935   4.696437
    42  H    8.102238   6.746927   5.958979   1.084603   3.972552
    43  H    8.037024   6.654924   6.347520   2.130394   3.425365
    44  H    6.385034   5.074447   5.231860   3.370819   2.151738
    45  H    5.041339   4.086255   4.772076   6.246071   3.721468
    46  H    5.924818   4.681390   5.115688   4.659294   2.573646
                   21         22         23         24         25
    21  C    0.000000
    22  C    1.410121   0.000000
    23  C    6.603411   7.816371   0.000000
    24  C    6.161077   7.485454   1.344806   0.000000
    25  C    4.901754   6.263122   2.454885   1.454529   0.000000
    26  C    3.799111   5.064854   2.926516   2.542616   1.492293
    27  C    2.486998   3.810929   4.299121   3.779814   2.484820
    28  C    2.797660   4.176112   5.080426   4.190315   2.773733
    29  C    5.087056   6.484283   3.650034   2.433501   1.350606
    30  C    4.226843   5.568183   4.863713   3.784820   2.430997
    31  H    4.809517   6.091500   5.774057   4.593220   3.355402
    32  H    3.055759   4.409779   5.229973   4.279687   3.030427
    33  H    6.108189   7.509630   3.969907   2.658857   2.121128
    34  H    6.950285   8.313524   2.113100   1.085063   2.173480
    35  H    7.648359   8.844646   1.084783   2.113641   3.440589
    36  H    7.973109   8.920222   2.641529   3.978813   4.856175
    37  H    9.012718   9.604507   5.326365   6.606813   7.165345
    38  H    9.154170   9.400950   7.177477   8.329510   8.553273
    39  H    8.422280   8.243836   8.670426   9.569502   9.365885
    40  H    7.086413   6.576468   9.183921   9.804515   9.257710
    41  H    4.830606   4.006052   8.880734   9.131091   8.244943
    42  H    3.411239   2.137720   9.109014   9.022271   7.903289
    43  H    2.150856   1.084414   8.702830   8.282469   7.031482
    44  H    1.079577   2.124886   6.768910   6.137217   4.839831
    45  H    4.347572   5.589489   5.034158   4.125592   2.796531
    46  H    2.427565   3.649117   6.102462   5.249393   3.812764
                   26         27         28         29         30
    26  C    0.000000
    27  C    1.393393   0.000000
    28  C    2.472778   1.528488   0.000000
    29  C    2.466289   2.889583   2.442267   0.000000
    30  C    2.794606   2.489464   1.514719   1.488971   0.000000
    31  H    3.866928   3.458214   2.177524   2.165425   1.091238
    32  H    2.942645   2.171630   1.100853   2.717659   2.167805
    33  H    3.462569   3.969161   3.388156   1.084814   2.253941
    34  H    3.502133   4.614720   4.738176   2.650863   4.130995
    35  H    4.009019   5.375810   6.118090   4.527982   5.835554
    36  H    4.707523   5.989186   7.157192   6.123250   7.138111
    37  H    6.539634   7.545686   8.959278   8.451775   9.180131
    38  H    7.577309   8.252238   9.767607   9.798719  10.223600
    39  H    8.074242   8.281129   9.776230  10.473721  10.502792
    40  H    7.810396   7.601624   8.964168  10.185963   9.892783
    41  H    6.758291   6.082525   7.177936   8.919918   8.313378
    42  H    6.534531   5.464176   6.125560   8.292797   7.428502
    43  H    5.943165   4.636093   4.720278   7.122184   6.119586
    44  H    4.014921   2.684489   2.406664   4.800856   3.867607
    45  H    2.883544   2.603019   2.079441   2.114657   1.099150
    46  H    3.356145   2.157476   1.087434   3.378953   2.123416
                   31         32         33         34         35
    31  H    0.000000
    32  H    2.563181   0.000000
    33  H    2.502270   3.503224   0.000000
    34  H    4.736437   4.699294   2.425301   0.000000
    35  H    6.687343   6.201254   4.659917   2.445987   0.000000
    36  H    8.143302   7.416116   6.536021   4.665666   2.382601
    37  H   10.253190   9.334875   9.042001   7.422445   5.226523
    38  H   11.312882  10.222650  10.559731   9.275305   7.317388
    39  H   11.545189  10.292819  11.407806  10.623152   9.110832
    40  H   10.843763   9.491569  11.218221  10.887682   9.852276
    41  H    9.119636   7.654878  10.002769  10.171602   9.756560
    42  H    8.029825   6.464348   9.357266   9.954347  10.092071
    43  H    6.487263   4.811747   8.096414   9.042669   9.728116
    44  H    4.260479   2.403513   5.734265   6.793011   7.802829
    45  H    1.784585   3.021754   2.867824   4.595954   6.025792
    46  H    2.449550   1.764827   4.259476   5.798512   7.156119
                   36         37         38         39         40
    36  H    0.000000
    37  H    2.848360   0.000000
    38  H    5.034218   2.421173   0.000000
    39  H    7.133544   5.058035   2.875982   0.000000
    40  H    8.284599   6.838488   5.044321   2.415482   0.000000
    41  H    8.806719   8.235924   7.071007   4.991862   2.817528
    42  H    9.690832   9.754646   9.014332   7.265431   5.202005
    43  H    9.917201  10.649028  10.423618   9.171559   7.384754
    44  H    8.427454   9.728357  10.046165   9.450262   8.156384
    45  H    7.069439   8.921366   9.853300  10.059667   9.452339
    46  H    8.061027   9.676123  10.278121  10.003307   8.949740
                   41         42         43         44         45
    41  H    0.000000
    42  H    2.395331   0.000000
    43  H    4.690075   2.464503   0.000000
    44  H    5.871924   4.257544   2.411170   0.000000
    45  H    7.971580   7.258260   6.228158   4.207334   0.000000
    46  H    6.920720   5.619452   4.064968   1.945373   2.403262
                   46
    46  H    0.000000
 Stoichiometry    C30H16
 Framework group  C1[X(C30H16)]
 Deg. of freedom   132
 Full point group                 C1      NOp   1
 Largest Abelian subgroup         C1      NOp   1
 Largest concise Abelian subgroup C1      NOp   1
                         Standard orientation:                         
 ---------------------------------------------------------------------
 Center     Atomic      Atomic             Coordinates (Angstroms)
 Number     Number       Type             X           Y           Z
 ---------------------------------------------------------------------
      1          6           0       -1.582558   -2.808393   -0.101157
      2          6           0       -1.438521   -1.470911    0.240755
      3          6           0       -2.530614   -0.614138    0.397465
      4          6           0       -3.844994   -0.974852    0.197700
      5          6           0       -2.951202   -3.249125   -0.213080
      6          6           0       -4.027529   -2.377561   -0.076531
      7          6           0       -2.047188    0.703037    0.460685
      8          6           0       -2.894642    1.801642    0.296892
      9          6           0       -4.308053    1.459345    0.217509
     10          6           0       -4.758643    0.155030    0.169619
     11          6           0       -0.649981    0.690355    0.350075
     12          6           0        0.029760    1.866948    0.064193
     13          6           0       -0.811906    3.060447   -0.063455
     14          6           0       -2.228056    3.013041    0.071837
     15          6           0       -0.347925   -3.454760   -0.382894
     16          6           0        0.866900   -2.756993   -0.339633
     17          6           0        0.950152   -1.329604   -0.048874
     18          6           0       -0.249251   -0.713430    0.220728
     19          6           0       -0.181318    4.273381   -0.445329
     20          6           0        1.456130    1.908315   -0.187510
     21          6           0        1.954242    3.135464   -0.623640
     22          6           0        1.155486    4.290898   -0.747743
     23          6           0        2.104871   -3.466185   -0.599475
     24          6           0        3.297821   -2.873681   -0.414242
     25          6           0        3.424980   -1.494524    0.030069
     26          6           0        2.228752   -0.603091   -0.006311
     27          6           0        2.418271    0.777183    0.015382
     28          6           0        3.869953    1.241421    0.131048
     29          6           0        4.586535   -1.053658    0.559752
     30          6           0        4.622201    0.338502    1.086680
     31          1           0        5.633244    0.696976    1.286901
     32          1           0        4.348105    1.251059   -0.860494
     33          1           0        5.441764   -1.715043    0.649050
     34          1           0        4.217001   -3.435678   -0.543200
     35          1           0        2.047170   -4.507397   -0.898308
     36          1           0       -0.322985   -4.505459   -0.655102
     37          1           0       -3.156005   -4.286576   -0.457007
     38          1           0       -5.028856   -2.770035   -0.223319
     39          1           0       -5.824190   -0.020855    0.060801
     40          1           0       -5.036042    2.260932    0.143412
     41          1           0       -2.780537    3.932755   -0.093597
     42          1           0       -0.779503    5.173845   -0.533101
     43          1           0        1.621938    5.209610   -1.085890
     44          1           0        2.995444    3.237591   -0.890015
     45          1           0        4.035694    0.377890    2.015436
     46          1           0        3.905714    2.255772    0.521337
 ---------------------------------------------------------------------
 Rotational constants (GHZ):           0.2420805           0.1747271           0.1041440
 Standard basis: 6-311+G(d,p) (5D, 7F)
 There are   786 symmetry adapted cartesian basis functions of A   symmetry.
 There are   756 symmetry adapted basis functions of A   symmetry.
   756 basis functions,  1208 primitive gaussians,   786 cartesian basis functions
    98 alpha electrons       98 beta electrons
       nuclear repulsion energy      2630.1667318622 Hartrees.
 NAtoms=   46 NActive=   46 NUniq=   46 SFac= 1.00D+00 NAtFMM=   60 NAOKFM=F Big=F
 Integral buffers will be    131072 words long.
 Raffenetti 2 integral format.
 Two-electron integral symmetry is turned on.
 One-electron integrals computed using PRISM.
 NBasis=   756 RedAO= T EigKep=  1.03D-06  NBF=   756
 NBsUse=   735 1.00D-06 EigRej=  7.12D-07 NBFU=   735
 ExpMin= 4.38D-02 ExpMax= 4.56D+03 ExpMxC= 6.82D+02 IAcc=2 IRadAn=         4 AccDes= 0.00D+00
 Harris functional with IExCor=  402 and IRadAn=       4 diagonalized for initial guess.
 HarFok:  IExCor=  402 AccDes= 0.00D+00 IRadAn=         4 IDoV= 1 UseB2=F ITyADJ=14
 ICtDFT=  3500011 ScaDFX=  1.000000  1.000000  1.000000  1.000000
 FoFCou: FMM=F IPFlag=           0 FMFlag=      100000 FMFlg1=           0
         NFxFlg=           0 DoJE=T BraDBF=F KetDBF=T FulRan=T
         wScrn=  0.000000 ICntrl=       500 IOpCl=  0 I1Cent=   200000004 NGrid=           0
         NMat0=    1 NMatS0=      1 NMatT0=    0 NMatD0=    1 NMtDS0=    0 NMtDT0=    0
 Petite list used in FoFCou.
 Requested convergence on RMS density matrix=1.00D-08 within 128 cycles.
 Requested convergence on MAX density matrix=1.00D-06.
 Requested convergence on             energy=1.00D-06.
 No special actions if energy rises.
 SCF Done:  E(RB3LYP) =  -1153.09364883     A.U. after   17 cycles
            NFock= 17  Conv=0.60D-08     -V/T= 2.0044

 **********************************************************************

            Population analysis using the SCF Density.

 **********************************************************************

 Orbital symmetries:
       Occupied  (A) (A) (A) (A) (A) (A) (A) (A) (A) (A) (A) (A)
                 (A) (A) (A) (A) (A) (A) (A) (A) (A) (A) (A) (A)
                 (A) (A) (A) (A) (A) (A) (A) (A) (A) (A) (A) (A)
                 (A) (A) (A) (A) (A) (A) (A) (A) (A) (A) (A) (A)
                 (A) (A) (A) (A) (A) (A) (A) (A) (A) (A) (A) (A)
                 (A) (A) (A) (A) (A) (A) (A) (A) (A) (A) (A) (A)
                 (A) (A) (A) (A) (A) (A) (A) (A) (A) (A) (A) (A)
                 (A) (A) (A) (A) (A) (A) (A) (A) (A) (A) (A) (A)
                 (A) (A)
       Virtual   (A) (A) (A) (A) (A) (A) (A) (A) (A) (A) (A) (A)
                 (A) (A) (A) (A) (A) (A) (A) (A) (A) (A) (A) (A)
                 (A) (A) (A) (A) (A) (A) (A) (A) (A) (A) (A) (A)
                 (A) (A) (A) (A) (A) (A) (A) (A) (A) (A) (A) (A)
                 (A) (A) (A) (A) (A) (A) (A) (A) (A) (A) (A) (A)
                 (A) (A) (A) (A) (A) (A) (A) (A) (A) (A) (A) (A)
                 (A) (A) (A) (A) (A) (A) (A) (A) (A) (A) (A) (A)
                 (A) (A) (A) (A) (A) (A) (A) (A) (A) (A) (A) (A)
                 (A) (A) (A) (A) (A) (A) (A) (A) (A) (A) (A) (A)
                 (A) (A) (A) (A) (A) (A) (A) (A) (A) (A) (A) (A)
                 (A) (A) (A) (A) (A) (A) (A) (A) (A) (A) (A) (A)
                 (A) (A) (A) (A) (A) (A) (A) (A) (A) (A) (A) (A)
                 (A) (A) (A) (A) (A) (A) (A) (A) (A) (A) (A) (A)
                 (A) (A) (A) (A) (A) (A) (A) (A) (A) (A) (A) (A)
                 (A) (A) (A) (A) (A) (A) (A) (A) (A) (A) (A) (A)
                 (A) (A) (A) (A) (A) (A) (A) (A) (A) (A) (A) (A)
                 (A) (A) (A) (A) (A) (A) (A) (A) (A) (A) (A) (A)
                 (A) (A) (A) (A) (A) (A) (A) (A) (A) (A) (A) (A)
                 (A) (A) (A) (A) (A) (A) (A) (A) (A) (A) (A) (A)
                 (A) (A) (A) (A) (A) (A) (A) (A) (A) (A) (A) (A)
                 (A) (A) (A) (A) (A) (A) (A) (A) (A) (A) (A) (A)
                 (A) (A) (A) (A) (A) (A) (A) (A) (A) (A) (A) (A)
                 (A) (A) (A) (A) (A) (A) (A) (A) (A) (A) (A) (A)
                 (A) (A) (A) (A) (A) (A) (A) (A) (A) (A) (A) (A)
                 (A) (A) (A) (A) (A) (A) (A) (A) (A) (A) (A) (A)
                 (A) (A) (A) (A) (A) (A) (A) (A) (A) (A) (A) (A)
                 (A) (A) (A) (A) (A) (A) (A) (A) (A) (A) (A) (A)
                 (A) (A) (A) (A) (A) (A) (A) (A) (A) (A) (A) (A)
                 (A) (A) (A) (A) (A) (A) (A) (A) (A) (A) (A) (A)
                 (A) (A) (A) (A) (A) (A) (A) (A) (A) (A) (A) (A)
                 (A) (A) (A) (A) (A) (A) (A) (A) (A) (A) (A) (A)
                 (A) (A) (A) (A) (A) (A) (A) (A) (A) (A) (A) (A)
                 (A) (A) (A) (A) (A) (A) (A) (A) (A) (A) (A) (A)
                 (A) (A) (A) (A) (A) (A) (A) (A) (A) (A) (A) (A)
                 (A) (A) (A) (A) (A) (A) (A) (A) (A) (A) (A) (A)
                 (A) (A) (A) (A) (A) (A) (A) (A) (A) (A) (A) (A)
                 (A) (A) (A) (A) (A) (A) (A) (A) (A) (A) (A) (A)
                 (A) (A) (A) (A) (A) (A) (A) (A) (A) (A) (A) (A)
                 (A) (A) (A) (A) (A) (A) (A) (A) (A) (A) (A) (A)
                 (A) (A) (A) (A) (A) (A) (A) (A) (A) (A) (A) (A)
                 (A) (A) (A) (A) (A) (A) (A) (A) (A) (A) (A) (A)
                 (A) (A) (A) (A) (A) (A) (A) (A) (A) (A) (A) (A)
                 (A) (A) (A) (A) (A) (A) (A) (A) (A) (A) (A) (A)
                 (A) (A) (A) (A) (A) (A) (A) (A) (A) (A) (A) (A)
                 (A) (A) (A) (A) (A) (A) (A) (A) (A) (A) (A) (A)
                 (A) (A) (A) (A) (A) (A) (A) (A) (A) (A) (A) (A)
                 (A) (A) (A) (A) (A) (A) (A) (A) (A) (A) (A) (A)
                 (A) (A) (A) (A) (A) (A) (A) (A) (A) (A) (A) (A)
                 (A) (A) (A) (A) (A) (A) (A) (A) (A) (A) (A) (A)
                 (A) (A) (A) (A) (A) (A) (A) (A) (A) (A) (A) (A)
                 (A) (A) (A) (A) (A) (A) (A) (A) (A) (A) (A) (A)
                 (A) (A) (A) (A) (A) (A) (A) (A) (A) (A) (A) (A)
                 (A) (A) (A) (A) (A) (A) (A) (A) (A) (A) (A) (A)
                 (A)
 The electronic state is 1-A.
 Alpha  occ. eigenvalues --  -10.20891 -10.20474 -10.20350 -10.20274 -10.20272
 Alpha  occ. eigenvalues --  -10.19779 -10.19670 -10.19317 -10.19128 -10.19064
 Alpha  occ. eigenvalues --  -10.19049 -10.19026 -10.18999 -10.18962 -10.18926
 Alpha  occ. eigenvalues --  -10.18813 -10.18568 -10.18538 -10.18429 -10.18192
 Alpha  occ. eigenvalues --  -10.18141 -10.17968 -10.17958 -10.17945 -10.17890
 Alpha  occ. eigenvalues --  -10.17828 -10.17814 -10.16744 -10.16626 -10.16558
 Alpha  occ. eigenvalues --   -0.92302  -0.88537  -0.88017  -0.85215  -0.84083
 Alpha  occ. eigenvalues --   -0.83190  -0.80365  -0.79685  -0.78212  -0.77359
 Alpha  occ. eigenvalues --   -0.75240  -0.74696  -0.72574  -0.71481  -0.70751
 Alpha  occ. eigenvalues --   -0.66653  -0.65369  -0.63790  -0.63683  -0.62542
 Alpha  occ. eigenvalues --   -0.60008  -0.59434  -0.58298  -0.56434  -0.56138
 Alpha  occ. eigenvalues --   -0.53462  -0.51713  -0.51543  -0.50666  -0.50061
 Alpha  occ. eigenvalues --   -0.49173  -0.47889  -0.47207  -0.46235  -0.45406
 Alpha  occ. eigenvalues --   -0.44556  -0.44185  -0.44178  -0.43700  -0.43326
 Alpha  occ. eigenvalues --   -0.42272  -0.42013  -0.41091  -0.40466  -0.40202
 Alpha  occ. eigenvalues --   -0.39897  -0.39596  -0.39047  -0.38626  -0.38104
 Alpha  occ. eigenvalues --   -0.36584  -0.35721  -0.35280  -0.34879  -0.34725
 Alpha  occ. eigenvalues --   -0.34117  -0.33867  -0.32974  -0.32798  -0.31757
 Alpha  occ. eigenvalues --   -0.29589  -0.28812  -0.28192  -0.26724  -0.23785
 Alpha  occ. eigenvalues --   -0.22704  -0.20979  -0.18849
 Alpha virt. eigenvalues --   -0.08877  -0.08417  -0.04567  -0.03714  -0.01834
 Alpha virt. eigenvalues --   -0.00260   0.00626   0.00651   0.01211   0.01359
 Alpha virt. eigenvalues --    0.01541   0.01679   0.02405   0.02775   0.03056
 Alpha virt. eigenvalues --    0.03141   0.03411   0.04092   0.04242   0.04592
 Alpha virt. eigenvalues --    0.04938   0.05080   0.05784   0.05927   0.06446
 Alpha virt. eigenvalues --    0.06660   0.07112   0.07345   0.07735   0.08379
 Alpha virt. eigenvalues --    0.08424   0.08730   0.08775   0.08956   0.09516
 Alpha virt. eigenvalues --    0.10045   0.10302   0.10355   0.10746   0.11284
 Alpha virt. eigenvalues --    0.11463   0.11674   0.11979   0.12656   0.13070
 Alpha virt. eigenvalues --    0.13365   0.13639   0.14136   0.14314   0.14541
 Alpha virt. eigenvalues --    0.15042   0.15212   0.15346   0.15619   0.15869
 Alpha virt. eigenvalues --    0.15959   0.16359   0.16602   0.16809   0.16908
 Alpha virt. eigenvalues --    0.17304   0.17404   0.17537   0.17767   0.18037
 Alpha virt. eigenvalues --    0.18296   0.18343   0.18747   0.18975   0.19121
 Alpha virt. eigenvalues --    0.19493   0.19792   0.19982   0.20150   0.20328
 Alpha virt. eigenvalues --    0.20732   0.20895   0.20987   0.21188   0.21332
 Alpha virt. eigenvalues --    0.21478   0.21655   0.21778   0.22046   0.22418
 Alpha virt. eigenvalues --    0.22542   0.22651   0.23028   0.23313   0.23391
 Alpha virt. eigenvalues --    0.23500   0.23624   0.23989   0.24450   0.24742
 Alpha virt. eigenvalues --    0.24761   0.25060   0.25300   0.25467   0.25754
 Alpha virt. eigenvalues --    0.25843   0.26071   0.26447   0.26700   0.26979
 Alpha virt. eigenvalues --    0.27228   0.27428   0.27596   0.27749   0.28319
 Alpha virt. eigenvalues --    0.28556   0.28662   0.28771   0.29486   0.29839
 Alpha virt. eigenvalues --    0.29985   0.30183   0.30490   0.30801   0.31002
 Alpha virt. eigenvalues --    0.31302   0.31657   0.32103   0.32396   0.32896
 Alpha virt. eigenvalues --    0.33143   0.33350   0.33666   0.34311   0.34539
 Alpha virt. eigenvalues --    0.34892   0.35474   0.35873   0.35905   0.36491
 Alpha virt. eigenvalues --    0.36985   0.37082   0.37491   0.37906   0.38626
 Alpha virt. eigenvalues --    0.38699   0.39168   0.39388   0.39683   0.40338
 Alpha virt. eigenvalues --    0.40795   0.41295   0.41654   0.41907   0.42433
 Alpha virt. eigenvalues --    0.42813   0.43774   0.44177   0.45017   0.45987
 Alpha virt. eigenvalues --    0.46180   0.46955   0.47607   0.47771   0.48803
 Alpha virt. eigenvalues --    0.49378   0.49880   0.50699   0.51140   0.51724
 Alpha virt. eigenvalues --    0.52271   0.52484   0.52969   0.53755   0.54171
 Alpha virt. eigenvalues --    0.54487   0.54797   0.55006   0.56062   0.56313
 Alpha virt. eigenvalues --    0.56561   0.57075   0.57305   0.57758   0.58213
 Alpha virt. eigenvalues --    0.58427   0.58847   0.59059   0.59337   0.59646
 Alpha virt. eigenvalues --    0.59818   0.60099   0.60279   0.60850   0.61538
 Alpha virt. eigenvalues --    0.62082   0.62512   0.63035   0.63630   0.63923
 Alpha virt. eigenvalues --    0.64471   0.64837   0.65192   0.65775   0.66364
 Alpha virt. eigenvalues --    0.66570   0.67170   0.67576   0.68194   0.68582
 Alpha virt. eigenvalues --    0.68701   0.69126   0.69308   0.69580   0.69950
 Alpha virt. eigenvalues --    0.70376   0.70914   0.71053   0.71509   0.71761
 Alpha virt. eigenvalues --    0.71915   0.72290   0.72620   0.72851   0.73260
 Alpha virt. eigenvalues --    0.73470   0.73700   0.74244   0.74441   0.74829
 Alpha virt. eigenvalues --    0.75462   0.75765   0.76207   0.76317   0.76500
 Alpha virt. eigenvalues --    0.76978   0.77719   0.77874   0.78361   0.78854
 Alpha virt. eigenvalues --    0.79431   0.80166   0.80900   0.82467   0.83283
 Alpha virt. eigenvalues --    0.84248   0.84325   0.84585   0.85151   0.86042
 Alpha virt. eigenvalues --    0.86634   0.87242   0.87764   0.88433   0.88888
 Alpha virt. eigenvalues --    0.89190   0.89638   0.90330   0.90648   0.91157
 Alpha virt. eigenvalues --    0.91428   0.91672   0.91963   0.92709   0.93102
 Alpha virt. eigenvalues --    0.93635   0.93953   0.94453   0.94744   0.95066
 Alpha virt. eigenvalues --    0.95344   0.95488   0.95736   0.96136   0.96267
 Alpha virt. eigenvalues --    0.97124   0.97441   0.97865   0.98444   0.98594
 Alpha virt. eigenvalues --    0.99351   1.00133   1.00808   1.00973   1.02083
 Alpha virt. eigenvalues --    1.03358   1.03600   1.04161   1.04684   1.05052
 Alpha virt. eigenvalues --    1.05901   1.06410   1.07061   1.07840   1.08166
 Alpha virt. eigenvalues --    1.08943   1.09499   1.09860   1.11076   1.11445
 Alpha virt. eigenvalues --    1.11742   1.12514   1.13422   1.14580   1.15776
 Alpha virt. eigenvalues --    1.16519   1.17636   1.18953   1.19173   1.20632
 Alpha virt. eigenvalues --    1.21788   1.22918   1.23625   1.24124   1.25378
 Alpha virt. eigenvalues --    1.26125   1.26999   1.27704   1.29419   1.30578
 Alpha virt. eigenvalues --    1.32546   1.33527   1.34200   1.35284   1.36495
 Alpha virt. eigenvalues --    1.37927   1.38581   1.38850   1.39776   1.41171
 Alpha virt. eigenvalues --    1.43003   1.43861   1.44122   1.45121   1.46005
 Alpha virt. eigenvalues --    1.46285   1.47045   1.48452   1.49005   1.49220
 Alpha virt. eigenvalues --    1.49976   1.50226   1.50685   1.50849   1.51890
 Alpha virt. eigenvalues --    1.52634   1.53097   1.53645   1.54572   1.54829
 Alpha virt. eigenvalues --    1.55608   1.56042   1.56714   1.57812   1.58408
 Alpha virt. eigenvalues --    1.58804   1.59300   1.59578   1.60363   1.61580
 Alpha virt. eigenvalues --    1.61932   1.62545   1.63329   1.63486   1.64329
 Alpha virt. eigenvalues --    1.65012   1.65822   1.67081   1.67255   1.68617
 Alpha virt. eigenvalues --    1.69123   1.69808   1.69947   1.71304   1.71713
 Alpha virt. eigenvalues --    1.72387   1.73238   1.73926   1.74261   1.74495
 Alpha virt. eigenvalues --    1.74847   1.76331   1.76723   1.77510   1.77965
 Alpha virt. eigenvalues --    1.78097   1.78912   1.79527   1.81207   1.81958
 Alpha virt. eigenvalues --    1.82975   1.83318   1.83797   1.84324   1.84806
 Alpha virt. eigenvalues --    1.85815   1.86796   1.87106   1.87375   1.87618
 Alpha virt. eigenvalues --    1.88365   1.89003   1.89456   1.89883   1.90779
 Alpha virt. eigenvalues --    1.91208   1.92998   1.93509   1.94290   1.94551
 Alpha virt. eigenvalues --    1.95198   1.95318   1.96024   1.96522   1.96962
 Alpha virt. eigenvalues --    1.97654   1.98013   1.98705   1.99807   1.99930
 Alpha virt. eigenvalues --    2.00718   2.02771   2.03278   2.04096   2.04518
 Alpha virt. eigenvalues --    2.05189   2.05771   2.06481   2.07164   2.07928
 Alpha virt. eigenvalues --    2.09127   2.10448   2.11215   2.11669   2.11928
 Alpha virt. eigenvalues --    2.13127   2.14242   2.15000   2.16897   2.17847
 Alpha virt. eigenvalues --    2.18841   2.19214   2.19580   2.20310   2.21074
 Alpha virt. eigenvalues --    2.22171   2.23419   2.24052   2.24494   2.24824
 Alpha virt. eigenvalues --    2.26013   2.26245   2.27916   2.28732   2.30768
 Alpha virt. eigenvalues --    2.31246   2.32044   2.34301   2.35862   2.36646
 Alpha virt. eigenvalues --    2.38082   2.40100   2.40139   2.40808   2.41797
 Alpha virt. eigenvalues --    2.42045   2.43188   2.44214   2.44843   2.46653
 Alpha virt. eigenvalues --    2.48252   2.49079   2.51851   2.53336   2.54279
 Alpha virt. eigenvalues --    2.55753   2.56546   2.56688   2.57134   2.58703
 Alpha virt. eigenvalues --    2.59527   2.60211   2.62205   2.62952   2.64054
 Alpha virt. eigenvalues --    2.65976   2.67062   2.67123   2.68846   2.70414
 Alpha virt. eigenvalues --    2.70717   2.71621   2.71940   2.72145   2.72602
 Alpha virt. eigenvalues --    2.72872   2.73388   2.74103   2.74500   2.74956
 Alpha virt. eigenvalues --    2.75663   2.76142   2.76547   2.77295   2.78011
 Alpha virt. eigenvalues --    2.78346   2.78525   2.78844   2.79355   2.80092
 Alpha virt. eigenvalues --    2.80834   2.81495   2.82143   2.82207   2.83806
 Alpha virt. eigenvalues --    2.84531   2.85690   2.86614   2.87992   2.88324
 Alpha virt. eigenvalues --    2.89002   2.89806   2.91164   2.91868   2.92048
 Alpha virt. eigenvalues --    2.92998   2.94652   2.95932   2.96760   2.98074
 Alpha virt. eigenvalues --    2.99333   3.01159   3.01794   3.03458   3.03864
 Alpha virt. eigenvalues --    3.04622   3.06039   3.06693   3.07790   3.09936
 Alpha virt. eigenvalues --    3.11177   3.12555   3.13848   3.14126   3.15490
 Alpha virt. eigenvalues --    3.17952   3.18265   3.19614   3.20719   3.21809
 Alpha virt. eigenvalues --    3.23090   3.24030   3.24905   3.26145   3.28960
 Alpha virt. eigenvalues --    3.30959   3.32184   3.35261   3.35789   3.36425
 Alpha virt. eigenvalues --    3.38091   3.39988   3.40737   3.41647   3.42797
 Alpha virt. eigenvalues --    3.43739   3.44808   3.45237   3.47290   3.49239
 Alpha virt. eigenvalues --    3.49574   3.51962   3.54220   3.55775   3.57775
 Alpha virt. eigenvalues --    3.58996   3.62556   3.62959   3.65226   3.67792
 Alpha virt. eigenvalues --    3.69835   3.72446   3.81211   3.82911   3.83610
 Alpha virt. eigenvalues --    3.85066   3.87492   3.93495   3.94334   4.04544
 Alpha virt. eigenvalues --    4.05668   4.06455   4.07197   4.08025   4.13432
 Alpha virt. eigenvalues --    4.16551   4.20022   4.21482   4.24571   4.28130
 Alpha virt. eigenvalues --    4.34212   4.41342   4.48391   4.54291   4.71022
 Alpha virt. eigenvalues --    4.72206   4.76177   4.76917   4.77787   4.81029
 Alpha virt. eigenvalues --    4.87411   4.89839  23.38094  23.63329  23.66682
 Alpha virt. eigenvalues --   23.76781  23.78199  23.82559  23.83833  23.85414
 Alpha virt. eigenvalues --   23.87387  23.89298  23.89934  23.93701  23.94315
 Alpha virt. eigenvalues --   23.97006  23.98587  24.00281  24.04271  24.04804
 Alpha virt. eigenvalues --   24.06986  24.08077  24.08914  24.10258  24.10948
 Alpha virt. eigenvalues --   24.12640  24.13139  24.17040  24.19002  24.19185
 Alpha virt. eigenvalues --   24.20401  24.24755
          Condensed to atoms (all electrons):
               1          2          3          4          5          6
     1  C   13.737217   0.623929  -1.414422   1.744572  -3.689461   1.291454
     2  C    0.623929   9.552635   0.021867  -1.160142  -1.908588   2.221197
     3  C   -1.414422   0.021867  10.010369   0.796550   3.074731  -3.261341
     4  C    1.744572  -1.160142   0.796550  15.057996   0.082031  -1.871100
     5  C   -3.689461  -1.908588   3.074731   0.082031  13.950265  -1.712447
     6  C    1.291454   2.221197  -3.261341  -1.871100  -1.712447  14.405816
     7  C   -1.781208  -1.065358   1.442660  -2.914365   1.139944  -2.860013
     8  C    0.479859  -0.090608  -0.183779   2.063747   0.266153   0.419317
     9  C    0.824593  -0.315826   1.458630   0.817663  -0.242678  -0.445116
    10  C   -1.071596  -1.020457   0.266490  -3.620681   0.268057  -2.345198
    11  C   -2.147118  -0.124160  -1.580213  -1.997932  -0.210089   0.012811
    12  C   -0.196351  -0.043541  -0.556567  -0.373092  -0.157447  -0.033753
    13  C    0.438753  -0.186875  -0.399392   0.406044  -0.075486  -0.119549
    14  C   -0.178872  -0.247695  -0.812617  -0.500707  -0.099160   0.136949
    15  C    1.180015   0.520297  -0.782532  -0.420254  -1.653743   0.232900
    16  C   -0.247586  -1.131217  -0.478792   0.014203  -0.388959  -0.241505
    17  C   -0.696793   0.934640  -0.596629  -0.520360  -1.404509   0.664273
    18  C   -0.724838   0.444865  -0.808538  -1.678767  -1.497370  -0.528894
    19  C    0.170220   0.256815   0.486308   0.025719  -0.054639  -0.004889
    20  C    0.379083  -0.270313  -0.264381   0.284343  -0.023261   0.166502
    21  C    0.229193   0.030270   0.297109   0.274023   0.011360   0.036778
    22  C   -0.085035  -0.255201  -0.275724  -0.110061   0.006637  -0.005921
    23  C   -1.207914  -0.444157   0.211491   0.002872   0.649839  -0.345147
    24  C   -0.277880  -0.361652  -0.122509  -0.046604  -0.324542   0.033057
    25  C    0.097699  -0.308720   0.026477  -0.040989  -0.086907   0.093219
    26  C   -1.124821   0.247849  -0.398067  -0.115237  -0.073445  -0.111395
    27  C   -0.567260   0.092885  -0.150477  -0.301686   0.005362  -0.112868
    28  C   -0.090148  -0.043177  -0.059375  -0.017718  -0.003618  -0.004061
    29  C   -0.019606  -0.098448  -0.017137   0.007935  -0.024378   0.009502
    30  C    0.031739   0.032488   0.019339   0.004550   0.001244  -0.000090
    31  H   -0.000157  -0.000164  -0.000040  -0.000004  -0.000007   0.000000
    32  H   -0.000766  -0.000416  -0.000928  -0.000100   0.000020  -0.000012
    33  H    0.000365  -0.000371   0.000019  -0.000002   0.000014   0.000005
    34  H    0.001594   0.000967   0.000204   0.000018   0.000316  -0.000023
    35  H    0.039424   0.006255   0.000433   0.000218   0.003745   0.000915
    36  H   -0.026655   0.013818   0.003148   0.007690   0.056418   0.004224
    37  H   -0.054456   0.043617  -0.030080  -0.066822   0.329943   0.033751
    38  H   -0.030967  -0.007141   0.049027  -0.084162   0.045261   0.339564
    39  H    0.014093  -0.005869   0.021251  -0.086333   0.001212   0.031844
    40  H   -0.000684  -0.004116  -0.006314  -0.065089  -0.001364   0.000671
    41  H    0.001047   0.005309   0.002113   0.014073   0.000007   0.000058
    42  H   -0.000127  -0.000925   0.000557  -0.000270   0.000004   0.000019
    43  H    0.000008   0.000201   0.000363   0.000067  -0.000003   0.000004
    44  H   -0.000190  -0.000129  -0.000710  -0.000095  -0.000006  -0.000006
    45  H   -0.000544   0.001255  -0.001032  -0.000113   0.000084  -0.000030
    46  H    0.000540   0.001362   0.000407   0.000085   0.000025  -0.000007
               7          8          9         10         11         12
     1  C   -1.781208   0.479859   0.824593  -1.071596  -2.147118  -0.196351
     2  C   -1.065358  -0.090608  -0.315826  -1.020457  -0.124160  -0.043541
     3  C    1.442660  -0.183779   1.458630   0.266490  -1.580213  -0.556567
     4  C   -2.914365   2.063747   0.817663  -3.620681  -1.997932  -0.373092
     5  C    1.139944   0.266153  -0.242678   0.268057  -0.210089  -0.157447
     6  C   -2.860013   0.419317  -0.445116  -2.345198   0.012811  -0.033753
     7  C   12.528887  -0.262997  -2.528403   3.532434   1.995280   0.673374
     8  C   -0.262997  11.784810  -0.536117  -2.071549  -1.101114  -1.025998
     9  C   -2.528403  -0.536117  12.316091   0.146558  -2.628804  -0.828278
    10  C    3.532434  -2.071549   0.146558  11.233416   0.725328   0.169403
    11  C    1.995280  -1.101114  -2.628804   0.725328  12.400515   1.108892
    12  C    0.673374  -1.025998  -0.828278   0.169403   1.108892   7.348050
    13  C   -0.985089  -0.329024  -0.004521  -0.275740  -1.244735   0.801212
    14  C    0.489012   0.301928  -1.597267   0.047453   1.583468   0.244323
    15  C   -0.329385  -0.153824  -0.024052  -0.026147   0.025810   0.006885
    16  C   -0.396624   0.113106   0.017324  -0.126257  -0.762675  -0.233173
    17  C   -0.560575  -0.540631  -0.277018  -0.109587   0.477938   0.200458
    18  C    0.286099  -1.472872  -0.693375   0.675532   0.906716   0.442184
    19  C   -1.548492  -0.249903   0.812798  -0.223144  -1.619843  -1.494995
    20  C   -0.721275  -0.652269  -0.253224  -0.125221  -0.013755  -0.337088
    21  C    0.618506   0.435683   0.114468  -0.109702  -2.733327  -0.572552
    22  C    0.102454  -0.699863  -0.296378   0.057392   0.191788   1.791896
    23  C    0.216400   0.101742   0.004807   0.001187   0.545244   0.033108
    24  C   -0.222413  -0.034174  -0.008741  -0.002261  -0.092827  -0.086185
    25  C   -0.258512  -0.187140  -0.025614  -0.020305  -0.758054  -0.490625
    26  C   -0.385410  -0.134600  -0.038909   0.034200   1.620044   0.085305
    27  C   -0.240349  -0.289090  -0.039879   0.076008   2.023652   0.231396
    28  C   -0.047051  -0.070322  -0.004064   0.000931  -0.049384  -0.454561
    29  C    0.005954  -0.002481   0.001898  -0.002722  -0.231667   0.040353
    30  C    0.031417   0.015059   0.002285  -0.001072  -0.026081  -0.043540
    31  H   -0.000189  -0.000011   0.000000  -0.000000   0.000633  -0.002197
    32  H   -0.002714  -0.000578  -0.000047   0.000015   0.006496  -0.011223
[...]
 367,0.00050311,-0.00014376,0.00003885,-0.00002357,0.00002616,-0.000003
 76,-0.00000330,0.00000002,-0.00001725,-0.00000583,-0.00000440,-0.00000
 595,0.00000633,-0.00000637,-0.00001491,0.00001565,0.00001675,-0.000001
 28,-0.00000312,-0.00000275,0.00000243,0.00000879,0.00000419,0.00000174
 ,-0.00000299,-0.00000078,0.00000082,-0.00000358,-0.00000111,-0.0000009
 1,-0.00000436,0.00000004,-0.00000341,-0.00000307,0.00000116,-0.0000088
 3,-0.00002106,0.00000024,-0.00001047,0.00000990,-0.00000352,-0.0000311
 3,0.00006888,0.00006554,0.00076723,0.00010256,-0.00118558,0.11431608,-
 0.00006349,-0.00006994,-0.00000695,0.00004409,0.00004374,-0.00000273,0
 .00002559,0.00002795,0.00000097,-0.00002692,-0.00009160,-0.00001401,0.
 00010095,-0.00001176,0.00000231,-0.00004182,0.00009330,0.00001354,0.00
 010663,-0.00008779,0.00002984,-0.00001549,0.00023168,-0.00021010,-0.00
 000597,-0.00004225,-0.00002480,-0.00002841,0.00004346,0.00001483,-0.00
 017217,-0.00001442,-0.00005641,0.00068924,0.00029158,-0.00040297,0.001
 06251,0.00210274,0.00145253,-0.00020358,-0.00010397,0.00013824,0.00000
 864,-0.00000654,-0.00000057,-0.00004592,-0.00002563,-0.00000013,0.0000
 9542,0.00010160,0.00002754,-0.00003508,-0.00001564,-0.00001399,0.00138
 659,0.00286116,-0.00010256,0.00409189,-0.00171647,0.00118289,-0.012969
 32,-0.01784703,0.00763549,-0.10095570,-0.25666175,0.07399236,-0.000016
 88,0.00001213,0.00000241,0.00006879,0.00001798,0.00000521,-0.00008933,
 -0.00004544,-0.00004705,0.00036303,-0.00027062,0.00003441,-0.00096525,
 -0.00064589,0.00027167,-0.00008289,-0.00003668,0.00003553,0.00005386,-
 0.00005699,-0.00002732,0.00002415,0.00000503,-0.00001740,0.00002815,-0
 .00000444,0.00001160,0.00001965,-0.00002888,-0.00002017,0.00001080,-0.
 00000111,0.00000540,0.00000594,-0.00002228,-0.00000380,-0.00000309,-0.
 00000981,-0.00000146,-0.00000189,-0.00000847,-0.00000143,-0.00000038,-
 0.00000694,-0.00000330,-0.00000693,-0.00000060,-0.00000208,-0.00000690
 ,-0.00000312,0.00000443,-0.00000830,0.00000551,0.00000010,-0.00000940,
 0.00000739,0.00004925,-0.00055373,0.00051689,-0.00119879,0.10812532,0.
 27073816,-0.00007777,-0.00006784,-0.00000922,0.00008711,0.00008461,0.0
 0002122,0.00005609,0.00009450,-0.00000460,-0.00003189,-0.00010699,-0.0
 0002268,0.00010956,-0.00003399,-0.00000292,-0.00002756,0.00011749,0.00
 001513,-0.00004703,-0.00005837,0.00016012,0.00022991,0.00003306,-0.000
 73727,-0.00004165,-0.00003877,-0.00009383,0.00000939,0.00004440,0.0000
 5472,-0.00010008,0.00001230,-0.00052108,0.00000012,-0.00055203,-0.0005
 1033,0.00261135,0.00109583,0.00772889,-0.00017653,0.00050689,0.0002193
 1,0.00002714,0.00000568,0.00000334,0.00000030,-0.00007036,-0.00000491,
 0.00014288,0.00009462,0.00003996,-0.00005590,-0.00006955,0.00000078,0.
 00137818,0.00602971,0.00215410,0.00026403,0.00044926,0.00514729,0.0014
 2921,0.00261207,0.00170312,0.04080753,0.07343489,-0.06276328,-0.000017
 10,0.00000273,-0.00000028,0.00000637,0.00000419,0.00001798,-0.00005260
 ,0.00000407,-0.00006683,-0.00007068,-0.00028245,-0.00025469,-0.0000483
 9,0.00050923,0.00024653,-0.00012763,0.00005786,0.00001319,0.00000423,0
 .00003296,0.00000048,0.00002175,0.00000908,0.00004022,-0.00001198,0.00
 000177,0.00000122,-0.00000880,-0.00002174,-0.00002153,0.00000031,0.000
 00381,-0.00000115,-0.00000261,-0.00000175,0.00000766,-0.00000092,0.000
 00257,-0.00000096,0.00000023,0.00000226,0.00000089,0.00000365,0.000002
 84,-0.00000387,0.00000073,0.00000131,-0.00000050,-0.00000112,0.0000036
 7,0.00001776,0.00000354,-0.00000166,0.00000203,0.00001771,0.00002195,0
 .00019300,-0.00096625,-0.00127638,-0.00431128,-0.04454564,-0.08182722,
 0.05422818,-0.00007814,0.00005874,0.00002114,-0.00004136,-0.00010901,-
 0.00001521,-0.00006713,0.00005685,-0.00001214,-0.00000211,-0.00006125,
 -0.00000228,0.00002732,-0.00004591,-0.00001610,-0.00000287,0.00004202,
 0.00000866,0.00003681,-0.00031856,-0.00008773,0.00004344,0.00002954,0.
 00000489,0.00001711,-0.00001461,0.00003152,-0.00001523,-0.00000587,-0.
 00000849,-0.00058497,0.00025797,0.00023235,0.00147265,-0.00162382,0.00
 153815,0.00051283,0.00019911,-0.00033556,-0.00007956,-0.00000954,-0.00
 010000,0.00010263,-0.00001357,-0.00001243,-0.00006304,-0.00006399,-0.0
 0000878,0.00019000,0.00008553,-0.00001471,-0.00002955,0.00018111,0.000
 02547,0.00012622,0.00353336,0.00018504,-0.00808118,-0.00043522,0.00228
 658,-0.32392264,-0.02805283,0.06759640,-0.01428567,-0.00337845,0.00472
 770,-0.00000408,0.00003272,0.00001143,0.00003647,-0.00004442,-0.000033
 20,-0.00003694,-0.00000219,0.00004250,-0.00008350,-0.00051101,0.000019
 34,-0.00151769,0.00040413,-0.00100959,-0.00192441,0.00332196,-0.002969
 63,-0.00018005,0.00001759,-0.00027739,0.00047038,0.00106868,0.00013932
 ,0.00000149,-0.00003338,0.00002653,-0.00038537,0.00042495,-0.00064577,
 -0.00001337,0.00006470,0.00010276,0.00000818,-0.00000852,0.00000230,0.
 00000515,-0.00000560,0.00000069,0.00000152,-0.00000810,0.00000049,-0.0
 0000050,-0.00000520,0.00000078,-0.00000569,-0.00000857,0.00000263,-0.0
 0000645,-0.00000405,-0.00000448,-0.00000568,0.00000392,-0.00000237,0.0
 0001466,0.00000502,0.00000661,-0.00075071,-0.00017898,0.00016287,0.000
 87001,0.00005384,-0.00077734,0.34908133,0.00004177,0.00007666,0.000021
 74,-0.00005022,-0.00017040,-0.00002678,-0.00020105,0.00002927,0.000027
 86,0.00000170,0.00007796,0.00001169,-0.00010670,-0.00002441,-0.0000162
 8,0.00005533,-0.00009217,-0.00002228,-0.00015821,-0.00034010,-0.000198
 10,-0.00006506,-0.00028620,0.00007116,0.00010460,0.00005235,0.00003176
 ,-0.00002169,-0.00009341,-0.00000729,-0.00136003,0.00079229,0.00011171
 ,-0.00047258,-0.00469410,0.00347767,-0.00043464,-0.00074295,0.00007458
 ,0.00039149,0.00025169,-0.00024355,0.00003028,-0.00001720,-0.00001126,
 0.00000873,0.00009079,0.00000914,-0.00015180,-0.00009894,-0.00001046,0
 .00014676,0.00019153,0.00004177,0.00253236,-0.00369744,0.00176639,-0.0
 2671249,0.00234374,0.00530204,-0.02648997,-0.05846094,0.01102924,0.027
 45033,0.00428666,-0.00561136,0.00002147,0.00003609,0.00001505,0.000000
 99,-0.00011181,-0.00005159,0.00010284,-0.00003398,0.00013637,0.0002347
 6,0.00021126,-0.00006753,-0.00115539,0.00049392,-0.00104815,0.00086016
 ,-0.00206716,0.00167285,-0.00009113,-0.00018989,-0.00017511,0.00035207
 ,-0.00001187,-0.00020651,-0.00005062,0.00002604,-0.00000762,0.00120695
 ,-0.00084790,-0.00008922,-0.00002637,0.00005035,0.00010279,-0.00000036
 ,0.00000929,0.00000532,0.00001416,0.00000071,0.00000242,0.00000352,-0.
 00000309,0.00000067,-0.00000211,-0.00000193,0.00000365,-0.00000154,-0.
 00001227,0.00000593,-0.00000025,-0.00000310,-0.00000406,-0.00001425,0.
 00000045,-0.00000389,-0.00008073,0.00003253,0.00001865,0.00119975,0.00
 000666,-0.00021666,-0.00042239,0.00072424,-0.00093383,0.02222403,0.063
 00942,-0.00010094,-0.00003011,0.00000982,-0.00002658,0.00007744,-0.000
 03193,0.00006683,-0.00009486,0.00001364,0.00006729,-0.00011722,0.00000
 720,0.00013124,-0.00003197,-0.00001126,-0.00003990,0.00012468,0.000013
 87,0.00035540,0.00006925,-0.00079666,0.00002916,0.00031248,0.00002347,
 -0.00011370,-0.00004791,0.00012148,-0.00003574,0.00013926,-0.00001434,
 0.00027382,-0.00066080,0.00054277,0.00188710,0.00412602,0.00620744,-0.
 00007594,0.00050608,-0.00082190,-0.00035371,-0.00037372,-0.00052206,0.
 00007361,-0.00000955,-0.00000776,-0.00005156,-0.00008067,-0.00001827,0
 .00019197,-0.00001440,-0.00004636,-0.00008484,0.00000261,0.00005453,-0
 .00047289,0.00128510,0.00508986,0.00737992,-0.00146793,0.00183173,0.06
 659383,0.01313251,-0.05202679,-0.00253843,-0.00047619,0.00417154,0.000
 02351,-0.00005923,-0.00003897,-0.00004987,0.00003036,0.00003796,0.0000
 3832,-0.00012889,0.00017073,-0.00021621,-0.00055398,-0.00013370,-0.000
 15763,-0.00108225,-0.00314603,-0.00053756,0.00144949,0.00089855,0.0000
 7556,-0.00008251,-0.00004384,-0.00001821,-0.00013537,-0.00043305,-0.00
 003059,0.00003032,0.00000494,0.00011005,-0.00014959,0.00006093,-0.0000
 5752,-0.00013321,0.00008990,0.00000537,0.00000057,0.00001584,-0.000006
 37,-0.00000009,0.00000130,-0.00000040,0.00000026,0.00000551,0.00000286
 ,0.00000076,0.00000053,-0.00000250,-0.00000189,0.00002370,0.00000366,0
 .00000377,-0.00001737,0.00000067,-0.00000292,0.00000139,0.00002307,0.0
 0001969,0.00004226,-0.00017187,0.00005945,0.00012967,-0.00065826,-0.00
 093856,-0.00270507,-0.06989943,-0.01647139,0.04330974,0.00020065,-0.00
 005532,-0.00002540,0.00002457,0.00004395,0.00002957,-0.00003908,-0.000
 06142,-0.00000161,0.00006982,0.00009715,0.00000878,-0.00012163,0.00001
 400,-0.00000022,0.00005343,-0.00010385,-0.00001893,0.00008904,0.000057
 06,-0.00001411,-0.00002663,-0.00001692,0.00000322,-0.00000523,0.000015
 67,-0.00000363,-0.00000899,0.00000307,-0.00000082,-0.00009324,0.000065
 86,-0.00000340,0.00005525,-0.00008235,0.00007199,0.00002985,-0.0000234
 2,0.00002093,0.00001926,-0.00000586,-0.00001336,-0.00025614,-0.0000335
 1,-0.00000170,0.00034039,0.00005558,0.00002822,-0.00028529,-0.00022987
 ,-0.00014793,0.00000881,-0.00003647,0.00000323,0.00001632,-0.00002290,
 -0.00001192,-0.00002547,0.00040531,-0.00046861,0.00003739,-0.00007401,
 0.00003952,-0.00005806,0.00000664,-0.00003627,-0.00028966,-0.00011181,
 -0.00007777,-0.00002261,0.00029393,0.00065375,-0.00119224,-0.00122627,
 -0.00098756,0.00076787,-0.00120763,0.00071229,0.00163385,0.00003958,0.
 00127891,0.00591271,0.00012652,-0.01889661,0.00143370,0.00135155,-0.00
 367765,-0.06703682,0.00120715,0.06634293,-0.00946847,0.00073649,0.0296
 1802,-0.00138235,0.00241171,-0.00305190,0.00019085,0.00039851,-0.00023
 285,0.00000843,0.00000111,0.00003674,-0.00001490,0.00002722,-0.0000894
 3,0.00000122,0.00001092,0.00000218,0.,0.00000623,0.00000436,0.00000586
 ,0.00000025,0.00000262,0.00000644,0.00000149,0.00000119,0.00000355,-0.
 00000461,0.00000191,0.00000588,-0.00000031,0.00001200,0.00000244,0.000
 00024,0.00001022,0.00000188,-0.00001745,0.00000685,0.00002365,-0.00009
 700,0.00003478,0.06848250,0.00023521,-0.00009012,-0.00004285,0.0000222
 4,0.00011117,0.00006084,-0.00005290,-0.00002992,-0.00003153,-0.0000148
 7,0.00006816,0.00003115,-0.00010967,0.00003161,0.00001672,0.00005944,-
 0.00004765,-0.00001004,-0.00001322,0.00003325,0.00000594,-0.00002713,-
 0.00001679,-0.00000124,-0.00001301,0.00003082,0.00000236,0.00004234,-0
 .00002120,0.00000120,0.00001536,0.00006773,-0.00000954,-0.00007792,0.0
 0008635,-0.00001003,-0.00001647,-0.00001709,-0.00003812,0.00004462,-0.
 00000170,0.00001110,-0.00026875,0.00005684,0.00004765,0.00041220,-0.00
 010119,0.00000151,-0.00012467,-0.00011104,0.00002529,-0.00010762,-0.00
 002516,0.00003672,0.00005529,0.00006996,-0.00001505,0.00014319,-0.0001
 5349,0.00049040,-0.00005624,-0.00010712,-0.00003704,-0.00003077,0.0000
 5297,0.00000084,0.00024074,-0.00049886,-0.00025705,-0.00119963,-0.0009
 5904,0.00240844,0.00083863,-0.00099109,-0.00038280,0.00133728,0.000128
 59,-0.00113959,-0.00102189,0.00061382,-0.00034663,-0.00667054,-0.00070
 606,0.02069574,0.00644395,-0.00389689,-0.03118271,0.00318568,-0.044204
 12,-0.01169743,-0.00285989,0.00013371,0.01008156,0.00347898,-0.0020676
 3,0.00291680,0.00001762,-0.00131791,0.00056184,-0.00001451,-0.00001784
 ,-0.00007300,-0.00006870,0.00006716,-0.00030986,0.00000878,0.00001694,
 -0.00001455,0.00000271,-0.00000418,-0.00000220,-0.00001048,-0.00000237
 ,-0.00000284,-0.00000941,0.00000098,-0.00000240,-0.00000037,0.00000541
 ,-0.00000088,-0.00000325,0.00000225,-0.00000725,0.00000664,-0.00000041
 ,-0.00000587,-0.00000215,0.00001509,0.00000443,0.00000805,0.00015092,-
 0.00001585,-0.00307719,0.05287864,-0.00028763,0.00014164,0.00004632,-0
 .00021154,-0.00009447,-0.00001242,0.00010141,-0.00001778,-0.00000668,-
 0.00013326,-0.00013101,-0.00001452,0.00018031,-0.00001293,0.00001224,-
 0.00006844,0.00017488,0.00003094,-0.00005548,-0.00003914,0.00001171,0.
 00000438,0.00002247,-0.00000994,-0.00001182,-0.00001293,0.00000912,0.0
 0001950,-0.00000430,0.00000243,0.00002311,-0.00005321,-0.00000045,0.00
 001179,0.00000353,0.00000027,-0.00001329,0.00006933,-0.00000068,-0.000
 00673,-0.00002671,0.00001982,0.00043485,0.00008818,0.00000733,-0.00052
 380,-0.00012409,0.00006082,-0.00005866,0.00009359,0.00004844,0.0000974
 2,0.00006609,-0.00000681,-0.00004361,0.00003499,0.00000425,0.00000382,
 -0.00021428,-0.00022254,0.00019544,0.00023265,0.00007781,-0.00005192,-
 0.00009960,-0.00002239,0.00076836,-0.00009905,-0.00003270,-0.00081632,
 -0.00107004,0.00012476,0.00388664,-0.00051740,0.00206287,-0.00122824,0
 .00143285,-0.00000011,0.00007040,-0.00079754,-0.00002704,0.00522979,0.
 00131794,-0.01877818,-0.00057530,-0.00927133,-0.01091371,0.06567581,-0
 .00226250,-0.25972150,0.00167872,0.00042396,-0.00171535,-0.00258417,0.
 00280100,-0.00092308,-0.00011107,-0.00049479,-0.00122779,-0.00000472,0
 .00005888,-0.00006321,-0.00002198,0.00000879,-0.00007351,0.00000572,0.
 00000480,-0.00001762,0.00000429,-0.00000377,-0.00000789,-0.00000719,0.
 00000169,-0.00000403,-0.00000594,-0.00000084,-0.00000300,-0.00000153,0
 .00000449,-0.00000349,-0.00000164,0.00000223,-0.00000679,-0.00001367,0
 .00000342,0.00001029,0.00000495,0.00000502,-0.00001477,-0.00000105,-0.
 00012115,0.00006057,-0.07188087,0.00835342,0.29000124,-0.00024269,0.00
 016590,0.00007888,-0.00014050,-0.00001181,-0.00012985,0.00004793,0.000
 05594,0.00004628,-0.00006841,-0.00009837,-0.00000353,0.00011605,0.0000
 1021,0.00001212,-0.00010141,0.00009932,0.00000834,-0.00037426,0.000006
 65,-0.00001730,0.00006540,-0.00025967,-0.00000180,-0.00004090,0.000010
 96,0.00001194,0.00002360,-0.00001974,-0.00000760,0.00042954,-0.0005271
 8,-0.00005409,0.00030717,-0.00012985,0.00028906,-0.00023903,-0.0001016
 4,-0.00013079,0.00020729,0.00014734,-0.00001619,0.00036005,-0.00009054
 ,-0.00013585,-0.00070655,-0.00017665,-0.00001482,0.00069669,-0.0009012
 1,0.00110934,-0.00001392,0.00032899,0.00000950,0.00028823,0.00009804,-
 0.00004649,-0.00064199,-0.00161736,0.00006199,-0.00064819,0.00126305,-
 0.00137762,-0.00040676,0.00043425,0.00008443,0.00001168,0.00016479,0.0
 0009540,0.00021536,-0.00014668,0.00007763,0.00028262,0.00025657,-0.000
 64072,-0.00587372,-0.00013989,-0.00046359,-0.00262926,-0.02816600,-0.0
 1336092,-0.04438221,0.00001106,0.00126578,-0.00235127,0.00124271,-0.00
 294160,-0.00060905,0.01894790,0.00696668,-0.00001350,-0.00018833,0.000
 47652,-0.00011268,0.01228668,0.00528864,-0.00003338,0.00083043,0.00052
 161,-0.00001485,-0.00006130,-0.00004113,0.00001749,-0.00001615,-0.0000
 0445,-0.00003675,-0.00003201,-0.00000120,-0.00000333,-0.00000244,-0.00
 000302,0.00000094,0.00000329,0.00000019,-0.00000026,0.00000429,-0.0000
 0261,0.00000206,-0.00000065,0.00000022,0.00001332,0.00000171,0.0000085
 0,0.00002029,0.00000174,-0.00000222,-0.00000190,-0.00003881,-0.0000287
 2,-0.00087393,0.00118254,-0.00166737,0.00090119,-0.00074769,0.00032319
 ,0.05655381,0.00010296,-0.00026383,-0.00006463,0.00033347,0.00027775,-
 0.00000660,0.00002819,0.00016883,0.00000184,-0.00006790,-0.00007785,-0
 .00001729,0.00005610,0.00004688,0.00002522,-0.00004865,0.00003718,0.00
 000815,-0.00020680,-0.00005744,0.00004958,0.00006006,0.00013191,-0.000
 04091,-0.00004574,0.00003213,0.00000968,0.00008788,0.00001254,0.000010
 75,0.00029101,0.00051227,-0.00015202,-0.00150028,0.00006064,0.00040810
 ,0.00015616,-0.00037323,0.00006849,-0.00018382,-0.00001156,0.00001277,
 -0.00028390,-0.00001249,-0.00001030,0.00005232,-0.00005403,0.00012078,
 0.00008149,-0.00037748,0.00017529,-0.00005627,-0.00067702,-0.00000025,
 0.00023814,-0.00007483,-0.00014349,0.00276616,-0.00114763,0.00120644,0
 .00257433,-0.00092200,0.00255388,0.00036949,0.00032780,0.00014706,-0.0
 0009665,-0.00002150,-0.00000244,0.00003265,0.00012598,0.00006063,-0.00
 054273,0.00070811,-0.00012839,-0.00118056,0.00007208,-0.00029782,-0.00
 270412,-0.00993148,-0.00426598,-0.00344235,-0.26317171,-0.10631185,0.0
 0340826,-0.00070665,0.00262864,0.00117060,-0.01892264,-0.00641652,0.00
 041576,0.00025077,-0.00001922,0.00036983,0.00285635,0.00112741,-0.0001
 1806,-0.00076516,-0.00055245,-0.00000054,-0.00001065,0.00001035,-0.000
 01532,-0.00001019,-0.00000725,-0.00001954,-0.00000118,-0.00002809,-0.0
 0000032,-0.00000336,-0.00000494,-0.00000550,0.00000505,-0.00000107,-0.
 00000677,0.00000313,-0.00000281,0.00000399,0.00000387,0.00000007,-0.00
 000636,-0.00000181,-0.00001114,0.00002601,-0.00001579,-0.00007402,0.00
 000793,-0.00000359,0.00006289,0.00286882,-0.00094354,0.00179099,-0.000
 88904,0.00076647,0.00012300,-0.00408038,0.29215889,-0.00013333,0.00001
 736,0.00002898,0.00007102,0.00009410,-0.00005292,0.00003428,0.00010089
 ,0.00003826,-0.00004114,-0.00009182,-0.00001064,0.00010366,0.00002621,
 0.00000406,-0.00009007,0.00007869,0.00000996,-0.00029150,-0.00001607,-
 0.00001057,0.00008858,-0.00012162,-0.00000021,-0.00005682,0.00001605,-
 0.00000050,0.00004739,0.00000317,0.00000049,0.00037730,-0.00034024,-0.
 00009354,-0.00010883,0.00017940,-0.00007297,-0.00009460,-0.00008302,0.
 00001181,0.00006038,0.00011664,-0.00000518,0.00011423,0.00002311,-0.00
 001796,-0.00006090,-0.00016192,-0.00000553,0.00065462,0.00042885,0.000
 34625,-0.00027928,0.00012110,0.00001324,0.00018935,-0.00010264,-0.0000
 8908,-0.00005066,-0.00055098,0.00068641,-0.00152231,0.00016287,0.00048
 608,0.00031152,0.00036926,-0.00007225,0.00000910,0.00004597,0.00000610
 ,-0.00000255,0.00000711,0.00010516,-0.00020606,0.00034658,-0.00006070,
 -0.00084140,-0.00111116,0.00005961,0.00248044,0.00004939,-0.00154262,-
 0.00141562,-0.10524993,-0.09548285,-0.00346857,0.00183516,-0.00194097,
 -0.00029551,0.02069539,0.00688892,0.00025754,-0.00059566,0.00031942,-0
 .00004327,-0.02662344,-0.01319558,0.00000062,0.00093002,0.00075013,0.0
 0001847,-0.00004334,-0.00001610,-0.00000133,0.00000089,-0.00001054,-0.
 00000279,-0.00000039,-0.00000410,-0.00000221,-0.00000146,-0.00000225,0
 .00000013,0.00000395,-0.00000035,-0.00000156,0.00000476,-0.00000125,0.
 00000438,-0.00000012,0.00000244,0.00000419,-0.00000540,-0.00000431,0.0
 0007149,-0.00000944,-0.00002606,-0.00002145,0.00000822,0.00003394,-0.0
 0094247,0.00160362,-0.00212549,0.00071836,-0.00011759,0.00123896,0.004
 35721,0.10795747,0.10381429\\-0.00000612,0.00000783,-0.00000449,-0.000
 00364,-0.00001062,0.00001463,0.00000006,-0.00000445,0.00001457,0.00000
 704,0.00000332,-0.00000321,-0.00000016,-0.00000146,-0.00000660,-0.0000
 0351,0.00000181,-0.00000920,0.00000045,0.00000773,0.00000260,-0.000001
 19,-0.00000794,0.00000099,-0.00000066,0.00000251,-0.00000669,-0.000002
 57,-0.00000090,-0.00000700,-0.00000691,-0.00000070,-0.00000052,0.00001
 214,-0.00000183,-0.00000181,-0.00000084,-0.00000196,-0.00000046,0.0000
 0128,0.00000155,-0.00000298,-0.00000099,-0.00000298,-0.00000361,0.0000
 0843,0.00000336,-0.00000229,-0.00000996,0.00000654,-0.00000308,0.00000
 798,0.00000127,-0.00000854,0.00000304,0.00000646,0.00000094,-0.0000267
 7,0.00001020,0.00001061,0.00000564,-0.00001746,0.00000787,-0.00000414,
 0.00000669,0.00000101,-0.00000218,-0.00000746,-0.00000508,0.00000993,0
 .00000647,0.00000824,-0.00000711,-0.00004670,-0.00001075,0.00000178,0.
 00004073,0.00000785,0.00002674,-0.00003379,-0.00001081,-0.00000509,0.0
 0000623,-0.00001910,-0.00002158,0.00002575,0.00000565,0.00004462,-0.00
 002207,-0.00001173,-0.00001540,-0.00000585,0.00000883,-0.00001295,0.00
 000174,0.00000775,0.00000648,0.00000100,-0.00000148,0.00000111,0.00000
 401,0.00000586,-0.00000420,0.00000229,-0.00000365,-0.00000044,0.000000
 87,-0.00000355,0.00000182,0.00000032,-0.00000371,-0.00000104,0.0000025
 6,-0.00000345,0.00000037,-0.00000145,-0.00000247,0.00000188,0.00000205
 ,-0.00000053,0.00000095,0.00000054,0.00000126,0.00000009,-0.00000087,0
 .00000221,0.00000391,-0.00000044,0.00000464,-0.00000215,0.00000749,0.0
 0000294,-0.00001624,0.00000748,0.00001932,0.00001009,0.00000011,0.0000
 0900\\\@


 A successful marriage requires falling in love
 many times, always with the same person.
                           -- Mignon McLaughlin
 Job cpu time:       1 days  0 hours  4 minutes 11.8 seconds.
 Elapsed time:       0 days  1 hours 12 minutes 25.1 seconds.
 File lengths (MBytes):  RWF=   2285 Int=      0 D2E=      0 Chk=     47 Scr=      1
 Normal termination of Gaussian 16 at Thu Jun 20 14:40:57 2019.
