 Entering Gaussian System, Link 0=/share/apps/gaussian16/g16/g16
 Initial command:
 /share/apps/gaussian16/g16/l1.exe "/home/amen01//scratch/1001/Gau-18000.inp" -scrdir="/home/amen01//scratch/1001/"
 Entering Link 1 = /share/apps/gaussian16/g16/l1.exe PID=     18001.
  
 Copyright (c) 1988-2017, Gaussian, Inc.  All Rights Reserved.
  
 This is part of the Gaussian(R) 16 program.  It is based on
 the Gaussian(R) 09 system (copyright 2009, Gaussian, Inc.),
 the Gaussian(R) 03 system (copyright 2003, Gaussian, Inc.),
 the Gaussian(R) 98 system (copyright 1998, Gaussian, Inc.),
 the Gaussian(R) 94 system (copyright 1995, Gaussian, Inc.),
 the Gaussian 92(TM) system (copyright 1992, Gaussian, Inc.),
 the Gaussian 90(TM) system (copyright 1990, Gaussian, Inc.),
 the Gaussian 88(TM) system (copyright 1988, Gaussian, Inc.),
 the Gaussian 86(TM) system (copyright 1986, Carnegie Mellon
 University), and the Gaussian 82(TM) system (copyright 1983,
 Carnegie Mellon University). Gaussian is a federally registered
 trademark of Gaussian, Inc.
  
 This software contains proprietary and confidential information,
 including trade secrets, belonging to Gaussian, Inc.
  
 This software is provided under written license and may be
 used, copied, transmitted, or stored only in accord with that
 written license.
  
 The following legend is applicable only to US Government
 contracts under FAR:
  
                    RESTRICTED RIGHTS LEGEND
  
 Use, reproduction and disclosure by the US Government is
 subject to restrictions as set forth in subparagraphs (a)
 and (c) of the Commercial Computer Software - Restricted
 Rights clause in FAR 52.227-19.
  
 Gaussian, Inc.
 340 Quinnipiac St., Bldg. 40, Wallingford CT 06492
  
  
 ---------------------------------------------------------------
 Warning -- This program may not be used in any manner that
 competes with the business of Gaussian, Inc. or will provide
 assistance to any competitor of Gaussian, Inc.  The licensee
 of this program is prohibited from giving any competitor of
 Gaussian, Inc. access to this program.  By using this program,
 the user acknowledges that Gaussian, Inc. is engaged in the
 business of creating and licensing software in the field of
 computational chemistry and represents and warrants to the
 licensee that it is not a competitor of Gaussian, Inc. and that
 it will not use this program in any manner prohibited above.
 ---------------------------------------------------------------
  

 Cite this work as:
 Gaussian 16, Revision B.01,
 M. J. Frisch, G. W. Trucks, H. B. Schlegel, G. E. Scuseria, 
 M. A. Robb, J. R. Cheeseman, G. Scalmani, V. Barone, 
 G. A. Petersson, H. Nakatsuji, X. Li, M. Caricato, A. V. Marenich, 
 J. Bloino, B. G. Janesko, R. Gomperts, B. Mennucci, H. P. Hratchian, 
 J. V. Ortiz, A. F. Izmaylov, J. L. Sonnenberg, D. Williams-Young, 
 F. Ding, F. Lipparini, F. Egidi, J. Goings, B. Peng, A. Petrone, 
 T. Henderson, D. Ranasinghe, V. G. Zakrzewski, J. Gao, N. Rega, 
 G. Zheng, W. Liang, M. Hada, M. Ehara, K. Toyota, R. Fukuda, 
 J. Hasegawa, M. Ishida, T. Nakajima, Y. Honda, O. Kitao, H. Nakai, 
 T. Vreven, K. Throssell, J. A. Montgomery, Jr., J. E. Peralta, 
 F. Ogliaro, M. J. Bearpark, J. J. Heyd, E. N. Brothers, K. N. Kudin, 
 V. N. Staroverov, T. A. Keith, R. Kobayashi, J. Normand, 
 K. Raghavachari, A. P. Rendell, J. C. Burant, S. S. Iyengar, 
 J. Tomasi, M. Cossi, J. M. Millam, M. Klene, C. Adamo, R. Cammi, 
 J. W. Ochterski, R. L. Martin, K. Morokuma, O. Farkas, 
 J. B. Foresman, and D. J. Fox, Gaussian, Inc., Wallingford CT, 2016.
 
 ******************************************
 Gaussian 16:  ES64L-G16RevB.01 20-Dec-2017
                 6-Sep-2019 
 ******************************************
 %nprocshared=20
 Will use up to   20 processors via shared memory.
 %mem=180GB
 %chk=7-memb-dir-4bcis.chk
 -------------------------------------------
 # opt freq b3lyp/6-311+g(d,p) int=grid=fine
 -------------------------------------------
 1/18=20,19=15,26=3,38=1/1,3;
 2/9=110,12=2,17=6,18=5,40=1/2;
 3/5=4,6=6,7=111,11=2,25=1,30=1,71=1,74=-5,75=-4/1,2,3;
 4//1;
 5/5=2,38=5/2;
 6/7=2,8=2,9=2,10=2,28=1/1;
 7//1,2,3,16;
 1/18=20,19=15,26=3/3(2);
 2/9=110/2;
 99//99;
 2/9=110/2;
 3/5=4,6=6,7=111,11=2,25=1,30=1,71=1,74=-5,75=-4/1,2,3;
 4/5=5,16=3,69=1/1;
 5/5=2,38=5/2;
 7//1,2,3,16;
 1/18=20,19=15,26=3/3(-5);
 2/9=110/2;
 6/7=2,8=2,9=2,10=2,19=2,28=1/1;
 99/9=1/99;
 ----------------
 7-memb-dir-4bcis
 ----------------
 Symbolic Z-matrix:
 Charge =  0 Multiplicity = 1
 C                     1.5072   -2.79611  -0.26854 
 C                     1.371    -1.48558   0.20103 
 C                     2.47134  -0.65326   0.49828 
 C                     3.78329  -1.00045   0.18577 
 C                     2.88543  -3.23166  -0.4252 
 C                     3.95229  -2.38238  -0.22757 
 C                     2.0081    0.63016   0.76188 
 C                     2.82709   1.70489   0.49216 
 C                     4.20788   1.4053    0.27195 
 C                     4.68459   0.0984    0.15727 
 C                     0.49589   0.63426   0.78525 
 C                    -0.06294   1.82385   0.06389 
 C                     0.81172   2.98951  -0.12461 
 C                     2.14834   2.95395   0.15712 
 C                     0.29057  -3.44197  -0.55169 
 C                    -0.9425   -2.76343  -0.4117 
 C                    -1.00563  -1.36001  -0.06674 
 C                     0.19166  -0.75526   0.25618 
 C                     0.16089   4.28725  -0.576 
 C                    -1.39357   1.8399   -0.21429 
 C                    -1.94371   3.00821  -0.92219 
 C                    -1.23049   4.12325  -1.11775 
 C                    -2.19285  -3.4595   -0.5346 
 C                    -3.36351  -2.84409  -0.22917 
 C                    -3.43791  -1.44723   0.12262 
 C                    -2.25975  -0.64852   0.07561 
 C                    -2.36849   0.78089   0.21347 
 C                    -3.61586   1.2782    0.61411 
 C                    -4.6696   -0.87549   0.49532 
 C                    -4.74144   0.46773   0.79708 
 H                    -5.67529   0.91173   1.12265 
 H                    -3.72351   2.34616   0.76162 
 H                     0.01589   0.67735   1.77651 
 H                    -5.55105  -1.50546   0.54907 
 H                    -4.29311  -3.40322  -0.25364 
 H                    -2.18211  -4.50742  -0.81567 
 H                     0.27271  -4.48056  -0.86763 
 H                     3.08133  -4.24648  -0.7561 
 H                     4.95335  -2.75302  -0.4251 
 H                     5.73767  -0.05945  -0.05258 
 H                     4.90146   2.2248    0.11157 
 H                     2.74312   3.85087   0.00706 
 H                     0.79339   4.78554  -1.31859 
 H                    -1.65821   4.95687  -1.66511 
 H                    -2.94743   2.93319  -1.32323 
 H                     0.11766   4.98427   0.27562 
 

 GradGradGradGradGradGradGradGradGradGradGradGradGradGradGradGradGradGrad
 Berny optimization.
 Initialization pass.
                           ----------------------------
                           !    Initial Parameters    !
                           ! (Angstroms and Degrees)  !
 --------------------------                            --------------------------
 ! Name  Definition              Value          Derivative Info.                !
 --------------------------------------------------------------------------------
 ! R1    R(1,2)                  1.3988         estimate D2E/DX2                !
 ! R2    R(1,5)                  1.4539         estimate D2E/DX2                !
 ! R3    R(1,15)                 1.4062         estimate D2E/DX2                !
 ! R4    R(2,3)                  1.4113         estimate D2E/DX2                !
 ! R5    R(2,18)                 1.3883         estimate D2E/DX2                !
 ! R6    R(3,4)                  1.3926         estimate D2E/DX2                !
 ! R7    R(3,7)                  1.3897         estimate D2E/DX2                !
 ! R8    R(4,6)                  1.4523         estimate D2E/DX2                !
 ! R9    R(4,10)                 1.4215         estimate D2E/DX2                !
 ! R10   R(5,6)                  1.3779         estimate D2E/DX2                !
 ! R11   R(5,38)                 1.0852         estimate D2E/DX2                !
 ! R12   R(6,39)                 1.0856         estimate D2E/DX2                !
 ! R13   R(7,8)                  1.3779         estimate D2E/DX2                !
 ! R14   R(7,11)                 1.5124         estimate D2E/DX2                !
 ! R15   R(8,9)                  1.43           estimate D2E/DX2                !
 ! R16   R(8,14)                 1.4605         estimate D2E/DX2                !
 ! R17   R(9,10)                 1.3958         estimate D2E/DX2                !
 ! R18   R(9,41)                 1.0855         estimate D2E/DX2                !
 ! R19   R(10,40)                1.0853         estimate D2E/DX2                !
 ! R20   R(11,12)                1.4993         estimate D2E/DX2                !
 ! R21   R(11,18)                1.5176         estimate D2E/DX2                !
 ! R22   R(11,33)                1.1022         estimate D2E/DX2                !
 ! R23   R(12,13)                1.4695         estimate D2E/DX2                !
 ! R24   R(12,20)                1.3595         estimate D2E/DX2                !
 ! R25   R(13,14)                1.3665         estimate D2E/DX2                !
 ! R26   R(13,19)                1.5204         estimate D2E/DX2                !
 ! R27   R(14,42)                1.0866         estimate D2E/DX2                !
 ! R28   R(15,16)                1.4144         estimate D2E/DX2                !
 ! R29   R(15,37)                1.0857         estimate D2E/DX2                !
 ! R30   R(16,17)                1.4466         estimate D2E/DX2                !
 ! R31   R(16,23)                1.4363         estimate D2E/DX2                !
 ! R32   R(17,18)                1.3797         estimate D2E/DX2                !
 ! R33   R(17,26)                1.4489         estimate D2E/DX2                !
 ! R34   R(19,22)                1.5021         estimate D2E/DX2                !
 ! R35   R(19,43)                1.0953         estimate D2E/DX2                !
 ! R36   R(19,46)                1.1013         estimate D2E/DX2                !
 ! R37   R(20,21)                1.4727         estimate D2E/DX2                !
 ! R38   R(20,27)                1.5016         estimate D2E/DX2                !
 ! R39   R(21,22)                1.338          estimate D2E/DX2                !
 ! R40   R(21,45)                1.0835         estimate D2E/DX2                !
 ! R41   R(22,44)                1.0851         estimate D2E/DX2                !
 ! R42   R(23,24)                1.3574         estimate D2E/DX2                !
 ! R43   R(23,36)                1.085          estimate D2E/DX2                !
 ! R44   R(24,25)                1.4424         estimate D2E/DX2                !
 ! R45   R(24,35)                1.0851         estimate D2E/DX2                !
 ! R46   R(25,26)                1.4242         estimate D2E/DX2                !
 ! R47   R(25,29)                1.4081         estimate D2E/DX2                !
 ! R48   R(26,27)                1.4402         estimate D2E/DX2                !
 ! R49   R(27,28)                1.4013         estimate D2E/DX2                !
 ! R50   R(28,30)                1.399          estimate D2E/DX2                !
 ! R51   R(28,32)                1.0835         estimate D2E/DX2                !
 ! R52   R(29,30)                1.3786         estimate D2E/DX2                !
 ! R53   R(29,34)                1.0848         estimate D2E/DX2                !
 ! R54   R(30,31)                1.0841         estimate D2E/DX2                !
 ! A1    A(2,1,5)              114.1519         estimate D2E/DX2                !
 ! A2    A(2,1,15)             114.4355         estimate D2E/DX2                !
 ! A3    A(5,1,15)             131.3657         estimate D2E/DX2                !
 ! A4    A(1,2,3)              123.1841         estimate D2E/DX2                !
 ! A5    A(1,2,18)             126.0817         estimate D2E/DX2                !
 ! A6    A(3,2,18)             110.1031         estimate D2E/DX2                !
 ! A7    A(2,3,4)              122.6968         estimate D2E/DX2                !
 ! A8    A(2,3,7)              108.9475         estimate D2E/DX2                !
 ! A9    A(4,3,7)              125.9328         estimate D2E/DX2                !
 ! A10   A(3,4,6)              114.25           estimate D2E/DX2                !
 ! A11   A(3,4,10)             114.1484         estimate D2E/DX2                !
 ! A12   A(6,4,10)             131.0023         estimate D2E/DX2                !
 ! A13   A(1,5,6)              122.2685         estimate D2E/DX2                !
 ! A14   A(1,5,38)             118.9547         estimate D2E/DX2                !
 ! A15   A(6,5,38)             118.7078         estimate D2E/DX2                !
 ! A16   A(4,6,5)              122.4954         estimate D2E/DX2                !
 ! A17   A(4,6,39)             118.945          estimate D2E/DX2                !
 ! A18   A(5,6,39)             118.5192         estimate D2E/DX2                !
 ! A19   A(3,7,8)              119.0176         estimate D2E/DX2                !
 ! A20   A(3,7,11)             109.7999         estimate D2E/DX2                !
 ! A21   A(8,7,11)             126.5284         estimate D2E/DX2                !
 ! A22   A(7,8,9)              116.1466         estimate D2E/DX2                !
 ! A23   A(7,8,14)             115.8326         estimate D2E/DX2                !
 ! A24   A(9,8,14)             126.3414         estimate D2E/DX2                !
 ! A25   A(8,9,10)             122.5877         estimate D2E/DX2                !
 ! A26   A(8,9,41)             118.7867         estimate D2E/DX2                !
 ! A27   A(10,9,41)            118.4552         estimate D2E/DX2                !
 ! A28   A(4,10,9)             120.3694         estimate D2E/DX2                !
 ! A29   A(4,10,40)            120.442          estimate D2E/DX2                !
 ! A30   A(9,10,40)            118.91           estimate D2E/DX2                !
 ! A31   A(7,11,12)            111.5558         estimate D2E/DX2                !
 ! A32   A(7,11,18)            101.1026         estimate D2E/DX2                !
 ! A33   A(7,11,33)            116.7082         estimate D2E/DX2                !
 ! A34   A(12,11,18)           118.9478         estimate D2E/DX2                !
 ! A35   A(12,11,33)           103.8495         estimate D2E/DX2                !
 ! A36   A(18,11,33)           105.1897         estimate D2E/DX2                !
 ! A37   A(11,12,13)           117.987          estimate D2E/DX2                !
 ! A38   A(11,12,20)           118.2059         estimate D2E/DX2                !
 ! A39   A(13,12,20)           123.1595         estimate D2E/DX2                !
 ! A40   A(12,13,14)           122.3532         estimate D2E/DX2                !
 ! A41   A(12,13,19)           117.4124         estimate D2E/DX2                !
 ! A42   A(14,13,19)           120.143          estimate D2E/DX2                !
 ! A43   A(8,14,13)            121.61           estimate D2E/DX2                !
 ! A44   A(8,14,42)            118.8961         estimate D2E/DX2                !
 ! A45   A(13,14,42)           119.0428         estimate D2E/DX2                !
 ! A46   A(1,15,16)            120.93           estimate D2E/DX2                !
 ! A47   A(1,15,37)            120.808          estimate D2E/DX2                !
 ! A48   A(16,15,37)           118.254          estimate D2E/DX2                !
 ! A49   A(15,16,17)           121.8087         estimate D2E/DX2                !
 ! A50   A(15,16,23)           121.1959         estimate D2E/DX2                !
 ! A51   A(17,16,23)           116.9093         estimate D2E/DX2                !
 ! A52   A(16,17,18)           116.3079         estimate D2E/DX2                !
 ! A53   A(16,17,26)           122.5214         estimate D2E/DX2                !
 ! A54   A(18,17,26)           120.8574         estimate D2E/DX2                !
 ! A55   A(2,18,11)            108.9784         estimate D2E/DX2                !
 ! A56   A(2,18,17)            119.823          estimate D2E/DX2                !
 ! A57   A(11,18,17)           131.0625         estimate D2E/DX2                !
 ! A58   A(13,19,22)           114.2304         estimate D2E/DX2                !
 ! A59   A(13,19,43)           110.0226         estimate D2E/DX2                !
 ! A60   A(13,19,46)           109.1134         estimate D2E/DX2                !
 ! A61   A(22,19,43)           109.8789         estimate D2E/DX2                !
 ! A62   A(22,19,46)           108.1573         estimate D2E/DX2                !
 ! A63   A(43,19,46)           105.0102         estimate D2E/DX2                !
 ! A64   A(12,20,21)           118.253          estimate D2E/DX2                !
 ! A65   A(12,20,27)           124.6691         estimate D2E/DX2                !
 ! A66   A(21,20,27)           116.9929         estimate D2E/DX2                !
 ! A67   A(20,21,22)           122.1582         estimate D2E/DX2                !
 ! A68   A(20,21,45)           117.9735         estimate D2E/DX2                !
 ! A69   A(22,21,45)           119.8296         estimate D2E/DX2                !
 ! A70   A(19,22,21)           122.1429         estimate D2E/DX2                !
 ! A71   A(19,22,44)           117.5912         estimate D2E/DX2                !
 ! A72   A(21,22,44)           120.2539         estimate D2E/DX2                !
 ! A73   A(16,23,24)           120.7843         estimate D2E/DX2                !
 ! A74   A(16,23,36)           118.7904         estimate D2E/DX2                !
 ! A75   A(24,23,36)           120.3121         estimate D2E/DX2                !
 ! A76   A(23,24,25)           122.5773         estimate D2E/DX2                !
 ! A77   A(23,24,35)           120.0114         estimate D2E/DX2                !
 ! A78   A(25,24,35)           117.4086         estimate D2E/DX2                !
 ! A79   A(24,25,26)           119.4986         estimate D2E/DX2                !
 ! A80   A(24,25,29)           120.1908         estimate D2E/DX2                !
 ! A81   A(26,25,29)           120.307          estimate D2E/DX2                !
 ! A82   A(17,26,25)           116.3533         estimate D2E/DX2                !
 ! A83   A(17,26,27)           124.205          estimate D2E/DX2                !
 ! A84   A(25,26,27)           119.4078         estimate D2E/DX2                !
 ! A85   A(20,27,26)           128.5855         estimate D2E/DX2                !
 ! A86   A(20,27,28)           114.1462         estimate D2E/DX2                !
 ! A87   A(26,27,28)           116.5392         estimate D2E/DX2                !
 ! A88   A(27,28,30)           123.2266         estimate D2E/DX2                !
 ! A89   A(27,28,32)           118.5007         estimate D2E/DX2                !
 ! A90   A(30,28,32)           118.2473         estimate D2E/DX2                !
 ! A91   A(25,29,30)           119.9428         estimate D2E/DX2                !
 ! A92   A(25,29,34)           119.2138         estimate D2E/DX2                !
 ! A93   A(30,29,34)           120.8413         estimate D2E/DX2                !
 ! A94   A(28,30,29)           119.5972         estimate D2E/DX2                !
 ! A95   A(28,30,31)           119.6743         estimate D2E/DX2                !
 ! A96   A(29,30,31)           120.6436         estimate D2E/DX2                !
 ! D1    D(5,1,2,3)              0.0201         estimate D2E/DX2                !
 ! D2    D(5,1,2,18)           169.9967         estimate D2E/DX2                !
 ! D3    D(15,1,2,3)          -177.7757         estimate D2E/DX2                !
 ! D4    D(15,1,2,18)           -7.7992         estimate D2E/DX2                !
 ! D5    D(2,1,5,6)             -4.9204         estimate D2E/DX2                !
 ! D6    D(2,1,5,38)           178.1389         estimate D2E/DX2                !
 ! D7    D(15,1,5,6)           172.4055         estimate D2E/DX2                !
 ! D8    D(15,1,5,38)           -4.5352         estimate D2E/DX2                !
 ! D9    D(2,1,15,16)            2.4986         estimate D2E/DX2                !
 ! D10   D(2,1,15,37)         -176.4621         estimate D2E/DX2                !
 ! D11   D(5,1,15,16)         -174.8213         estimate D2E/DX2                !
 ! D12   D(5,1,15,37)            6.2181         estimate D2E/DX2                !
 ! D13   D(1,2,3,4)              8.6421         estimate D2E/DX2                !
 ! D14   D(1,2,3,7)            171.9085         estimate D2E/DX2                !
 ! D15   D(18,2,3,4)          -162.7432         estimate D2E/DX2                !
 ! D16   D(18,2,3,7)             0.5232         estimate D2E/DX2                !
 ! D17   D(1,2,18,11)         -178.0585         estimate D2E/DX2                !
 ! D18   D(1,2,18,17)            5.7264         estimate D2E/DX2                !
 ! D19   D(3,2,18,11)           -6.9821         estimate D2E/DX2                !
 ! D20   D(3,2,18,17)          176.8029         estimate D2E/DX2                !
 ! D21   D(2,3,4,6)            -11.3592         estimate D2E/DX2                !
 ! D22   D(2,3,4,10)           160.7599         estimate D2E/DX2                !
 ! D23   D(7,3,4,6)           -171.7063         estimate D2E/DX2                !
 ! D24   D(7,3,4,10)             0.4128         estimate D2E/DX2                !
 ! D25   D(2,3,7,8)           -151.1833         estimate D2E/DX2                !
 ! D26   D(2,3,7,11)             6.2064         estimate D2E/DX2                !
 ! D27   D(4,3,7,8)             11.4046         estimate D2E/DX2                !
 ! D28   D(4,3,7,11)           168.7943         estimate D2E/DX2                !
 ! D29   D(3,4,6,5)              6.3939         estimate D2E/DX2                !
 ! D30   D(3,4,6,39)          -175.9564         estimate D2E/DX2                !
 ! D31   D(10,4,6,5)          -164.0633         estimate D2E/DX2                !
 ! D32   D(10,4,6,39)           13.5864         estimate D2E/DX2                !
 ! D33   D(3,4,10,9)            -7.566          estimate D2E/DX2                !
 ! D34   D(3,4,10,40)          178.5623         estimate D2E/DX2                !
 ! D35   D(6,4,10,9)           162.8988         estimate D2E/DX2                !
 ! D36   D(6,4,10,40)          -10.9729         estimate D2E/DX2                !
 ! D37   D(1,5,6,4)              1.6726         estimate D2E/DX2                !
 ! D38   D(1,5,6,39)          -175.9866         estimate D2E/DX2                !
 ! D39   D(38,5,6,4)           178.6206         estimate D2E/DX2                !
 ! D40   D(38,5,6,39)            0.9613         estimate D2E/DX2                !
 ! D41   D(3,7,8,9)            -14.973          estimate D2E/DX2                !
 ! D42   D(3,7,8,14)           151.2183         estimate D2E/DX2                !
 ! D43   D(11,7,8,9)          -168.2189         estimate D2E/DX2                !
 ! D44   D(11,7,8,14)           -2.0276         estimate D2E/DX2                !
 ! D45   D(3,7,11,12)         -137.1261         estimate D2E/DX2                !
 ! D46   D(3,7,11,18)           -9.6913         estimate D2E/DX2                !
 ! D47   D(3,7,11,33)          103.7392         estimate D2E/DX2                !
 ! D48   D(8,7,11,12)           18.1411         estimate D2E/DX2                !
 ! D49   D(8,7,11,18)          145.5758         estimate D2E/DX2                !
 ! D50   D(8,7,11,33)         -100.9937         estimate D2E/DX2                !
 ! D51   D(7,8,9,10)             8.237          estimate D2E/DX2                !
 ! D52   D(7,8,9,41)          -176.5844         estimate D2E/DX2                !
 ! D53   D(14,8,9,10)         -156.2949         estimate D2E/DX2                !
 ! D54   D(14,8,9,41)           18.8838         estimate D2E/DX2                !
 ! D55   D(7,8,14,13)          -12.2283         estimate D2E/DX2                !
 ! D56   D(7,8,14,42)          175.5545         estimate D2E/DX2                !
 ! D57   D(9,8,14,13)          152.3458         estimate D2E/DX2                !
 ! D58   D(9,8,14,42)          -19.8713         estimate D2E/DX2                !
 ! D59   D(8,9,10,4)             3.4021         estimate D2E/DX2                !
 ! D60   D(8,9,10,40)          177.3667         estimate D2E/DX2                !
 ! D61   D(41,9,10,4)         -171.7918         estimate D2E/DX2                !
 ! D62   D(41,9,10,40)           2.1729         estimate D2E/DX2                !
 ! D63   D(7,11,12,13)         -20.8734         estimate D2E/DX2                !
 ! D64   D(7,11,12,20)         168.0534         estimate D2E/DX2                !
 ! D65   D(18,11,12,13)       -137.9454         estimate D2E/DX2                !
 ! D66   D(18,11,12,20)         50.9813         estimate D2E/DX2                !
 ! D67   D(33,11,12,13)        105.6468         estimate D2E/DX2                !
 ! D68   D(33,11,12,20)        -65.4264         estimate D2E/DX2                !
 ! D69   D(7,11,18,2)            9.918          estimate D2E/DX2                !
 ! D70   D(7,11,18,17)        -174.4381         estimate D2E/DX2                !
 ! D71   D(12,11,18,2)         132.358          estimate D2E/DX2                !
 ! D72   D(12,11,18,17)        -51.9981         estimate D2E/DX2                !
 ! D73   D(33,11,18,2)        -111.9442         estimate D2E/DX2                !
 ! D74   D(33,11,18,17)         63.6997         estimate D2E/DX2                !
 ! D75   D(11,12,13,14)          9.5798         estimate D2E/DX2                !
 ! D76   D(11,12,13,19)       -166.9444         estimate D2E/DX2                !
 ! D77   D(20,12,13,14)       -179.8215         estimate D2E/DX2                !
 ! D78   D(20,12,13,19)          3.6544         estimate D2E/DX2                !
 ! D79   D(11,12,20,21)        179.968          estimate D2E/DX2                !
 ! D80   D(11,12,20,27)          3.4299         estimate D2E/DX2                !
 ! D81   D(13,12,20,21)          9.3886         estimate D2E/DX2                !
 ! D82   D(13,12,20,27)       -167.1495         estimate D2E/DX2                !
 ! D83   D(12,13,14,8)           8.4054         estimate D2E/DX2                !
 ! D84   D(12,13,14,42)       -179.3886         estimate D2E/DX2                !
 ! D85   D(19,13,14,8)        -175.1628         estimate D2E/DX2                !
 ! D86   D(19,13,14,42)         -2.9568         estimate D2E/DX2                !
 ! D87   D(12,13,19,22)        -15.3488         estimate D2E/DX2                !
 ! D88   D(12,13,19,43)       -139.4654         estimate D2E/DX2                !
 ! D89   D(12,13,19,46)        105.8249         estimate D2E/DX2                !
 ! D90   D(14,13,19,22)        168.0465         estimate D2E/DX2                !
 ! D91   D(14,13,19,43)         43.93           estimate D2E/DX2                !
 ! D92   D(14,13,19,46)        -70.7797         estimate D2E/DX2                !
 ! D93   D(1,15,16,17)           4.4594         estimate D2E/DX2                !
 ! D94   D(1,15,16,23)        -172.0637         estimate D2E/DX2                !
 ! D95   D(37,15,16,17)       -176.5541         estimate D2E/DX2                !
 ! D96   D(37,15,16,23)          6.9228         estimate D2E/DX2                !
 ! D97   D(15,16,17,18)         -6.6242         estimate D2E/DX2                !
 ! D98   D(15,16,17,26)        179.7593         estimate D2E/DX2                !
 ! D99   D(23,16,17,18)        170.0407         estimate D2E/DX2                !
 ! D100  D(23,16,17,26)         -3.5758         estimate D2E/DX2                !
 ! D101  D(15,16,23,24)        171.3761         estimate D2E/DX2                !
 ! D102  D(15,16,23,36)         -4.7679         estimate D2E/DX2                !
 ! D103  D(17,16,23,24)         -5.3107         estimate D2E/DX2                !
 ! D104  D(17,16,23,36)        178.5454         estimate D2E/DX2                !
 ! D105  D(16,17,18,2)           1.774          estimate D2E/DX2                !
 ! D106  D(16,17,18,11)       -173.477          estimate D2E/DX2                !
 ! D107  D(26,17,18,2)         175.5044         estimate D2E/DX2                !
 ! D108  D(26,17,18,11)          0.2534         estimate D2E/DX2                !
 ! D109  D(16,17,26,25)         12.1002         estimate D2E/DX2                !
 ! D110  D(16,17,26,27)       -170.038          estimate D2E/DX2                !
 ! D111  D(18,17,26,25)       -161.2327         estimate D2E/DX2                !
 ! D112  D(18,17,26,27)         16.6292         estimate D2E/DX2                !
 ! D113  D(13,19,22,21)         15.2622         estimate D2E/DX2                !
 ! D114  D(13,19,22,44)       -165.9927         estimate D2E/DX2                !
 ! D115  D(43,19,22,21)        139.4556         estimate D2E/DX2                !
 ! D116  D(43,19,22,44)        -41.7993         estimate D2E/DX2                !
 ! D117  D(46,19,22,21)       -106.439          estimate D2E/DX2                !
 ! D118  D(46,19,22,44)         72.3061         estimate D2E/DX2                !
 ! D119  D(12,20,21,22)        -10.1983         estimate D2E/DX2                !
 ! D120  D(12,20,21,45)        167.5334         estimate D2E/DX2                !
 ! D121  D(27,20,21,22)        166.6067         estimate D2E/DX2                !
 ! D122  D(27,20,21,45)        -15.6615         estimate D2E/DX2                !
 ! D123  D(12,20,27,26)        -49.1143         estimate D2E/DX2                !
 ! D124  D(12,20,27,28)        141.1196         estimate D2E/DX2                !
 ! D125  D(21,20,27,26)        134.3079         estimate D2E/DX2                !
 ! D126  D(21,20,27,28)        -35.4582         estimate D2E/DX2                !
 ! D127  D(20,21,22,19)         -2.8049         estimate D2E/DX2                !
 ! D128  D(20,21,22,44)        178.4827         estimate D2E/DX2                !
 ! D129  D(45,21,22,19)        179.5043         estimate D2E/DX2                !
 ! D130  D(45,21,22,44)          0.7918         estimate D2E/DX2                !
 ! D131  D(16,23,24,25)          5.2772         estimate D2E/DX2                !
 ! D132  D(16,23,24,35)       -175.3389         estimate D2E/DX2                !
 ! D133  D(36,23,24,25)       -178.6373         estimate D2E/DX2                !
 ! D134  D(36,23,24,35)          0.7465         estimate D2E/DX2                !
 ! D135  D(23,24,25,26)          3.8668         estimate D2E/DX2                !
 ! D136  D(23,24,25,29)       -176.8282         estimate D2E/DX2                !
 ! D137  D(35,24,25,26)       -175.5322         estimate D2E/DX2                !
 ! D138  D(35,24,25,29)          3.7728         estimate D2E/DX2                !
 ! D139  D(24,25,26,17)        -12.0445         estimate D2E/DX2                !
 ! D140  D(24,25,26,27)        169.9853         estimate D2E/DX2                !
 ! D141  D(29,25,26,17)        168.6513         estimate D2E/DX2                !
 ! D142  D(29,25,26,27)         -9.3189         estimate D2E/DX2                !
 ! D143  D(24,25,29,30)       -178.323          estimate D2E/DX2                !
 ! D144  D(24,25,29,34)          2.209          estimate D2E/DX2                !
 ! D145  D(26,25,29,30)          0.9763         estimate D2E/DX2                !
 ! D146  D(26,25,29,34)       -178.4917         estimate D2E/DX2                !
 ! D147  D(17,26,27,20)         23.19           estimate D2E/DX2                !
 ! D148  D(17,26,27,28)       -167.2506         estimate D2E/DX2                !
 ! D149  D(25,26,27,20)       -159.0094         estimate D2E/DX2                !
 ! D150  D(25,26,27,28)         10.55           estimate D2E/DX2                !
 ! D151  D(20,27,28,30)        167.0795         estimate D2E/DX2                !
 ! D152  D(20,27,28,32)        -11.0523         estimate D2E/DX2                !
 ! D153  D(26,27,28,30)         -3.9901         estimate D2E/DX2                !
 ! D154  D(26,27,28,32)        177.8781         estimate D2E/DX2                !
 ! D155  D(27,28,30,29)         -4.2287         estimate D2E/DX2                !
 ! D156  D(27,28,30,31)        179.099          estimate D2E/DX2                !
 ! D157  D(32,28,30,29)        173.9075         estimate D2E/DX2                !
 ! D158  D(32,28,30,31)         -2.7648         estimate D2E/DX2                !
 ! D159  D(25,29,30,28)          5.7619         estimate D2E/DX2                !
 ! D160  D(25,29,30,31)       -177.5987         estimate D2E/DX2                !
 ! D161  D(34,29,30,28)       -174.7789         estimate D2E/DX2                !
 ! D162  D(34,29,30,31)          1.8605         estimate D2E/DX2                !
 --------------------------------------------------------------------------------
 Trust Radius=3.00D-01 FncErr=1.00D-07 GrdErr=1.00D-06 EigMax=2.50D+02 EigMin=1.00D-04
 Number of steps in this run=    276 maximum allowed number of steps=    276.
 GradGradGradGradGradGradGradGradGradGradGradGradGradGradGradGradGradGrad

                          Input orientation:                          
 ---------------------------------------------------------------------
 Center     Atomic      Atomic             Coordinates (Angstroms)
 Number     Number       Type             X           Y           Z
 ---------------------------------------------------------------------
      1          6           0        1.507198   -2.796106   -0.268541
      2          6           0        1.371004   -1.485576    0.201028
      3          6           0        2.471339   -0.653264    0.498275
      4          6           0        3.783291   -1.000454    0.185771
      5          6           0        2.885425   -3.231658   -0.425200
      6          6           0        3.952288   -2.382380   -0.227567
      7          6           0        2.008096    0.630156    0.761881
      8          6           0        2.827087    1.704890    0.492156
      9          6           0        4.207875    1.405297    0.271952
     10          6           0        4.684594    0.098401    0.157270
     11          6           0        0.495893    0.634258    0.785253
     12          6           0       -0.062936    1.823851    0.063888
     13          6           0        0.811718    2.989511   -0.124612
     14          6           0        2.148345    2.953952    0.157115
     15          6           0        0.290565   -3.441971   -0.551685
     16          6           0       -0.942496   -2.763429   -0.411703
     17          6           0       -1.005628   -1.360010   -0.066744
     18          6           0        0.191663   -0.755258    0.256181
     19          6           0        0.160885    4.287253   -0.575999
     20          6           0       -1.393568    1.839900   -0.214292
     21          6           0       -1.943712    3.008211   -0.922192
     22          6           0       -1.230492    4.123248   -1.117749
     23          6           0       -2.192848   -3.459503   -0.534599
     24          6           0       -3.363512   -2.844088   -0.229173
     25          6           0       -3.437914   -1.447230    0.122617
     26          6           0       -2.259747   -0.648519    0.075613
     27          6           0       -2.368488    0.780889    0.213468
     28          6           0       -3.615859    1.278198    0.614109
     29          6           0       -4.669601   -0.875488    0.495322
     30          6           0       -4.741442    0.467725    0.797082
     31          1           0       -5.675290    0.911725    1.122653
     32          1           0       -3.723511    2.346158    0.761620
     33          1           0        0.015891    0.677345    1.776505
     34          1           0       -5.551048   -1.505455    0.549067
     35          1           0       -4.293105   -3.403215   -0.253636
     36          1           0       -2.182111   -4.507419   -0.815671
     37          1           0        0.272711   -4.480559   -0.867631
     38          1           0        3.081326   -4.246483   -0.756099
     39          1           0        4.953346   -2.753019   -0.425101
     40          1           0        5.737672   -0.059446   -0.052579
     41          1           0        4.901461    2.224796    0.111570
     42          1           0        2.743116    3.850865    0.007059
     43          1           0        0.793385    4.785535   -1.318593
     44          1           0       -1.658208    4.956870   -1.665110
     45          1           0       -2.947433    2.933186   -1.323226
     46          1           0        0.117659    4.984274    0.275623
 ---------------------------------------------------------------------
                    Distance matrix (angstroms):
                    1          2          3          4          5
     1  C    0.000000
     2  C    1.398761   0.000000
     3  C    2.471709   1.411324   0.000000
     4  C    2.934513   2.460631   1.392630   0.000000
     5  C    1.453877   2.394668   2.769908   2.481475   0.000000
     6  C    2.480184   2.766040   2.389539   1.452284   1.377871
     7  C    3.612747   2.279641   1.389694   2.478328   4.134305
     8  C    4.751814   3.519092   2.384845   2.885669   5.021399
     9  C    5.023701   4.050928   2.702675   2.444450   4.871986
    10  C    4.319182   3.672979   2.362156   1.421493   3.829566
    11  C    3.728353   2.366608   2.375385   3.720033   4.703229
    12  C    4.890791   3.609335   3.570342   4.773365   5.872837
    13  C    5.829046   4.521642   4.051190   4.984617   6.564568
    14  C    5.801329   4.507283   3.637681   4.279158   6.256528
    15  C    1.406239   2.358263   3.692571   4.324810   2.606440
    16  C    2.454091   2.713048   4.115231   5.079185   3.856475
    17  C    2.901274   2.394963   3.592776   4.809032   4.332649
    18  C    2.484155   1.388255   2.294763   3.600676   3.721987
    19  C    7.216721   5.949262   5.558864   6.454608   7.998742
    20  C    5.468998   4.344438   4.654151   5.918406   6.638898
    21  C    6.784256   5.695883   5.909044   7.077820   7.905917
    22  C    7.489563   6.321856   6.255410   7.286255   8.456656
    23  C    3.768451   4.139876   5.540437   6.502314   5.084559
    24  C    4.871105   4.944317   6.274901   7.392426   6.264012
    25  C    5.140681   4.809710   5.974175   7.235288   6.593095
    26  C    4.349764   3.728102   4.749931   6.054280   5.778946
    27  C    5.296052   4.372736   5.055871   6.404556   6.641689
    28  C    6.604903   5.716457   6.387327   7.753912   7.980329
    29  C    6.513456   6.078464   7.144398   8.459481   7.967265
    30  C    7.129772   6.444584   7.305485   8.671812   8.564374
    31  H    8.201924   7.499780   8.319051   9.695305   9.635835
    32  H    7.407053   6.399260   6.887819   8.239144   8.729181
    33  H    4.297798   2.999448   3.071419   4.420265   5.325602
    34  H    7.221710   6.930825   8.067683   9.355046   8.666202
    35  H    5.832008   5.997182   7.340661   8.437684   7.182629
    36  H    4.103528   4.773870   6.183491   6.991975   5.240225
    37  H    2.172613   3.364254   4.620374   5.054202   2.929466
    38  H    2.195264   3.385838   3.854447   3.452040   1.085238
    39  H    3.449972   3.851185   3.379638   2.194009   2.122591
    40  H    5.043100   4.600647   3.365262   2.182181   4.282183
    41  H    6.072476   5.122401   3.786590   3.414388   5.841696
    42  H    6.766511   5.513431   4.538979   4.964796   7.097128
    43  H    7.687224   6.478405   5.974703   6.684334   8.333677
    44  H    8.489926   7.359600   7.294313   8.278006   9.446373
    45  H    7.333545   6.363781   6.748598   7.940607   8.534283
    46  H    7.922200   6.590554   6.113200   7.018682   8.697886
                    6          7          8          9         10
     6  C    0.000000
     7  C    3.719444   0.000000
     8  C    4.299983   1.377879   0.000000
     9  C    3.829013   2.383254   1.429972   0.000000
    10  C    2.615080   2.794988   2.478566   1.395847   0.000000
    11  C    4.698146   1.512389   2.581981   3.825806   4.269276
    12  C    5.822315   2.490236   2.924004   4.296313   5.052221
    13  C    6.223423   2.789937   2.468272   3.768405   4.841192
    14  C    5.646116   2.405294   1.460513   2.579377   3.819258
    15  C    3.825703   4.610595   5.832129   6.286470   5.687209
    16  C    4.913045   4.647549   5.915454   6.661230   6.338607
    17  C    5.064784   3.705390   4.939199   5.911197   5.878416
    18  C    4.125995   2.339772   3.612959   4.560505   4.574379
    19  C    7.679853   4.310043   3.862407   5.040121   6.208712
    20  C    6.812195   3.740015   4.281498   5.639280   6.333635
    21  C    8.018964   4.909993   5.143885   6.468179   7.318926
    22  C    8.365215   5.120855   4.990410   6.236534   7.267277
    23  C    6.246372   6.004507   7.274952   8.079979   7.774096
    24  C    7.330355   6.473541   7.716024   8.696798   8.577855
    25  C    7.457360   5.863720   7.023009   8.161942   8.268332
    26  C    6.456591   4.507822   5.620313   6.788729   6.984871
    27  C    7.081878   4.413385   5.284453   6.606198   7.086248
    28  C    8.448970   5.663097   6.458211   7.832244   8.396317
    29  C    8.782384   6.850522   7.928347   9.168503   9.410829
    30  C    9.206191   6.751584   7.675037   9.013605   9.454941
    31  H   10.264720   7.697003   8.562538   9.931981  10.436506
    32  H    9.069479   5.982974   6.587425   8.001992   8.724327
    33  H    5.373401   2.236195   3.257027   4.512906   4.975328
    34  H    9.575257   7.857912   8.972330  10.187534  10.367942
    35  H    8.308387   7.550132   8.794662   9.780833   9.645167
    36  H    6.518628   6.814777   8.086734   8.773543   8.325373
    37  H    4.283845   5.637932   6.828883   7.171295   6.440653
    38  H    2.124335   5.218974   6.086183   5.853940   4.720458
    39  H    1.085592   4.639967   5.023474   4.281729   2.922667
    40  H    2.935002   3.879257   3.446900   2.142679   1.085323
    41  H    4.716144   3.367097   2.172136   1.085524   2.137914
    42  H    6.353778   3.388654   2.201722   2.862951   4.227634
    43  H    7.908730   4.803235   4.111585   5.061085   6.268086
    44  H    9.349267   6.168673   5.945338   7.125785   8.194933
    45  H    8.778489   5.848836   6.176520   7.488489   8.275005
    46  H    8.320167   4.771639   4.259372   5.434975   6.688995
                   11         12         13         14         15
    11  C    0.000000
    12  C    1.499263   0.000000
    13  C    2.544566   1.469461   0.000000
    14  C    2.916528   2.485072   1.366458   0.000000
    15  C    4.294788   5.313452   6.466680   6.697878   0.000000
    16  C    3.878910   4.694992   6.021296   6.524209   1.414374
    17  C    2.637720   3.323056   4.714279   5.348638   2.499969
    18  C    1.517639   2.598769   3.814809   4.194837   2.807286
    19  C    3.912750   2.554976   1.520351   2.503027   7.730350
    20  C    2.454124   1.359494   2.488561   3.731515   5.554125
    21  C    3.808240   2.431539   2.868602   4.232349   6.836236
    22  C    4.332998   2.836667   2.538169   3.795928   7.737350
    23  C    5.072496   5.727874   7.126380   7.775399   2.483534
    24  C    5.293672   5.724451   7.174563   8.009186   3.716686
    25  C    4.499613   4.700415   6.148590   7.111813   4.281966
    26  C    3.121323   3.307375   4.765422   5.693480   3.834184
    27  C    2.924571   2.534899   3.886646   5.012700   5.048620
    28  C    4.165388   3.636446   4.803930   6.020219   6.236924
    29  C    5.389408   5.356671   6.735532   7.827093   5.682104
    30  C    5.239995   4.925959   6.168185   7.352554   6.513524
    31  H    6.186625   5.783725   6.924893   8.143232   7.572945
    32  H    4.553518   3.762904   4.665577   5.934099   7.165195
    33  H    1.102197   2.062461   3.097370   3.514644   4.739692
    34  H    6.418695   6.437317   7.819422   8.906211   6.251895
    35  H    6.349408   6.731818   8.181859   9.059501   4.593513
    36  H    6.014275   6.734204   8.102131   8.681660   2.705364
    37  H    5.379887   6.381690   7.526257   7.735636   1.085728
    38  H    5.734271   6.885326   7.609830   7.317833   2.911593
    39  H    5.727782   6.808079   7.086609   6.385650   4.715104
    40  H    5.353451   6.099789   5.793647   4.691248   6.431295
    41  H    4.732091   4.980790   4.167322   2.848401   7.335702
    42  H    4.000270   3.462072   2.118860   1.086610   7.714445
    43  H    4.663450   3.378774   2.156764   2.714466   8.278456
    44  H    5.415663   3.917925   3.513427   4.671406   8.693559
    45  H    4.646208   3.387482   3.946019   5.306486   7.191838
    46  H    4.396069   3.172652   2.149648   2.874011   8.468526
                   16         17         18         19         20
    16  C    0.000000
    17  C    1.446571   0.000000
    18  C    2.401070   1.379678   0.000000
    19  C    7.138386   5.788927   5.110811   0.000000
    20  C    4.629587   3.226715   3.077198   2.921762   0.000000
    21  C    5.880039   4.548972   4.484650   2.486991   1.472661
    22  C    6.928763   5.587602   5.264032   1.502105   2.460997
    23  C    1.436316   2.456878   3.691093   8.096543   5.368903
    24  C    2.429227   2.790786   4.151873   7.962266   5.081402
    25  C    2.871409   2.441205   3.697363   6.806153   3.885625
    26  C    2.538793   1.448896   2.460368   5.535874   2.650762
    27  C    3.871238   2.553303   2.985958   4.394949   1.501650
    28  C    4.953172   3.773196   4.331314   4.973386   2.437280
    29  C    4.275316   3.738366   4.868627   7.150889   4.313847
    30  C    5.131618   4.247719   5.111143   6.364507   3.756861
    31  H    6.185495   5.327400   6.160417   6.952737   4.580619
    32  H    5.934527   4.669985   5.020243   4.543744   2.576303
    33  H    4.188757   2.931191   2.096338   4.311233   2.702107
    34  H    4.872815   4.589251   5.798906   8.212638   5.390617
    35  H    3.414805   3.875193   5.233042   8.892988   5.991587
    36  H    2.177461   3.442555   4.567536   9.104577   6.424322
    37  H    2.152472   3.466035   3.891965   8.773373   6.568983
    38  H    4.302232   5.050755   4.643653   9.021422   7.573790
    39  H    5.895866   6.130111   5.208533   8.517974   7.837261
    40  H    7.215618   6.867588   5.598009   7.090015   7.381616
    41  H    7.701171   6.912042   5.575288   5.215318   6.315198
    42  H    7.583402   6.419638   5.271465   2.682966   4.604903
    43  H    7.798884   6.524668   5.791577   1.095348   3.831320
    44  H    7.854062   6.548558   6.304109   2.223432   3.448247
    45  H    6.107542   4.876565   5.094416   3.471813   2.199888
    46  H    7.850048   6.452048   5.740042   1.101348   3.522912
                   21         22         23         24         25
    21  C    0.000000
    22  C    1.337996   0.000000
    23  C    6.484105   7.665788   0.000000
    24  C    6.061808   7.340512   1.357378   0.000000
    25  C    4.814065   6.118941   2.455884   1.442395   0.000000
    26  C    3.803573   5.025260   2.877232   2.476230   1.424158
    27  C    2.535966   3.773399   4.309452   3.785031   2.473144
    28  C    2.854688   4.096781   5.078415   4.215216   2.775101
    29  C    4.952064   6.278282   3.724537   2.471062   1.408137
    30  C    4.151779   5.418136   4.867425   3.730951   2.412704
    31  H    4.743556   5.923640   5.829367   4.612796   3.401557
    32  H    2.537956   3.592384   6.142378   5.296218   3.857419
    33  H    4.068900   4.669521   5.228120   5.276703   4.379262
    34  H    5.962437   7.288880   4.033627   2.680095   2.156522
    35  H    6.860976   8.171532   2.119714   1.085064   2.167670
    36  H    7.520165   8.688224   1.085009   2.122818   3.438340
    37  H    7.810069   8.737716   2.689321   4.038290   4.893916
    38  H    8.826618   9.422047   5.337163   6.616668   7.149017
    39  H    9.000460   9.273762   7.181866   8.319664   8.509896
    40  H    8.316875   8.196635   8.642099   9.519294   9.281596
    41  H    6.966979   6.535763   9.113617   9.701519   9.112029
    42  H    4.851797   4.138713   8.837342   9.064718   8.141762
    43  H    3.287509   2.138934   8.804140   8.756585   7.669963
    44  H    2.104926   1.085113   8.508774   8.113256   6.883009
    45  H    1.083473   2.099132   6.485199   5.894656   4.638866
    46  H    3.096585   2.121406   8.791602   8.582344   7.350493
                   26         27         28         29         30
    26  C    0.000000
    27  C    1.440151   0.000000
    28  C    2.416869   1.401344   0.000000
    29  C    2.456637   2.849236   2.400593   0.000000
    30  C    2.815196   2.463653   1.399029   1.378565   0.000000
    31  H    3.898280   3.432007   2.152714   2.144548   1.084069
    32  H    3.403131   2.141641   1.083461   3.368235   2.136809
    33  H    3.135200   2.852905   3.860285   5.099662   4.861628
    34  H    3.433826   3.933025   3.390857   1.084756   2.147187
    35  H    3.439666   4.629154   4.809082   2.663098   4.035987
    36  H    3.961253   5.390739   6.129704   4.593172   5.822646
    37  H    4.689092   5.985611   7.104915   6.267426   7.238682
    38  H    6.493393   7.477633   8.789304   8.544386   9.264547
    39  H    7.530494   8.155092   9.526906   9.847508  10.288627
    40  H    8.020109   8.153942   9.472186  10.453586  10.526712
    41  H    7.716225   7.412652   8.584482  10.067982   9.825620
    42  H    6.728878   5.966226   6.886486   8.804839   8.251568
    43  H    6.387047   5.327461   5.956356   8.073518   7.331703
    44  H    5.900199   4.633829   4.749723   6.910308   5.976717
    45  H    3.906184   2.707210   2.634207   4.558396   3.713849
    46  H    6.117223   4.883977   5.271502   7.569870   6.654472
                   31         32         33         34         35
    31  H    0.000000
    32  H    2.448956   0.000000
    33  H    5.733411   4.218774   0.000000
    34  H    2.487408   4.268488   6.104263   0.000000
    35  H    4.735326   5.866044   6.272152   2.414176   0.000000
    36  H    6.732497   7.199672   6.199384   4.714237   2.447743
    37  H    8.271437   8.076405   5.801843   6.691371   4.731209
    38  H   10.335141   9.595426   6.328906   9.150660   7.439476
    39  H   11.348735  10.133990   6.402572  10.622980   9.270869
    40  H   11.514341   9.796113   6.052040  11.396847  10.575335
    41  H   10.705798   8.650285   5.388451  11.106805  10.786470
    42  H    8.986248   6.682123   4.543118   9.888230  10.109305
    43  H    7.925266   5.538971   5.202053   9.127789   9.698564
    44  H    6.346004   4.119504   5.741224   7.862470   8.878399
    45  H    4.184475   2.300757   4.845456   5.475932   6.565427
    46  H    7.131716   4.685129   4.562087   8.621229   9.491308
                   36         37         38         39         40
    36  H    0.000000
    37  H    2.455519   0.000000
    38  H    5.270238   2.820558   0.000000
    39  H    7.358343   5.008849   2.417530   0.000000
    40  H    9.115357   7.076464   5.008233   2.830066   0.000000
    41  H    9.816287   8.206458   6.778141   5.006930   2.438023
    42  H    9.736306   8.733877   8.140260   6.977332   4.925592
    43  H    9.770645   9.291661   9.334261   8.656408   7.037230
    44  H    9.516763   9.665893  10.391881  10.231943   9.080899
    45  H    7.497062   8.095709   9.392296   9.775575   9.273696
    46  H    9.827110   9.534890   9.749597   9.150988   7.558530
                   41         42         43         44         45
    41  H    0.000000
    42  H    2.704344   0.000000
    43  H    5.047677   2.536220   0.000000
    44  H    7.324621   4.836429   2.481882   0.000000
    45  H    8.010343   5.915585   4.174319   2.423692   0.000000
    46  H    5.525070   2.872241   1.742879   2.630760   4.019710
                   46
    46  H    0.000000
 Stoichiometry    C30H16
 Framework group  C1[X(C30H16)]
 Deg. of freedom   132
 Full point group                 C1      NOp   1
 Largest Abelian subgroup         C1      NOp   1
 Largest concise Abelian subgroup C1      NOp   1
                         Standard orientation:                         
 ---------------------------------------------------------------------
 Center     Atomic      Atomic             Coordinates (Angstroms)
 Number     Number       Type             X           Y           Z
 ---------------------------------------------------------------------
      1          6           0       -1.507198   -2.796106    0.268541
      2          6           0       -1.371004   -1.485576   -0.201028
      3          6           0       -2.471339   -0.653264   -0.498275
      4          6           0       -3.783291   -1.000454   -0.185771
      5          6           0       -2.885425   -3.231658    0.425200
      6          6           0       -3.952288   -2.382380    0.227567
      7          6           0       -2.008096    0.630156   -0.761881
      8          6           0       -2.827087    1.704890   -0.492156
      9          6           0       -4.207875    1.405297   -0.271952
     10          6           0       -4.684594    0.098401   -0.157270
     11          6           0       -0.495893    0.634258   -0.785253
     12          6           0        0.062936    1.823851   -0.063888
     13          6           0       -0.811718    2.989511    0.124612
     14          6           0       -2.148345    2.953952   -0.157115
     15          6           0       -0.290565   -3.441971    0.551685
     16          6           0        0.942496   -2.763429    0.411703
     17          6           0        1.005628   -1.360010    0.066744
     18          6           0       -0.191663   -0.755258   -0.256181
     19          6           0       -0.160885    4.287253    0.575999
     20          6           0        1.393568    1.839900    0.214292
     21          6           0        1.943712    3.008211    0.922192
     22          6           0        1.230492    4.123248    1.117749
     23          6           0        2.192848   -3.459503    0.534599
     24          6           0        3.363512   -2.844088    0.229173
     25          6           0        3.437914   -1.447230   -0.122617
     26          6           0        2.259747   -0.648519   -0.075613
     27          6           0        2.368488    0.780889   -0.213468
     28          6           0        3.615859    1.278198   -0.614109
     29          6           0        4.669601   -0.875488   -0.495322
     30          6           0        4.741442    0.467725   -0.797082
     31          1           0        5.675290    0.911725   -1.122653
     32          1           0        3.723511    2.346158   -0.761620
     33          1           0       -0.015891    0.677345   -1.776505
     34          1           0        5.551048   -1.505455   -0.549067
     35          1           0        4.293105   -3.403215    0.253636
     36          1           0        2.182111   -4.507419    0.815671
     37          1           0       -0.272711   -4.480559    0.867631
     38          1           0       -3.081326   -4.246483    0.756099
     39          1           0       -4.953346   -2.753019    0.425101
     40          1           0       -5.737672   -0.059446    0.052579
     41          1           0       -4.901461    2.224796   -0.111570
     42          1           0       -2.743116    3.850865   -0.007059
     43          1           0       -0.793385    4.785535    1.318593
     44          1           0        1.658208    4.956870    1.665110
     45          1           0        2.947433    2.933186    1.323226
     46          1           0       -0.117659    4.984274   -0.275623
 ---------------------------------------------------------------------
 Rotational constants (GHZ):           0.2426615           0.1778708           0.1068327
 Standard basis: 6-311+G(d,p) (5D, 7F)
 There are   786 symmetry adapted cartesian basis functions of A   symmetry.
 There are   756 symmetry adapted basis functions of A   symmetry.
   756 basis functions,  1208 primitive gaussians,   786 cartesian basis functions
    98 alpha electrons       98 beta electrons
       nuclear repulsion energy      2641.8840784660 Hartrees.
 NAtoms=   46 NActive=   46 NUniq=   46 SFac= 1.00D+00 NAtFMM=   60 NAOKFM=F Big=F
 Integral buffers will be    131072 words long.
 Raffenetti 2 integral format.
 Two-electron integral symmetry is turned on.
 One-electron integrals computed using PRISM.
 NBasis=   756 RedAO= T EigKep=  1.13D-06  NBF=   756
 NBsUse=   737 1.00D-06 EigRej=  9.42D-07 NBFU=   737
 ExpMin= 4.38D-02 ExpMax= 4.56D+03 ExpMxC= 6.82D+02 IAcc=2 IRadAn=         4 AccDes= 0.00D+00
 Harris functional with IExCor=  402 and IRadAn=       4 diagonalized for initial guess.
 HarFok:  IExCor=  402 AccDes= 0.00D+00 IRadAn=         4 IDoV= 1 UseB2=F ITyADJ=14
 ICtDFT=  3500011 ScaDFX=  1.000000  1.000000  1.000000  1.000000
 FoFCou: FMM=F IPFlag=           0 FMFlag=      100000 FMFlg1=           0
         NFxFlg=           0 DoJE=T BraDBF=F KetDBF=T FulRan=T
         wScrn=  0.000000 ICntrl=       500 IOpCl=  0 I1Cent=   200000004 NGrid=           0
         NMat0=    1 NMatS0=      1 NMatT0=    0 NMatD0=    1 NMtDS0=    0 NMtDT0=    0
 Petite list used in FoFCou.
 Requested convergence on RMS density matrix=1.00D-08 within 128 cycles.
 Requested convergence on MAX density matrix=1.00D-06.
 Requested convergence on             energy=1.00D-06.
 No special actions if energy rises.
 SCF Done:  E(RB3LYP) =  -1153.08247076     A.U. after   17 cycles
            NFock= 17  Conv=0.49D-08     -V/T= 2.0044

 **********************************************************************

            Population analysis using the SCF Density.

 **********************************************************************

 Orbital symmetries:
       Occupied  (A) (A) (A) (A) (A) (A) (A) (A) (A) (A) (A) (A)
                 (A) (A) (A) (A) (A) (A) (A) (A) (A) (A) (A) (A)
                 (A) (A) (A) (A) (A) (A) (A) (A) (A) (A) (A) (A)
                 (A) (A) (A) (A) (A) (A) (A) (A) (A) (A) (A) (A)
                 (A) (A) (A) (A) (A) (A) (A) (A) (A) (A) (A) (A)
                 (A) (A) (A) (A) (A) (A) (A) (A) (A) (A) (A) (A)
                 (A) (A) (A) (A) (A) (A) (A) (A) (A) (A) (A) (A)
                 (A) (A) (A) (A) (A) (A) (A) (A) (A) (A) (A) (A)
                 (A) (A)
       Virtual   (A) (A) (A) (A) (A) (A) (A) (A) (A) (A) (A) (A)
                 (A) (A) (A) (A) (A) (A) (A) (A) (A) (A) (A) (A)
                 (A) (A) (A) (A) (A) (A) (A) (A) (A) (A) (A) (A)
                 (A) (A) (A) (A) (A) (A) (A) (A) (A) (A) (A) (A)
                 (A) (A) (A) (A) (A) (A) (A) (A) (A) (A) (A) (A)
                 (A) (A) (A) (A) (A) (A) (A) (A) (A) (A) (A) (A)
                 (A) (A) (A) (A) (A) (A) (A) (A) (A) (A) (A) (A)
                 (A) (A) (A) (A) (A) (A) (A) (A) (A) (A) (A) (A)
                 (A) (A) (A) (A) (A) (A) (A) (A) (A) (A) (A) (A)
                 (A) (A) (A) (A) (A) (A) (A) (A) (A) (A) (A) (A)
                 (A) (A) (A) (A) (A) (A) (A) (A) (A) (A) (A) (A)
                 (A) (A) (A) (A) (A) (A) (A) (A) (A) (A) (A) (A)
                 (A) (A) (A) (A) (A) (A) (A) (A) (A) (A) (A) (A)
                 (A) (A) (A) (A) (A) (A) (A) (A) (A) (A) (A) (A)
                 (A) (A) (A) (A) (A) (A) (A) (A) (A) (A) (A) (A)
                 (A) (A) (A) (A) (A) (A) (A) (A) (A) (A) (A) (A)
                 (A) (A) (A) (A) (A) (A) (A) (A) (A) (A) (A) (A)
                 (A) (A) (A) (A) (A) (A) (A) (A) (A) (A) (A) (A)
                 (A) (A) (A) (A) (A) (A) (A) (A) (A) (A) (A) (A)
                 (A) (A) (A) (A) (A) (A) (A) (A) (A) (A) (A) (A)
                 (A) (A) (A) (A) (A) (A) (A) (A) (A) (A) (A) (A)
                 (A) (A) (A) (A) (A) (A) (A) (A) (A) (A) (A) (A)
                 (A) (A) (A) (A) (A) (A) (A) (A) (A) (A) (A) (A)
                 (A) (A) (A) (A) (A) (A) (A) (A) (A) (A) (A) (A)
                 (A) (A) (A) (A) (A) (A) (A) (A) (A) (A) (A) (A)
                 (A) (A) (A) (A) (A) (A) (A) (A) (A) (A) (A) (A)
                 (A) (A) (A) (A) (A) (A) (A) (A) (A) (A) (A) (A)
                 (A) (A) (A) (A) (A) (A) (A) (A) (A) (A) (A) (A)
                 (A) (A) (A) (A) (A) (A) (A) (A) (A) (A) (A) (A)
                 (A) (A) (A) (A) (A) (A) (A) (A) (A) (A) (A) (A)
                 (A) (A) (A) (A) (A) (A) (A) (A) (A) (A) (A) (A)
                 (A) (A) (A) (A) (A) (A) (A) (A) (A) (A) (A) (A)
                 (A) (A) (A) (A) (A) (A) (A) (A) (A) (A) (A) (A)
                 (A) (A) (A) (A) (A) (A) (A) (A) (A) (A) (A) (A)
                 (A) (A) (A) (A) (A) (A) (A) (A) (A) (A) (A) (A)
                 (A) (A) (A) (A) (A) (A) (A) (A) (A) (A) (A) (A)
                 (A) (A) (A) (A) (A) (A) (A) (A) (A) (A) (A) (A)
                 (A) (A) (A) (A) (A) (A) (A) (A) (A) (A) (A) (A)
                 (A) (A) (A) (A) (A) (A) (A) (A) (A) (A) (A) (A)
                 (A) (A) (A) (A) (A) (A) (A) (A) (A) (A) (A) (A)
                 (A) (A) (A) (A) (A) (A) (A) (A) (A) (A) (A) (A)
                 (A) (A) (A) (A) (A) (A) (A) (A) (A) (A) (A) (A)
                 (A) (A) (A) (A) (A) (A) (A) (A) (A) (A) (A) (A)
                 (A) (A) (A) (A) (A) (A) (A) (A) (A) (A) (A) (A)
                 (A) (A) (A) (A) (A) (A) (A) (A) (A) (A) (A) (A)
                 (A) (A) (A) (A) (A) (A) (A) (A) (A) (A) (A) (A)
                 (A) (A) (A) (A) (A) (A) (A) (A) (A) (A) (A) (A)
                 (A) (A) (A) (A) (A) (A) (A) (A) (A) (A) (A) (A)
                 (A) (A) (A) (A) (A) (A) (A) (A) (A) (A) (A) (A)
                 (A) (A) (A) (A) (A) (A) (A) (A) (A) (A) (A) (A)
                 (A) (A) (A) (A) (A) (A) (A) (A) (A) (A) (A) (A)
                 (A) (A) (A) (A) (A) (A) (A) (A) (A) (A) (A) (A)
                 (A) (A) (A) (A) (A) (A) (A) (A) (A) (A) (A) (A)
                 (A) (A) (A)
 The electronic state is 1-A.
 Alpha  occ. eigenvalues --  -10.20054 -10.19947 -10.19811 -10.19614 -10.19500
 Alpha  occ. eigenvalues --  -10.19369 -10.19369 -10.19177 -10.19082 -10.19055
 Alpha  occ. eigenvalues --  -10.18958 -10.18873 -10.18784 -10.18729 -10.18575
 Alpha  occ. eigenvalues --  -10.18482 -10.18387 -10.18334 -10.18321 -10.18203
 Alpha  occ. eigenvalues --  -10.18162 -10.18149 -10.18129 -10.18112 -10.18061
 Alpha  occ. eigenvalues --  -10.18048 -10.17836 -10.17781 -10.17294 -10.17235
 Alpha  occ. eigenvalues --   -0.92040  -0.88786  -0.87622  -0.85246  -0.83730
 Alpha  occ. eigenvalues --   -0.83086  -0.80228  -0.79414  -0.78285  -0.77232
 Alpha  occ. eigenvalues --   -0.75097  -0.74560  -0.72797  -0.71239  -0.70678
 Alpha  occ. eigenvalues --   -0.67091  -0.65460  -0.64034  -0.62922  -0.62213
 Alpha  occ. eigenvalues --   -0.59780  -0.59620  -0.58483  -0.56469  -0.56030
 Alpha  occ. eigenvalues --   -0.52540  -0.51654  -0.51098  -0.50940  -0.49830
 Alpha  occ. eigenvalues --   -0.48845  -0.48084  -0.46986  -0.46160  -0.45520
 Alpha  occ. eigenvalues --   -0.45134  -0.44431  -0.44330  -0.43634  -0.43158
 Alpha  occ. eigenvalues --   -0.42393  -0.42173  -0.41121  -0.40898  -0.40521
 Alpha  occ. eigenvalues --   -0.39883  -0.39670  -0.39439  -0.38770  -0.37912
 Alpha  occ. eigenvalues --   -0.36830  -0.35903  -0.35461  -0.34938  -0.34504
 Alpha  occ. eigenvalues --   -0.33758  -0.32820  -0.32750  -0.32042  -0.30729
 Alpha  occ. eigenvalues --   -0.30270  -0.28466  -0.27868  -0.25396  -0.24726
 Alpha  occ. eigenvalues --   -0.22926  -0.20717  -0.18705
 Alpha virt. eigenvalues --   -0.08689  -0.06341  -0.04616  -0.03113  -0.02020
 Alpha virt. eigenvalues --   -0.00405  -0.00050   0.00609   0.00757   0.00787
 Alpha virt. eigenvalues --    0.01650   0.01723   0.01766   0.02517   0.02854
 Alpha virt. eigenvalues --    0.03115   0.03423   0.03769   0.04407   0.04899
 Alpha virt. eigenvalues --    0.05016   0.05159   0.05399   0.05633   0.06129
 Alpha virt. eigenvalues --    0.06482   0.06773   0.07286   0.07477   0.07816
 Alpha virt. eigenvalues --    0.08384   0.08549   0.09025   0.09445   0.09575
 Alpha virt. eigenvalues --    0.09745   0.10079   0.10242   0.10477   0.10803
 Alpha virt. eigenvalues --    0.11424   0.11846   0.12180   0.12790   0.12825
 Alpha virt. eigenvalues --    0.13270   0.13481   0.13830   0.14126   0.14205
 Alpha virt. eigenvalues --    0.14746   0.14958   0.15225   0.15431   0.15673
 Alpha virt. eigenvalues --    0.16036   0.16333   0.16468   0.16732   0.16938
 Alpha virt. eigenvalues --    0.17025   0.17435   0.17712   0.17757   0.17903
 Alpha virt. eigenvalues --    0.18101   0.18449   0.18626   0.18835   0.18941
 Alpha virt. eigenvalues --    0.19305   0.19560   0.19778   0.19924   0.20031
 Alpha virt. eigenvalues --    0.20268   0.20554   0.20848   0.21110   0.21322
 Alpha virt. eigenvalues --    0.21437   0.21727   0.21887   0.21929   0.22161
 Alpha virt. eigenvalues --    0.22414   0.22686   0.22921   0.23177   0.23267
 Alpha virt. eigenvalues --    0.23752   0.23953   0.24176   0.24367   0.24547
 Alpha virt. eigenvalues --    0.24845   0.25126   0.25270   0.25438   0.25932
 Alpha virt. eigenvalues --    0.26079   0.26273   0.26467   0.26499   0.26800
 Alpha virt. eigenvalues --    0.26859   0.27203   0.27418   0.27631   0.27815
 Alpha virt. eigenvalues --    0.27957   0.28225   0.28614   0.28974   0.29298
 Alpha virt. eigenvalues --    0.29674   0.29799   0.29852   0.29948   0.30286
 Alpha virt. eigenvalues --    0.30637   0.31080   0.31377   0.31471   0.31734
 Alpha virt. eigenvalues --    0.32202   0.32404   0.32657   0.33101   0.33230
 Alpha virt. eigenvalues --    0.33610   0.33783   0.34435   0.34636   0.34790
 Alpha virt. eigenvalues --    0.35035   0.35345   0.35758   0.36445   0.36846
 Alpha virt. eigenvalues --    0.37115   0.37452   0.37498   0.37746   0.38382
 Alpha virt. eigenvalues --    0.38853   0.39137   0.40023   0.40464   0.41041
 Alpha virt. eigenvalues --    0.41250   0.41642   0.42141   0.44125   0.44351
 Alpha virt. eigenvalues --    0.44556   0.45066   0.47117   0.47260   0.47998
 Alpha virt. eigenvalues --    0.48394   0.48870   0.49203   0.50409   0.50893
 Alpha virt. eigenvalues --    0.51276   0.51748   0.52023   0.52626   0.53197
 Alpha virt. eigenvalues --    0.53874   0.54174   0.54915   0.55064   0.55435
 Alpha virt. eigenvalues --    0.55637   0.56313   0.56986   0.57385   0.57512
 Alpha virt. eigenvalues --    0.58112   0.58459   0.58564   0.59088   0.59345
 Alpha virt. eigenvalues --    0.59701   0.60039   0.60237   0.60805   0.61180
 Alpha virt. eigenvalues --    0.61434   0.61742   0.62193   0.62479   0.62612
 Alpha virt. eigenvalues --    0.63362   0.63954   0.64103   0.65028   0.65245
 Alpha virt. eigenvalues --    0.65490   0.65909   0.67007   0.67153   0.67661
 Alpha virt. eigenvalues --    0.68116   0.68625   0.69157   0.69439   0.69675
 Alpha virt. eigenvalues --    0.70070   0.70230   0.70406   0.70709   0.71155
 Alpha virt. eigenvalues --    0.71418   0.71592   0.72152   0.72278   0.72682
 Alpha virt. eigenvalues --    0.72797   0.73042   0.73489   0.74234   0.74404
 Alpha virt. eigenvalues --    0.74643   0.74713   0.75286   0.75520   0.75915
 Alpha virt. eigenvalues --    0.76247   0.76406   0.76512   0.76991   0.77853
 Alpha virt. eigenvalues --    0.78081   0.78224   0.79272   0.79878   0.80416
 Alpha virt. eigenvalues --    0.81145   0.81791   0.82309   0.82728   0.83715
 Alpha virt. eigenvalues --    0.84179   0.84790   0.85125   0.85813   0.86341
 Alpha virt. eigenvalues --    0.86797   0.87491   0.87612   0.88609   0.89138
 Alpha virt. eigenvalues --    0.89454   0.89744   0.90420   0.91272   0.91392
 Alpha virt. eigenvalues --    0.91682   0.91869   0.93072   0.93413   0.93962
 Alpha virt. eigenvalues --    0.94067   0.94465   0.95136   0.95245   0.96029
 Alpha virt. eigenvalues --    0.96298   0.96675   0.97049   0.97077   0.97199
 Alpha virt. eigenvalues --    0.98297   0.99435   0.99778   1.00179   1.00386
 Alpha virt. eigenvalues --    1.01305   1.01616   1.02272   1.02962   1.03761
 Alpha virt. eigenvalues --    1.03997   1.04483   1.05399   1.06175   1.07136
 Alpha virt. eigenvalues --    1.07376   1.08446   1.09230   1.09735   1.10123
 Alpha virt. eigenvalues --    1.11020   1.11225   1.11860   1.12340   1.12874
 Alpha virt. eigenvalues --    1.15394   1.16222   1.17206   1.17826   1.18318
 Alpha virt. eigenvalues --    1.19225   1.19716   1.20228   1.21760   1.22874
 Alpha virt. eigenvalues --    1.23345   1.24301   1.26069   1.28213   1.29216
 Alpha virt. eigenvalues --    1.30092   1.31723   1.32007   1.33556   1.34621
 Alpha virt. eigenvalues --    1.35757   1.36136   1.38669   1.39003   1.40803
 Alpha virt. eigenvalues --    1.41254   1.42361   1.43308   1.44448   1.44615
 Alpha virt. eigenvalues --    1.44968   1.45565   1.46460   1.47502   1.48435
 Alpha virt. eigenvalues --    1.49324   1.49594   1.50000   1.50810   1.51391
 Alpha virt. eigenvalues --    1.51590   1.51851   1.52730   1.53300   1.53591
 Alpha virt. eigenvalues --    1.53972   1.54909   1.55468   1.56110   1.56643
 Alpha virt. eigenvalues --    1.57665   1.57773   1.58303   1.59106   1.59637
 Alpha virt. eigenvalues --    1.60258   1.61252   1.61772   1.61996   1.63387
 Alpha virt. eigenvalues --    1.64134   1.64392   1.65482   1.65665   1.66817
 Alpha virt. eigenvalues --    1.68056   1.68680   1.69053   1.70132   1.70303
 Alpha virt. eigenvalues --    1.71090   1.71973   1.72557   1.73591   1.73852
 Alpha virt. eigenvalues --    1.74450   1.75141   1.75865   1.75980   1.76319
 Alpha virt. eigenvalues --    1.76686   1.77915   1.78811   1.79570   1.80763
 Alpha virt. eigenvalues --    1.81252   1.81863   1.82345   1.82700   1.84363
 Alpha virt. eigenvalues --    1.85064   1.85473   1.86370   1.87192   1.87375
 Alpha virt. eigenvalues --    1.88105   1.89083   1.89519   1.89961   1.90403
 Alpha virt. eigenvalues --    1.90939   1.91162   1.92259   1.92606   1.93269
 Alpha virt. eigenvalues --    1.93370   1.93990   1.94782   1.95005   1.95445
 Alpha virt. eigenvalues --    1.97799   1.98058   1.98373   1.99076   1.99706
 Alpha virt. eigenvalues --    2.00246   2.01892   2.02334   2.02983   2.04273
 Alpha virt. eigenvalues --    2.04891   2.05305   2.05995   2.06275   2.06812
 Alpha virt. eigenvalues --    2.07518   2.08020   2.08953   2.09703   2.10213
 Alpha virt. eigenvalues --    2.11137   2.11921   2.12736   2.13138   2.14304
 Alpha virt. eigenvalues --    2.14748   2.15639   2.17122   2.18213   2.18591
 Alpha virt. eigenvalues --    2.19942   2.20718   2.21478   2.22286   2.22861
 Alpha virt. eigenvalues --    2.24404   2.24610   2.24818   2.26230   2.28105
 Alpha virt. eigenvalues --    2.28860   2.30015   2.31630   2.34157   2.34749
 Alpha virt. eigenvalues --    2.35529   2.36685   2.37108   2.37684   2.39453
 Alpha virt. eigenvalues --    2.40737   2.41703   2.42844   2.44228   2.44603
 Alpha virt. eigenvalues --    2.45987   2.47159   2.48094   2.49857   2.51985
 Alpha virt. eigenvalues --    2.53586   2.54461   2.56348   2.56415   2.56939
 Alpha virt. eigenvalues --    2.57668   2.59007   2.59478   2.61538   2.61768
 Alpha virt. eigenvalues --    2.63996   2.64794   2.65464   2.66171   2.67515
 Alpha virt. eigenvalues --    2.68254   2.69888   2.70404   2.71104   2.71676
 Alpha virt. eigenvalues --    2.71901   2.72351   2.72617   2.73075   2.74000
 Alpha virt. eigenvalues --    2.74527   2.75255   2.75516   2.76046   2.76521
 Alpha virt. eigenvalues --    2.76813   2.77137   2.77438   2.77980   2.78092
 Alpha virt. eigenvalues --    2.78882   2.79142   2.80042   2.80539   2.81904
 Alpha virt. eigenvalues --    2.83049   2.83907   2.83995   2.84795   2.85732
 Alpha virt. eigenvalues --    2.87111   2.87424   2.88078   2.88593   2.89642
 Alpha virt. eigenvalues --    2.91042   2.92051   2.92630   2.94081   2.95112
 Alpha virt. eigenvalues --    2.95604   2.97461   2.98624   2.98964   3.00781
 Alpha virt. eigenvalues --    3.01695   3.02699   3.04337   3.06033   3.07131
 Alpha virt. eigenvalues --    3.08083   3.09708   3.11321   3.12462   3.13339
 Alpha virt. eigenvalues --    3.15424   3.16003   3.16662   3.18408   3.19763
 Alpha virt. eigenvalues --    3.20748   3.22706   3.23110   3.25312   3.25814
 Alpha virt. eigenvalues --    3.26899   3.29158   3.30821   3.32217   3.34125
 Alpha virt. eigenvalues --    3.34984   3.35608   3.36389   3.37827   3.39690
 Alpha virt. eigenvalues --    3.40512   3.40942   3.42681   3.44430   3.47208
 Alpha virt. eigenvalues --    3.48075   3.49370   3.50612   3.52955   3.54208
 Alpha virt. eigenvalues --    3.57195   3.58507   3.59800   3.61791   3.62729
 Alpha virt. eigenvalues --    3.63622   3.68376   3.70365   3.71657   3.79205
 Alpha virt. eigenvalues --    3.80704   3.82291   3.84680   3.92811   3.94617
 Alpha virt. eigenvalues --    3.98933   4.03006   4.05795   4.05977   4.07984
 Alpha virt. eigenvalues --    4.08518   4.09505   4.09979   4.15240   4.20057
 Alpha virt. eigenvalues --    4.23728   4.27343   4.31629   4.37698   4.47073
 Alpha virt. eigenvalues --    4.57462   4.64476   4.66231   4.70792   4.73580
 Alpha virt. eigenvalues --    4.78746   4.81788   4.82464   4.88765  23.43833
 Alpha virt. eigenvalues --   23.63567  23.64173  23.77997  23.79088  23.80829
 Alpha virt. eigenvalues --   23.83174  23.85749  23.90329  23.91895  23.93193
 Alpha virt. eigenvalues --   23.94519  23.95538  23.96160  23.99903  24.01075
 Alpha virt. eigenvalues --   24.01294  24.06174  24.06389  24.08781  24.09147
 Alpha virt. eigenvalues --   24.10272  24.13464  24.14404  24.16721  24.18214
 Alpha virt. eigenvalues --   24.18655  24.19882  24.20973  24.26039
          Condensed to atoms (all electrons):
               1          2          3          4          5          6
     1  C   10.938658   0.494513  -0.411912   0.852673  -1.840534  -1.274301
     2  C    0.494513  11.314723   1.047555  -3.002335  -1.371160   2.167915
     3  C   -0.411912   1.047555  10.965869   0.961396   1.675527  -1.422450
     4  C    0.852673  -3.002335   0.961396  13.643623   0.695964  -2.721375
     5  C   -1.840534  -1.371160   1.675527   0.695964  12.226191  -0.188081
     6  C   -1.274301   2.167915  -1.422450  -2.721375  -0.188081  11.334854
     7  C   -0.576176  -1.638465   2.360213   0.163614   0.767330  -1.389502
     8  C    0.076080  -3.241559  -3.794967   3.253091   0.581497   0.417755
     9  C   -0.072828   1.248534   2.948991  -1.027142  -0.279033  -0.466319
    10  C   -0.024145  -2.801818  -2.058464  -1.614745   0.724750  -1.144673
    11  C   -1.687289   1.775991  -1.429300  -1.751011  -0.625737   0.934768
    12  C   -0.259661   1.112771   0.942104  -1.893688  -0.144174  -0.138086
    13  C   -0.098337  -0.826237  -1.114989   0.706140   0.072211   0.038081
    14  C   -0.240205   0.617184  -0.654163   0.083159  -0.206599   0.251262
    15  C    1.423382  -0.122479  -0.427024  -0.037519  -1.208271  -0.270282
    16  C    0.176211  -0.278846  -0.936045  -0.360275  -0.914741  -0.258722
    17  C   -0.497300   0.150488  -0.673957  -0.701577  -1.567896   0.427882
    18  C    0.567947   0.931641  -0.528934  -0.786215  -0.998632  -0.407196
    19  C    0.011967  -0.090979  -0.249214   0.228564  -0.000879   0.010483
    20  C    0.172200   0.319946   0.307826  -0.368878   0.039438  -0.056577
    21  C    0.141908   0.120496  -0.027205   0.026412  -0.003790   0.020779
    22  C   -0.011495   0.000553  -0.017724  -0.032125   0.003022  -0.000158
    23  C   -0.703869  -0.887367  -0.199894  -0.066123  -0.506362  -0.159120
    24  C   -0.202950  -0.479729  -0.154376  -0.074844  -0.323333  -0.001367
    25  C   -0.102526  -0.236589  -0.126068  -0.133266  -0.120652   0.041096
    26  C   -0.729956   0.011257  -0.505167  -0.068635  -0.183190  -0.062893
    27  C   -0.263445  -0.120980  -0.167206  -0.173920  -0.122976  -0.002732
    28  C   -0.025198  -0.020856  -0.063779  -0.026371   0.003786  -0.004448
    29  C   -0.046264  -0.212956  -0.080432  -0.024924  -0.025499   0.008323
    30  C   -0.033872  -0.025250   0.015267   0.004632  -0.008654  -0.001251
    31  H    0.000035   0.000016  -0.000021  -0.000001   0.000000   0.000000
    32  H   -0.000371   0.000528  -0.000187   0.000028  -0.000027  -0.000002
    33  H   -0.006948  -0.026070   0.019913  -0.012010  -0.001757  -0.009413
    34  H    0.000435  -0.000182  -0.000013  -0.000009   0.000028   0.000002
    35  H    0.001852   0.000624   0.000228   0.000022   0.000099   0.000013
    36  H    0.033830   0.006092  -0.000005  -0.000193   0.005077   0.000846
    37  H   -0.022154   0.024442   0.005970   0.007044   0.029787   0.000734
    38  H   -0.053145   0.039354  -0.030529  -0.046806   0.307271   0.035680
    39  H   -0.004523  -0.012722   0.003101  -0.106255  -0.023270   0.404511
    40  H    0.004830   0.003654   0.051911  -0.028432   0.005374   0.011872
    41  H    0.000159  -0.003020  -0.033592  -0.021670  -0.001130   0.008910
    42  H    0.000637  -0.000008  -0.004321   0.005766   0.000087  -0.000713
    43  H   -0.000081  -0.001081   0.000436   0.000140  -0.000003   0.000030
    44  H   -0.000007   0.000007   0.000062   0.000005  -0.000005   0.000003
    45  H   -0.000349  -0.000310  -0.000580  -0.000058  -0.000010  -0.000008
    46  H   -0.000067   0.000973   0.002684  -0.000275  -0.000028   0.000068
               7          8          9         10         11         12
     1  C   -0.576176   0.076080  -0.072828  -0.024145  -1.687289  -0.259661
     2  C   -1.638465  -3.241559   1.248534  -2.801818   1.775991   1.112771
     3  C    2.360213  -3.794967   2.948991  -2.058464  -1.429300   0.942104
     4  C    0.163614   3.253091  -1.027142  -1.614745  -1.751011  -1.893688
     5  C    0.767330   0.581497  -0.279033   0.724750  -0.625737  -0.144174
     6  C   -1.389502   0.417755  -0.466319  -1.144673   0.934768  -0.138086
     7  C   16.807335   1.159585  -1.536482   2.814510   0.405331  -0.623457
     8  C    1.159585  23.343046  -7.489419   1.849060  -0.978224  -4.055241
     9  C   -1.536482  -7.489419  13.494142  -1.794104  -0.996220   1.313790
    10  C    2.814510   1.849060  -1.794104  12.532644  -0.952404  -0.170631
    11  C    0.405331  -0.978224  -0.996220  -0.952404  19.565632  -1.496425
    12  C   -0.623457  -4.055241   1.313790  -0.170631  -1.496425  18.585624
    13  C   -0.877204   1.631059  -1.778988   0.332088   0.889099  -3.142568
    14  C   -3.357670  -2.852341   1.578392  -1.559929   1.869346  -3.487420
    15  C   -0.041414  -0.038851  -0.094933   0.080968  -0.426142   0.066671
    16  C   -1.301439  -0.287481   0.047136  -0.166709  -1.394611   0.227371
    17  C   -0.817873  -0.087407  -0.215852  -0.004876   0.486476   0.157964
    18  C   -2.190302  -0.577703  -0.062706   0.271236  -1.065582   0.495079
    19  C   -0.856569  -0.412234  -0.207908  -0.089728   0.794578  -0.587862
    20  C   -1.183815  -2.077541   0.912789  -0.193576  -3.925617   3.368832
    21  C   -1.169055   0.192326   0.149021  -0.054215  -2.472727  -1.871909
    22  C    0.189032  -0.358519  -0.082234   0.015465  -0.331879   1.013036
    23  C   -0.106759   0.001195  -0.020935   0.002421   0.071686  -0.163620
    24  C   -0.245648  -0.013419   0.002996  -0.001551   0.209549   0.153243
    25  C   -0.358147  -0.061011   0.036076  -0.041109  -0.168133  -0.336119
    26  C   -0.109160  -0.323982   0.172989  -0.073951   0.110736  -0.302727
    27  C   -0.200662  -0.601837   0.236902  -0.116606  -0.286573  -1.001699
    28  C   -0.162579  -0.015271   0.040789  -0.009456  -0.104088  -0.799411
    29  C   -0.135813  -0.019400   0.007179  -0.005978  -0.403390  -0.086917
    30  C    0.012431   0.009842  -0.002223   0.001883  -0.076087  -0.000633
    31  H   -0.000173   0.000005   0.000000  -0.000000  -0.002026   0.002056
[...]
 -0.00001494,-0.00001391,0.00000516,-0.00006668,0.00006876,-0.00001705,
 0.00005134,-0.00010240,0.00008432,0.00000733,0.00003366,0.00003825,0.0
 0000032,-0.00002374,-0.00000328,0.00005894,-0.00001443,0.00000813,-0.0
 0000540,0.00000279,-0.00000162,0.00007016,-0.00000497,-0.00004995,0.00
 000203,-0.00001546,-0.00000511,-0.00000358,-0.00001066,-0.00000449,-0.
 00000378,-0.00000474,-0.00000159,0.00000256,-0.00000411,-0.00000032,0.
 00000060,-0.00000176,-0.00000775,0.00000136,-0.00000659,0.00000886,0.0
 0000449,-0.00000186,0.00000048,0.00000507,-0.00000476,-0.00000331,-0.0
 0000764,0.00000889,-0.00002187,-0.00012735,0.00012471,0.00071112,0.160
 85419,0.00002959,-0.00001435,-0.00000805,-0.00002329,-0.00008093,-0.00
 006742,0.00012586,-0.00001298,0.00002544,0.00005935,0.00002334,-0.0000
 1343,-0.00000412,0.00000259,0.00000977,0.00000072,-0.00000280,-0.00000
 247,-0.00019678,0.00038088,0.00004074,0.00051619,-0.00036814,-0.000986
 48,-0.00013297,0.00002016,0.00002888,0.00001545,-0.00011110,0.00004878
 ,-0.00115003,-0.00073389,-0.00005471,0.00340354,-0.00344805,0.00183551
 ,-0.01593807,-0.02027413,0.01235346,-0.00281444,0.00079756,-0.00121052
 ,-0.00001135,-0.00002482,-0.00000189,0.00001793,-0.00000286,-0.0000183
 5,-0.00001966,-0.00001723,-0.00002889,0.00019281,-0.00002642,0.0002993
 1,-0.09709717,-0.14546973,0.07956850,0.00075399,-0.00028254,0.00054115
 ,-0.00015531,0.00229107,-0.00028593,-0.00320719,-0.00331173,-0.0007545
 1,0.00000142,0.00000322,-0.00000178,0.00000347,0.00000212,0.00000049,-
 0.00004543,0.00001084,-0.00000514,0.00004354,-0.00001586,0.00003193,0.
 00001283,0.00013426,0.00000269,-0.00004500,-0.00006923,-0.00001231,0.0
 0001195,-0.00002939,-0.00000704,-0.00000484,0.00005610,0.00000492,-0.0
 0000729,-0.00000181,0.00000377,-0.00002984,0.00001902,0.00000081,0.000
 05120,-0.00010040,0.00007363,-0.00000267,-0.00000026,0.00000167,-0.000
 00416,-0.00000172,0.00000108,-0.00000050,-0.00000504,-0.00000032,0.000
 00011,-0.00000455,0.00000385,0.00000295,-0.00000146,-0.00001324,0.0000
 0517,-0.00000498,0.00000042,0.00000850,-0.00000207,0.00000436,0.000029
 95,0.00000005,-0.00002035,0.00092394,0.00086296,0.00089894,0.10642665,
 0.16097437,-0.00003558,0.00001786,0.00000596,0.00001604,0.00000562,0.0
 0000213,-0.00002449,-0.00006290,0.00003742,-0.00004298,0.00004642,0.00
 000252,0.00001349,0.00003335,0.00000152,0.00001904,-0.00004502,-0.0000
 1369,-0.00004007,-0.00010732,-0.00007828,-0.00022406,-0.00015838,0.000
 16087,0.00002713,0.00006704,-0.00006165,0.00002498,0.00001495,-0.00001
 477,0.00012195,0.00011044,0.00019879,-0.00061378,0.00005453,0.00030140
 ,0.00334875,0.00070718,-0.00209720,0.00013297,-0.00011131,0.00062706,0
 .00001977,-0.00000374,-0.00000524,-0.00001540,0.00000462,0.00001080,0.
 00002609,-0.00000175,-0.00000634,-0.00004175,0.00001976,-0.00002833,0.
 07625085,0.08199661,-0.10406008,-0.00014876,-0.00026937,0.00042435,-0.
 00250582,0.00107243,-0.00185732,-0.01365824,-0.01406997,0.00915968,-0.
 00000221,-0.00001186,-0.00000156,0.00000498,0.00000631,-0.00000153,0.0
 0004306,-0.00000647,0.00000176,-0.00005588,-0.00000794,0.00000449,0.00
 013090,-0.00001101,-0.00000247,0.00001613,0.00001248,-0.00001617,-0.00
 001683,0.00001153,0.00000320,0.00000784,-0.00000266,0.00002786,0.00000
 235,-0.00000021,-0.00000292,0.00000199,0.00001623,-0.00005003,0.000028
 53,-0.00001906,0.00003744,0.00000048,0.00000266,-0.00000620,0.00000258
 ,-0.00000039,-0.00000008,0.00000005,0.00000240,0.00000011,0.00000026,0
 .00000283,-0.00000129,0.00000279,0.00000100,0.00000422,-0.00000411,0.0
 0000355,0.00000330,-0.00000534,0.00000240,0.00000494,-0.00000774,0.000
 00413,0.00001944,-0.00060210,-0.00007454,0.00002456,-0.08171306,-0.085
 95303,0.11258789,0.00001528,-0.00000133,-0.00000899,-0.00000731,0.0000
 2218,0.00002889,0.00000733,0.00000019,-0.00001721,0.00000646,-0.000015
 90,-0.00000412,-0.00002988,0.00001273,0.00000569,0.00002463,0.00001855
 ,0.00000170,0.00000986,0.00002866,-0.00016174,-0.00039964,-0.00013945,
 0.00011282,0.00001248,0.00014690,-0.00003676,-0.00003455,-0.00000275,0
 .00002023,-0.00018448,0.00021114,0.00082271,-0.00008708,-0.00013236,0.
 00050406,-0.00311806,-0.00325340,-0.00307232,-0.00012158,0.00164369,-0
 .00033157,-0.00001038,-0.00001095,-0.00000316,0.00000621,0.00000684,0.
 00001542,0.00003787,-0.00000135,-0.00001432,-0.00000054,0.00013795,0.0
 0001500,-0.00646191,0.01900420,-0.01213196,0.00147884,-0.00356375,-0.0
 0412300,0.00873190,-0.01582937,0.00790850,-0.08243490,0.07276501,-0.06
 260859,-0.00000213,-0.00000100,-0.00000140,-0.00001417,-0.00000772,-0.
 00000399,0.00000400,-0.00003789,-0.00002711,-0.00010195,0.00001525,0.0
 0004810,0.00020913,-0.00042304,0.00013275,-0.00002321,0.00011523,0.000
 07122,0.00001139,0.00001972,-0.00000765,-0.00002451,-0.00002418,-0.000
 01086,-0.00000890,-0.00000591,0.00000635,-0.00004771,-0.00010343,0.000
 06929,0.00008952,-0.00019715,0.00010081,-0.00000058,-0.00000329,0.0000
 0898,-0.00000116,-0.00000429,-0.00000174,-0.00000144,0.00000046,0.,0.0
 0000115,0.00000203,-0.00000176,0.00000151,0.00000089,0.00000237,-0.000
 00265,0.00000250,-0.00000095,-0.00000865,0.00001719,0.00000445,-0.0000
 0111,-0.00000943,-0.00000544,0.00000289,-0.00002055,0.00001542,0.00093
 937,0.00024461,0.00088773,0.08306698,-0.00000763,-0.00000364,0.0000092
 1,0.00001309,-0.00000988,-0.00000831,0.00004403,-0.00005604,-0.0000280
 2,-0.00002192,0.00001457,0.00000220,-0.00000335,0.00003240,0.00000616,
 0.00002315,-0.00002657,-0.00000864,-0.00011696,-0.00003162,0.00006366,
 -0.00001530,-0.00004800,0.00026983,-0.00000950,0.00007092,-0.00002796,
 -0.00000898,-0.00000017,-0.00002039,0.00029633,-0.00010122,-0.00032973
 ,-0.00039825,0.00019849,-0.00058789,-0.00090479,0.00015962,-0.00058724
 ,-0.00030575,0.00032928,0.00010878,0.00001006,-0.00000369,-0.00000857,
 0.00002697,0.00000484,0.00001006,-0.00003116,0.00002513,0.00000421,0.0
 0001129,0.00000018,0.00002023,-0.00326540,0.00693247,-0.00305345,-0.00
 574706,-0.00061571,0.00203168,0.01124537,-0.01701010,0.01710678,0.0685
 8690,-0.21538457,0.11981140,-0.00001457,-0.00002330,-0.00000587,-0.000
 03019,0.00001253,-0.00000754,0.00003613,-0.00010710,-0.00005210,-0.000
 47194,-0.00001603,0.00010051,0.00103612,-0.00099698,0.00051404,0.00005
 550,-0.00012675,-0.00008264,-0.00002221,-0.00006583,0.00000987,0.00000
 867,0.00003461,-0.00000023,-0.00002859,-0.00000743,0.00000766,0.000062
 31,0.00006960,-0.00000367,-0.00004301,0.00006787,-0.00003646,-0.000008
 21,-0.00000649,0.00000029,-0.00000419,-0.00002275,-0.00000285,0.000004
 60,-0.00000772,0.00000068,0.00000242,-0.00000590,-0.00000118,0.0000038
 9,-0.00000469,-0.00000146,0.00000413,-0.00000080,0.00000182,0.00000252
 ,0.00000418,0.00000303,0.00000968,0.00000228,0.00000643,0.00000988,-0.
 00001623,-0.00011645,0.00031748,0.00063342,0.00015700,-0.07239188,0.22
 667813,-0.00005545,0.00001532,0.00002132,0.00000505,0.00000413,-0.0000
 0270,0.00007014,-0.00015633,-0.00003611,-0.00012441,0.00009723,0.00001
 734,0.00003143,0.00009185,0.00001614,0.00004980,-0.00012298,-0.0000265
 8,-0.00027653,0.00003547,0.00001578,-0.00005168,-0.00019436,0.00081720
 ,0.00005059,0.00022714,-0.00005879,-0.00002709,0.00003336,-0.00004830,
 0.00034767,-0.00022830,-0.00076525,-0.00012775,-0.00055237,-0.00072939
 ,-0.00135836,-0.00194429,-0.00042480,-0.00042260,0.00067373,-0.0002068
 0,0.00003830,-0.00001076,-0.00000892,0.00000491,0.00001514,0.00001463,
 -0.00006394,0.00003048,0.00001515,0.00004735,-0.00010942,-0.00002873,-
 0.00289660,0.01270613,-0.00297445,-0.00351035,0.00170839,0.00747091,-0
 .00208315,0.00206809,0.00444108,-0.06293387,0.12194596,-0.12524755,-0.
 00001906,-0.00003919,-0.00001001,0.00002102,0.00001826,0.00000928,0.00
 005531,-0.00000874,-0.00002143,-0.00013727,-0.00008277,-0.00006749,0.0
 0030317,-0.00001867,0.00034855,0.00001902,-0.00009616,-0.00018784,-0.0
 0002325,-0.00005358,0.00001548,0.00005703,0.00002183,0.00005413,0.0000
 1212,0.00000627,-0.00000452,0.00009563,0.00016878,-0.00009989,-0.00007
 161,0.00015370,-0.00009494,-0.00000043,0.00000419,-0.00001902,0.000006
 64,-0.00000616,0.00000012,0.00000323,0.00000403,-0.00000186,0.00000305
 ,0.00000551,0.00000141,0.00000699,0.00000633,-0.00000295,-0.00000775,0
 .00000697,0.00000749,-0.00001560,0.00002324,0.00000513,0.00001141,-0.0
 0001189,0.00001705,0.00003008,-0.00005610,-0.00034698,-0.00025271,-0.0
 0052216,0.00069355,0.06935840,-0.13293547,0.12189526,0.00000108,0.0000
 1769,0.00002065,-0.00002015,0.00003275,0.00001446,-0.00005005,-0.00003
 306,0.00001185,-0.00003639,0.00001633,0.00002247,-0.00001097,0.0000408
 2,0.00001428,0.00001977,-0.00002416,-0.00000045,0.00009504,0.00024579,
 -0.00012824,0.00001160,-0.00004049,0.00003707,0.00003256,0.00000314,-0
 .00003559,-0.00000028,0.00005080,0.00000464,-0.00046347,-0.00013213,0.
 00006920,0.00109881,0.00097295,-0.00105003,0.00064860,0.00015057,0.000
 31199,0.00002299,-0.00011133,0.00006504,-0.00002322,0.00002204,0.00000
 436,0.00003765,0.00005883,0.00002071,0.00008739,-0.00006234,-0.0000067
 4,-0.00009457,-0.00015673,-0.00005444,0.00340051,-0.00343012,-0.003040
 84,-0.00730992,-0.00148659,-0.00463761,-0.25306660,-0.02759634,-0.1308
 4344,-0.01022582,-0.00063282,-0.00953273,-0.00008738,-0.00006056,-0.00
 000314,0.00009610,-0.00000989,-0.00002280,-0.00030451,0.00003501,0.000
 09312,0.00018137,0.00075878,-0.00009409,-0.00038642,-0.00109807,0.0013
 3713,-0.00057067,-0.00073714,0.00187776,0.00009626,-0.00023605,-0.0001
 5880,0.00033482,0.00007413,0.00016769,-0.00000204,-0.00000161,0.000091
 51,-0.00047838,-0.00144549,0.00119432,0.00003169,-0.00001099,0.0000024
 5,-0.00000097,-0.00001548,-0.00004435,0.00000355,0.00000788,-0.0000069
 4,0.00000266,0.00000581,0.00000092,0.00000075,0.00000696,-0.00000240,-
 0.00000022,0.00000552,-0.00000154,-0.00000565,0.00000895,-0.00000108,-
 0.00000678,0.00000485,0.00000287,-0.00000225,-0.00000477,0.00000071,-0
 .00001120,-0.00001841,-0.00000049,0.00019787,-0.00014638,-0.00004957,-
 0.00101610,0.00117239,0.00334465,0.26899551,0.00001255,-0.00001390,-0.
 00001330,-0.00001423,-0.00002406,-0.00000363,0.00020470,-0.00000055,-0
 .00004586,-0.00003469,-0.00002770,-0.00002316,-0.00000583,-0.00002377,
 -0.00000529,0.00000353,0.00001983,0.00000401,-0.00016192,-0.00036120,0
 .00020918,-0.00000171,0.00002753,0.00003785,0.00001704,0.00001214,-0.0
 0001398,0.00002355,0.00001277,-0.00000584,0.00141664,0.00017275,-0.000
 25296,-0.00010345,-0.00357697,0.00243762,-0.00007777,-0.00059764,0.000
 22439,-0.00001935,0.00025946,-0.00006447,-0.00000334,-0.00002580,-0.00
 000758,-0.00002314,0.00001250,-0.00000999,0.00000740,-0.00003955,0.000
 00843,0.00004937,0.00024479,0.00005868,-0.00314429,-0.00256800,0.00477
 242,0.01995010,0.00274933,0.01262112,-0.02724705,-0.05423385,-0.009662
 55,-0.02641187,-0.00024068,-0.01493506,0.00002479,0.00002659,0.0000072
 0,-0.00003582,-0.00004350,-0.00000982,0.00016921,-0.00000506,0.0000118
 3,-0.00002465,-0.00028402,-0.00020829,0.00162197,0.00067950,0.00004123
 ,-0.00049853,-0.00001662,0.00076635,-0.00012579,0.00018930,-0.00000812
 ,-0.00034333,-0.00030808,-0.00007281,0.00001783,-0.00000175,0.00005233
 ,-0.00015301,-0.00004817,0.00051612,-0.00006099,0.00006293,-0.00002636
 ,-0.00000165,0.00000616,0.00001596,0.00000051,0.00000195,0.00000493,-0
 .00000614,-0.00000030,0.00000128,-0.00000105,-0.00000186,0.00000369,0.
 00000070,-0.00000130,0.00000140,0.00000056,-0.00000749,-0.00000209,0.0
 0000081,0.00000322,0.00000322,0.00001163,-0.00000252,-0.00000375,0.000
 10798,0.00002133,-0.00003557,-0.00144157,-0.00020709,-0.00091935,0.001
 67142,-0.00013529,-0.00232620,0.03397762,0.05830021,-0.00003594,0.0000
 1250,0.00002379,0.00000124,0.00004126,0.00002859,-0.00013363,-0.000035
 31,0.00004657,-0.00000595,0.00005658,0.00002405,0.00001270,0.00006512,
 0.00001357,0.00002638,-0.00006183,-0.00002158,0.00010523,0.00035776,-0
 .00019659,0.00005639,-0.00016599,0.00002351,0.00000050,0.00007014,0.00
 001558,-0.00002661,-0.00001120,0.00000743,-0.00084173,-0.00026238,0.00
 040606,-0.00047732,0.00348435,-0.00085586,0.00032534,0.00007402,-0.000
 46915,-0.00031051,-0.00006601,-0.00016069,0.00002517,0.00002294,0.0000
 0322,0.00002913,0.00000301,0.00002778,-0.00006534,-0.00003179,-0.00002
 062,-0.00003957,-0.00024982,-0.00012159,-0.00370762,0.00285216,0.00833
 403,-0.01180300,-0.00422675,-0.00392266,-0.13100902,-0.00800350,-0.118
 32841,0.00097938,0.00126427,0.00486418,-0.00007023,-0.00010314,-0.0000
 2323,0.00010889,0.00004236,0.00000069,-0.00015127,-0.00004244,0.000037
 16,0.00010912,0.00023227,0.00002539,-0.00052921,-0.00095587,0.00022385
 ,0.00020090,0.00091281,-0.00016738,0.00006051,-0.00021643,-0.00010070,
 0.00043166,-0.00001953,0.00011310,0.00001873,0.00003791,-0.00000186,0.
 00092165,0.00038292,-0.00153915,0.00000081,0.00002533,-0.00003694,-0.0
 0000816,-0.00005706,-0.00003500,-0.00000276,-0.00000710,0.00000170,0.0
 0001069,0.00000053,-0.00000131,0.00000363,0.00000216,-0.00000052,0.000
 00197,0.00000308,-0.00000152,-0.00000325,0.00000964,0.00000656,-0.0000
 0727,0.00000566,-0.00000437,-0.00000441,-0.00000234,0.00000680,-0.0000
 2202,0.00004100,0.00003750,-0.00101186,0.00005672,-0.00068791,0.003334
 87,-0.00236598,-0.00416692,0.14159569,0.00661929,0.11576213,0.00004070
 ,-0.00004155,-0.00002881,-0.00000872,0.00007820,0.00002622,0.00005928,
 -0.00016035,0.00013337,-0.00007134,-0.00001424,-0.00003167,-0.00011399
 ,0.00006754,0.00003135,0.00008229,0.00004855,-0.00000851,-0.00017428,0
 .00034916,-0.00030751,-0.00002371,-0.00029936,-0.00138616,0.00007555,-
 0.00002515,-0.00010003,0.00010328,0.00010502,0.00010773,-0.00036051,0.
 00009878,0.00050646,-0.00061149,-0.00023168,0.00070404,-0.00610055,0.0
 0902728,0.01142215,0.00040141,0.00207356,-0.00096725,-0.00002441,-0.00
 003175,-0.00000655,0.00003034,0.00001431,0.00002146,0.00000076,-0.0000
 0797,-0.00002541,0.00002239,0.00010010,0.00001825,-0.05186685,0.019911
 63,0.04505466,0.00073849,0.00116522,-0.00152119,-0.00238328,-0.0002869
 0,-0.00131042,0.00447299,-0.01502014,-0.02607044,-0.00002879,-0.000029
 53,-0.00000449,0.00002246,-0.00000801,-0.00000282,-0.00003576,0.000002
 81,-0.00000081,-0.00000342,0.00009200,-0.00000794,-0.00012728,-0.00015
 112,-0.00002166,-0.00009306,0.00001461,0.00017081,0.00002035,-0.000032
 70,-0.00002213,0.00006687,-0.00003535,0.00001757,-0.00000248,-0.000001
 43,0.00000221,0.00004723,-0.00015060,-0.00006217,0.00010213,-0.0001983
 7,0.00004809,-0.00000041,-0.00001073,-0.00000206,0.00000165,-0.0000029
 0,-0.00000169,-0.00000060,0.00000113,-0.00000189,0.00000249,0.00000412
 ,-0.00000129,0.00000469,0.00000152,-0.00000123,-0.00000532,0.00000925,
 0.00000293,-0.00000780,0.00000434,0.00000823,-0.00000964,-0.00000846,-
 0.00001790,-0.00027710,0.00021047,0.00110013,-0.00482259,0.00815476,0.
 01867705,-0.00051224,0.00086791,0.00048644,-0.00122254,0.00065128,0.00
 190608,0.06259277,0.00001944,0.00008364,-0.00003864,0.00001201,-0.0001
 2102,-0.00001571,-0.00005120,0.00026364,-0.00006875,0.00015835,0.00005
 973,0.00003974,0.00015773,-0.00016138,-0.00006632,-0.00018344,-0.00004
 868,-0.00000203,0.00062920,-0.00021784,0.00031707,0.00017664,-0.000485
 31,0.00170484,-0.00039995,0.00012409,0.00023671,-0.00017285,-0.0003361
 7,-0.00013528,0.00049817,-0.00051071,-0.00054897,0.00138210,0.00106734
 ,0.00080015,0.01101583,-0.01595592,-0.02240564,-0.00128089,0.00023863,
 0.00067070,-0.00000597,0.00004683,0.00002120,-0.00004867,-0.00002513,-
 0.00002947,0.00004692,-0.00003400,0.00003526,-0.00004650,-0.00014808,0
 .00002455,0.02405808,-0.08561720,-0.08828010,-0.00074215,-0.00007084,0
 .00063890,-0.00054206,0.00151799,-0.00032178,-0.00400916,-0.00212256,-
 0.00626400,0.00004135,0.00006692,0.00001055,-0.00005912,-0.00003432,0.
 00000180,-0.00000087,-0.00001808,-0.00003442,0.00008804,-0.00009645,0.
 00001299,-0.00004627,-0.00011935,-0.00012559,0.00000516,0.00001759,-0.
 00001213,0.00003637,0.00003855,0.00000031,-0.00003630,0.00005113,0.000
 04546,0.00000443,0.00000320,0.00000121,-0.00007119,0.00001048,-0.00003
 362,-0.00015025,0.00017606,-0.00010737,-0.00000012,0.00000847,-0.00000
 280,-0.00000314,0.00000715,0.00000084,-0.00000405,-0.00000212,0.000001
 73,-0.00000610,-0.00000870,-0.00000041,-0.00000789,-0.00001171,0.00002
 415,0.00001259,-0.00002009,-0.00000401,0.00001844,-0.00001314,-0.00001
 275,0.00000131,0.00001968,0.00002140,0.00014052,-0.00014733,-0.0010572
 3,-0.00424365,0.00841358,0.01746296,0.00009306,-0.00043600,-0.00059562
 ,-0.00017867,-0.00000556,0.00020867,-0.02630527,0.09455299,-0.00000842
 ,0.00000469,0.00000844,0.00004335,-0.00001561,-0.00000470,0.00006466,-
 0.00014771,-0.00004078,-0.00001095,0.00011107,0.00002178,0.00001739,0.
 00004121,0.00000631,-0.00000267,-0.00006662,-0.00001414,0.00007805,0.0
 0039580,-0.00026438,0.00048107,-0.00087539,-0.00010890,-0.00024073,0.0
 0006863,-0.00002074,0.00005260,-0.00012143,0.00002221,-0.00026350,0.00
 015691,0.00022911,-0.00006831,-0.00074792,-0.00107158,0.00044159,0.000
 65625,0.00785884,-0.00132596,0.00106632,0.00111956,-0.00000588,-0.0000
 1264,-0.00000532,0.00001061,-0.00000579,0.00000201,0.00000724,0.000001
 67,-0.00001986,0.00001538,0.00011278,0.00005603,0.04942456,-0.08582640
 ,-0.22299734,0.00134368,-0.00139880,-0.00018295,-0.00084190,0.00359611
 ,-0.00089529,-0.00402411,-0.00917921,-0.01570213,-0.00000310,-0.000008
 02,0.00000040,0.00000844,0.00000406,-0.00000307,0.00000578,0.00000873,
 0.00000074,-0.00001436,-0.00004536,0.00004014,0.00026321,0.00024075,0.
 00005298,-0.00018632,0.00002999,0.00006605,-0.00002392,-0.00004320,-0.
 00000573,0.00007483,0.00002697,0.00004686,-0.00001288,0.00000016,0.000
 00232,0.00000656,-0.00007457,-0.00008796,0.00004575,-0.00005438,0.0001
 8363,-0.00000440,-0.00000833,-0.00001335,-0.00000497,-0.00000350,-0.00
 000188,0.00000066,-0.00000498,-0.00000114,-0.00000040,-0.00000427,-0.0
 0000211,0.00000341,-0.00000463,-0.00000479,0.00000347,-0.00000221,0.00
 000032,0.00000622,-0.00000893,0.00000034,0.00000595,0.00000826,-0.0000
 1315,-0.00000989,-0.00014719,-0.00019556,0.00467273,-0.00586880,-0.015
 35218,-0.00090112,0.00002658,-0.00029477,-0.00059019,0.00023751,0.0008
 3074,-0.04853320,0.09788143,0.24675499\\-0.00001076,0.00002066,0.00000
 185,0.00006497,-0.00003993,0.00000860,-0.00005783,0.00001131,-0.000023
 03,0.00005193,0.00000928,-0.00001650,0.00000889,0.00000617,0.00000480,
 -0.00001023,-0.00000497,0.00000548,-0.00001320,-0.00000669,-0.00001762
 ,0.00002645,0.00004906,-0.00000172,-0.00003300,0.00000134,0.00002401,-
 0.00001636,-0.00002687,0.00001171,0.00006670,-0.00006711,-0.00009604,-
 0.00003367,-0.00001866,0.00001657,0.00006387,0.00002186,-0.00003533,-0
 .00002339,-0.00003996,0.00002991,-0.00004487,0.00001646,0.00000634,0.0
 0004725,-0.00002811,-0.00000687,0.00002212,-0.00001871,0.00000340,-0.0
 0003442,0.00004570,0.00002031,0.00001893,0.00000827,0.00000955,-0.0000
 6496,0.00006931,-0.00001005,0.00002836,0.00000126,-0.00000247,-0.00000
 314,-0.00001087,0.00000755,-0.00002490,-0.00000043,-0.00000068,0.00002
 508,-0.00000907,-0.00000311,0.00004946,0.00003741,0.00000528,-0.000090
 77,-0.00000878,0.00000612,0.00009752,-0.00000290,0.00000724,-0.0000228
 9,-0.00001275,0.00000891,-0.00002992,0.00000908,0.00000037,-0.00001025
 ,-0.00000607,0.00000766,0.00000247,0.00000708,0.00000513,-0.00000149,0
 .00000240,0.00000397,-0.00002643,0.00000158,0.00003100,0.00000110,0.00
 000345,0.00000232,-0.00000799,0.00000419,-0.00000420,-0.00000853,0.000
 00056,-0.00000504,0.00000056,0.00000110,-0.00000470,0.00000195,-0.0000
 0061,-0.00000568,-0.00000412,-0.00000863,-0.00000708,0.00000221,0.0000
 0456,-0.00000396,0.00001273,-0.00001164,-0.00000883,0.00000359,0.00000
 096,0.00000055,-0.00002663,-0.00000774,-0.00000300,0.00001522,0.000004
 13,-0.00000048,-0.00000154,0.00000274,0.00001454,-0.00001009,-0.000009
 42,0.00001320\\\@


 Other things may change us, but we start and end with family.
 -- Anthony Brandt
 Job cpu time:       1 days  0 hours 49 minutes 12.4 seconds.
 Elapsed time:       0 days  1 hours 14 minutes 40.2 seconds.
 File lengths (MBytes):  RWF=   2289 Int=      0 D2E=      0 Chk=     47 Scr=      1
 Normal termination of Gaussian 16 at Fri Sep  6 17:40:07 2019.
