 Entering Gaussian System, Link 0=/share/apps/gaussian16/g16/g16
 Initial command:
 /share/apps/gaussian16/g16/l1.exe "/home/amen01//scratch/1010/Gau-26207.inp" -scrdir="/home/amen01//scratch/1010/"
 Entering Link 1 = /share/apps/gaussian16/g16/l1.exe PID=     26208.
  
 Copyright (c) 1988-2017, Gaussian, Inc.  All Rights Reserved.
  
 This is part of the Gaussian(R) 16 program.  It is based on
 the Gaussian(R) 09 system (copyright 2009, Gaussian, Inc.),
 the Gaussian(R) 03 system (copyright 2003, Gaussian, Inc.),
 the Gaussian(R) 98 system (copyright 1998, Gaussian, Inc.),
 the Gaussian(R) 94 system (copyright 1995, Gaussian, Inc.),
 the Gaussian 92(TM) system (copyright 1992, Gaussian, Inc.),
 the Gaussian 90(TM) system (copyright 1990, Gaussian, Inc.),
 the Gaussian 88(TM) system (copyright 1988, Gaussian, Inc.),
 the Gaussian 86(TM) system (copyright 1986, Carnegie Mellon
 University), and the Gaussian 82(TM) system (copyright 1983,
 Carnegie Mellon University). Gaussian is a federally registered
 trademark of Gaussian, Inc.
  
 This software contains proprietary and confidential information,
 including trade secrets, belonging to Gaussian, Inc.
  
 This software is provided under written license and may be
 used, copied, transmitted, or stored only in accord with that
 written license.
  
 The following legend is applicable only to US Government
 contracts under FAR:
  
                    RESTRICTED RIGHTS LEGEND
  
 Use, reproduction and disclosure by the US Government is
 subject to restrictions as set forth in subparagraphs (a)
 and (c) of the Commercial Computer Software - Restricted
 Rights clause in FAR 52.227-19.
  
 Gaussian, Inc.
 340 Quinnipiac St., Bldg. 40, Wallingford CT 06492
  
  
 ---------------------------------------------------------------
 Warning -- This program may not be used in any manner that
 competes with the business of Gaussian, Inc. or will provide
 assistance to any competitor of Gaussian, Inc.  The licensee
 of this program is prohibited from giving any competitor of
 Gaussian, Inc. access to this program.  By using this program,
 the user acknowledges that Gaussian, Inc. is engaged in the
 business of creating and licensing software in the field of
 computational chemistry and represents and warrants to the
 licensee that it is not a competitor of Gaussian, Inc. and that
 it will not use this program in any manner prohibited above.
 ---------------------------------------------------------------
  

 Cite this work as:
 Gaussian 16, Revision B.01,
 M. J. Frisch, G. W. Trucks, H. B. Schlegel, G. E. Scuseria, 
 M. A. Robb, J. R. Cheeseman, G. Scalmani, V. Barone, 
 G. A. Petersson, H. Nakatsuji, X. Li, M. Caricato, A. V. Marenich, 
 J. Bloino, B. G. Janesko, R. Gomperts, B. Mennucci, H. P. Hratchian, 
 J. V. Ortiz, A. F. Izmaylov, J. L. Sonnenberg, D. Williams-Young, 
 F. Ding, F. Lipparini, F. Egidi, J. Goings, B. Peng, A. Petrone, 
 T. Henderson, D. Ranasinghe, V. G. Zakrzewski, J. Gao, N. Rega, 
 G. Zheng, W. Liang, M. Hada, M. Ehara, K. Toyota, R. Fukuda, 
 J. Hasegawa, M. Ishida, T. Nakajima, Y. Honda, O. Kitao, H. Nakai, 
 T. Vreven, K. Throssell, J. A. Montgomery, Jr., J. E. Peralta, 
 F. Ogliaro, M. J. Bearpark, J. J. Heyd, E. N. Brothers, K. N. Kudin, 
 V. N. Staroverov, T. A. Keith, R. Kobayashi, J. Normand, 
 K. Raghavachari, A. P. Rendell, J. C. Burant, S. S. Iyengar, 
 J. Tomasi, M. Cossi, J. M. Millam, M. Klene, C. Adamo, R. Cammi, 
 J. W. Ochterski, R. L. Martin, K. Morokuma, O. Farkas, 
 J. B. Foresman, and D. J. Fox, Gaussian, Inc., Wallingford CT, 2016.
 
 ******************************************
 Gaussian 16:  ES64L-G16RevB.01 20-Dec-2017
                 7-Sep-2019 
 ******************************************
 %nprocshared=20
 Will use up to   20 processors via shared memory.
 %mem=180GB
 %chk=7-memb-dir-5bcis.chk
 -------------------------------------------
 # opt freq b3lyp/6-311+g(d,p) int=grid=fine
 -------------------------------------------
 1/18=20,19=15,26=3,38=1/1,3;
 2/9=110,12=2,17=6,18=5,40=1/2;
 3/5=4,6=6,7=111,11=2,25=1,30=1,71=1,74=-5,75=-4/1,2,3;
 4//1;
 5/5=2,38=5/2;
 6/7=2,8=2,9=2,10=2,28=1/1;
 7//1,2,3,16;
 1/18=20,19=15,26=3/3(2);
 2/9=110/2;
 99//99;
 2/9=110/2;
 3/5=4,6=6,7=111,11=2,25=1,30=1,71=1,74=-5,75=-4/1,2,3;
 4/5=5,16=3,69=1/1;
 5/5=2,38=5/2;
 7//1,2,3,16;
 1/18=20,19=15,26=3/3(-5);
 2/9=110/2;
 6/7=2,8=2,9=2,10=2,19=2,28=1/1;
 99/9=1/99;
 ----------------
 7-memb-dir-5bcis
 ----------------
 Symbolic Z-matrix:
 Charge =  0 Multiplicity = 1
 C                    -1.45458  -2.89335   0.09868 
 C                    -1.34933  -1.54578  -0.24542 
 C                    -2.46864  -0.71594  -0.38142 
 C                    -3.75662  -1.11332  -0.10666 
 C                    -2.80395  -3.36659   0.26823 
 C                    -3.89989  -2.51296   0.18455 
 C                    -2.01939   0.61487  -0.50085 
 C                    -2.91388   1.70119  -0.27084 
 C                    -4.3156    1.2984   -0.08637 
 C                    -4.71448  -0.01019  -0.02217 
 C                    -0.62929   0.63226  -0.42253 
 C                     0.06049   1.81899  -0.16593 
 C                    -0.81932   3.09197  -0.29998 
 C                    -2.32304   2.92025  -0.12173 
 C                    -0.20819  -3.52169   0.31243 
 C                     0.99604  -2.79501   0.23669 
 C                     1.04149  -1.35221  -0.00015 
 C                    -0.18746  -0.75951  -0.25337 
 C                    -0.33707   4.27053   0.55782 
 C                     1.41944   1.89839   0.08528 
 C                     1.91331   3.18857   0.57189 
 C                     1.13795   4.26702   0.78814 
 C                     2.24402  -3.48838   0.38241 
 C                     3.41772  -2.83555   0.23124 
 C                     3.48847  -1.41691  -0.01584 
 C                     2.29872  -0.61936  -0.03317 
 C                     2.43597   0.82242  -0.13966 
 C                     3.72321   1.30367  -0.44699 
 C                     4.75045  -0.84849  -0.2481 
 C                     4.85644   0.49956  -0.51823 
 H                     5.81487   0.943    -0.76346 
 H                     3.84683   2.35843  -0.64603 
 H                    -0.65708   3.32766  -1.36439 
 H                     5.62659  -1.48734  -0.24092 
 H                     4.35585  -3.37666   0.29342 
 H                     2.22651  -4.55502   0.57883 
 H                    -0.1507   -4.57971   0.54892 
 H                    -2.97494  -4.40845   0.51862 
 H                    -4.88636  -2.91915   0.38514 
 H                    -5.76472  -0.22975   0.14232 
 H                    -5.06145   2.07858   0.02708 
 H                    -2.89174   3.81123   0.12644 
 H                    -0.84054   4.22989   1.53992 
 H                     1.57373   5.14292   1.25917 
 H                     2.95253   3.2568    0.86422 
 H                    -0.66736   5.21055   0.10315 
 

 GradGradGradGradGradGradGradGradGradGradGradGradGradGradGradGradGradGrad
 Berny optimization.
 Initialization pass.
                           ----------------------------
                           !    Initial Parameters    !
                           ! (Angstroms and Degrees)  !
 --------------------------                            --------------------------
 ! Name  Definition              Value          Derivative Info.                !
 --------------------------------------------------------------------------------
 ! R1    R(1,2)                  1.3948         estimate D2E/DX2                !
 ! R2    R(1,5)                  1.44           estimate D2E/DX2                !
 ! R3    R(1,15)                 1.4121         estimate D2E/DX2                !
 ! R4    R(2,3)                  1.4            estimate D2E/DX2                !
 ! R5    R(2,18)                 1.4029         estimate D2E/DX2                !
 ! R6    R(3,4)                  1.3756         estimate D2E/DX2                !
 ! R7    R(3,7)                  1.4097         estimate D2E/DX2                !
 ! R8    R(4,6)                  1.4368         estimate D2E/DX2                !
 ! R9    R(4,10)                 1.4634         estimate D2E/DX2                !
 ! R10   R(5,6)                  1.3917         estimate D2E/DX2                !
 ! R11   R(5,38)                 1.0851         estimate D2E/DX2                !
 ! R12   R(6,39)                 1.0855         estimate D2E/DX2                !
 ! R13   R(7,8)                  1.4259         estimate D2E/DX2                !
 ! R14   R(7,11)                 1.3924         estimate D2E/DX2                !
 ! R15   R(8,9)                  1.4701         estimate D2E/DX2                !
 ! R16   R(8,14)                 1.3629         estimate D2E/DX2                !
 ! R17   R(9,10)                 1.3695         estimate D2E/DX2                !
 ! R18   R(9,41)                 1.0853         estimate D2E/DX2                !
 ! R19   R(10,40)                1.0855         estimate D2E/DX2                !
 ! R20   R(11,12)                1.3964         estimate D2E/DX2                !
 ! R21   R(11,18)                1.47           estimate D2E/DX2                !
 ! R22   R(12,13)                1.5532         estimate D2E/DX2                !
 ! R23   R(12,20)                1.3842         estimate D2E/DX2                !
 ! R24   R(13,14)                1.524          estimate D2E/DX2                !
 ! R25   R(13,19)                1.5354         estimate D2E/DX2                !
 ! R26   R(13,33)                1.1022         estimate D2E/DX2                !
 ! R27   R(14,42)                1.0858         estimate D2E/DX2                !
 ! R28   R(15,16)                1.4085         estimate D2E/DX2                !
 ! R29   R(15,37)                1.0856         estimate D2E/DX2                !
 ! R30   R(16,17)                1.4628         estimate D2E/DX2                !
 ! R31   R(16,23)                1.4351         estimate D2E/DX2                !
 ! R32   R(17,18)                1.3877         estimate D2E/DX2                !
 ! R33   R(17,26)                1.4556         estimate D2E/DX2                !
 ! R34   R(19,22)                1.4929         estimate D2E/DX2                !
 ! R35   R(19,43)                1.1044         estimate D2E/DX2                !
 ! R36   R(19,46)                1.0952         estimate D2E/DX2                !
 ! R37   R(20,21)                1.4647         estimate D2E/DX2                !
 ! R38   R(20,27)                1.4972         estimate D2E/DX2                !
 ! R39   R(21,22)                1.3457         estimate D2E/DX2                !
 ! R40   R(21,45)                1.0817         estimate D2E/DX2                !
 ! R41   R(22,44)                1.0858         estimate D2E/DX2                !
 ! R42   R(23,24)                1.3515         estimate D2E/DX2                !
 ! R43   R(23,36)                1.0847         estimate D2E/DX2                !
 ! R44   R(24,25)                1.4417         estimate D2E/DX2                !
 ! R45   R(24,35)                1.0848         estimate D2E/DX2                !
 ! R46   R(25,26)                1.4324         estimate D2E/DX2                !
 ! R47   R(25,29)                1.4034         estimate D2E/DX2                !
 ! R48   R(26,27)                1.4522         estimate D2E/DX2                !
 ! R49   R(27,28)                1.4082         estimate D2E/DX2                !
 ! R50   R(28,30)                1.3914         estimate D2E/DX2                !
 ! R51   R(28,32)                1.0805         estimate D2E/DX2                !
 ! R52   R(29,30)                1.3789         estimate D2E/DX2                !
 ! R53   R(29,34)                1.0843         estimate D2E/DX2                !
 ! R54   R(30,31)                1.0841         estimate D2E/DX2                !
 ! A1    A(2,1,5)              114.6633         estimate D2E/DX2                !
 ! A2    A(2,1,15)             113.6192         estimate D2E/DX2                !
 ! A3    A(5,1,15)             131.5332         estimate D2E/DX2                !
 ! A4    A(1,2,3)              122.4328         estimate D2E/DX2                !
 ! A5    A(1,2,18)             127.2551         estimate D2E/DX2                !
 ! A6    A(3,2,18)             109.2315         estimate D2E/DX2                !
 ! A7    A(2,3,4)              123.9146         estimate D2E/DX2                !
 ! A8    A(2,3,7)              108.2413         estimate D2E/DX2                !
 ! A9    A(4,3,7)              126.0169         estimate D2E/DX2                !
 ! A10   A(3,4,6)              114.535          estimate D2E/DX2                !
 ! A11   A(3,4,10)             113.9934         estimate D2E/DX2                !
 ! A12   A(6,4,10)             131.099          estimate D2E/DX2                !
 ! A13   A(1,5,6)              121.9564         estimate D2E/DX2                !
 ! A14   A(1,5,38)             119.3668         estimate D2E/DX2                !
 ! A15   A(6,5,38)             118.6026         estimate D2E/DX2                !
 ! A16   A(4,6,5)              122.0863         estimate D2E/DX2                !
 ! A17   A(4,6,39)             119.511          estimate D2E/DX2                !
 ! A18   A(5,6,39)             118.3592         estimate D2E/DX2                !
 ! A19   A(3,7,8)              120.3753         estimate D2E/DX2                !
 ! A20   A(3,7,11)             108.9767         estimate D2E/DX2                !
 ! A21   A(8,7,11)             127.4233         estimate D2E/DX2                !
 ! A22   A(7,8,9)              114.1833         estimate D2E/DX2                !
 ! A23   A(7,8,14)             115.2876         estimate D2E/DX2                !
 ! A24   A(9,8,14)             130.1445         estimate D2E/DX2                !
 ! A25   A(8,9,10)             123.0518         estimate D2E/DX2                !
 ! A26   A(8,9,41)             118.1277         estimate D2E/DX2                !
 ! A27   A(10,9,41)            118.8043         estimate D2E/DX2                !
 ! A28   A(4,10,9)             121.7977         estimate D2E/DX2                !
 ! A29   A(4,10,40)            119.3129         estimate D2E/DX2                !
 ! A30   A(9,10,40)            118.8267         estimate D2E/DX2                !
 ! A31   A(7,11,12)            120.937          estimate D2E/DX2                !
 ! A32   A(7,11,18)            107.1408         estimate D2E/DX2                !
 ! A33   A(12,11,18)           129.4203         estimate D2E/DX2                !
 ! A34   A(11,12,13)           113.6307         estimate D2E/DX2                !
 ! A35   A(11,12,20)           124.5437         estimate D2E/DX2                !
 ! A36   A(13,12,20)           121.6508         estimate D2E/DX2                !
 ! A37   A(12,13,14)           117.1603         estimate D2E/DX2                !
 ! A38   A(12,13,19)           113.7643         estimate D2E/DX2                !
 ! A39   A(12,13,33)           100.0916         estimate D2E/DX2                !
 ! A40   A(14,13,19)           109.3335         estimate D2E/DX2                !
 ! A41   A(14,13,33)           106.3972         estimate D2E/DX2                !
 ! A42   A(19,13,33)           109.2173         estimate D2E/DX2                !
 ! A43   A(8,14,13)            121.0478         estimate D2E/DX2                !
 ! A44   A(8,14,42)            122.138          estimate D2E/DX2                !
 ! A45   A(13,14,42)           116.8141         estimate D2E/DX2                !
 ! A46   A(1,15,16)            121.1255         estimate D2E/DX2                !
 ! A47   A(1,15,37)            120.8886         estimate D2E/DX2                !
 ! A48   A(16,15,37)           117.9839         estimate D2E/DX2                !
 ! A49   A(15,16,17)           122.9652         estimate D2E/DX2                !
 ! A50   A(15,16,23)           119.259          estimate D2E/DX2                !
 ! A51   A(17,16,23)           117.7726         estimate D2E/DX2                !
 ! A52   A(16,17,18)           115.0421         estimate D2E/DX2                !
 ! A53   A(16,17,26)           121.8091         estimate D2E/DX2                !
 ! A54   A(18,17,26)           123.0748         estimate D2E/DX2                !
 ! A55   A(2,18,11)            106.4006         estimate D2E/DX2                !
 ! A56   A(2,18,17)            119.5397         estimate D2E/DX2                !
 ! A57   A(11,18,17)           133.7539         estimate D2E/DX2                !
 ! A58   A(13,19,22)           113.2481         estimate D2E/DX2                !
 ! A59   A(13,19,43)           108.9891         estimate D2E/DX2                !
 ! A60   A(13,19,46)           109.4012         estimate D2E/DX2                !
 ! A61   A(22,19,43)           108.2485         estimate D2E/DX2                !
 ! A62   A(22,19,46)           111.3483         estimate D2E/DX2                !
 ! A63   A(43,19,46)           105.2657         estimate D2E/DX2                !
 ! A64   A(12,20,21)           116.2218         estimate D2E/DX2                !
 ! A65   A(12,20,27)           126.7303         estimate D2E/DX2                !
 ! A66   A(21,20,27)           117.0015         estimate D2E/DX2                !
 ! A67   A(20,21,22)           124.4036         estimate D2E/DX2                !
 ! A68   A(20,21,45)           117.9886         estimate D2E/DX2                !
 ! A69   A(22,21,45)           117.3586         estimate D2E/DX2                !
 ! A70   A(19,22,21)           123.1178         estimate D2E/DX2                !
 ! A71   A(19,22,44)           117.4883         estimate D2E/DX2                !
 ! A72   A(21,22,44)           119.0075         estimate D2E/DX2                !
 ! A73   A(16,23,24)           120.695          estimate D2E/DX2                !
 ! A74   A(16,23,36)           118.6503         estimate D2E/DX2                !
 ! A75   A(24,23,36)           120.6138         estimate D2E/DX2                !
 ! A76   A(23,24,25)           122.4852         estimate D2E/DX2                !
 ! A77   A(23,24,35)           120.2427         estimate D2E/DX2                !
 ! A78   A(25,24,35)           117.2722         estimate D2E/DX2                !
 ! A79   A(24,25,26)           120.6088         estimate D2E/DX2                !
 ! A80   A(24,25,29)           118.1008         estimate D2E/DX2                !
 ! A81   A(26,25,29)           121.2884         estimate D2E/DX2                !
 ! A82   A(17,26,25)           115.8991         estimate D2E/DX2                !
 ! A83   A(17,26,27)           125.6723         estimate D2E/DX2                !
 ! A84   A(25,26,27)           118.3701         estimate D2E/DX2                !
 ! A85   A(20,27,26)           129.6654         estimate D2E/DX2                !
 ! A86   A(20,27,28)           114.0678         estimate D2E/DX2                !
 ! A87   A(26,27,28)           116.2119         estimate D2E/DX2                !
 ! A88   A(27,28,30)           123.9302         estimate D2E/DX2                !
 ! A89   A(27,28,32)           118.5814         estimate D2E/DX2                !
 ! A90   A(30,28,32)           117.4875         estimate D2E/DX2                !
 ! A91   A(25,29,30)           119.8339         estimate D2E/DX2                !
 ! A92   A(25,29,34)           119.1322         estimate D2E/DX2                !
 ! A93   A(30,29,34)           121.0084         estimate D2E/DX2                !
 ! A94   A(28,30,29)           119.4957         estimate D2E/DX2                !
 ! A95   A(28,30,31)           119.6851         estimate D2E/DX2                !
 ! A96   A(29,30,31)           120.8052         estimate D2E/DX2                !
 ! D1    D(5,1,2,3)              1.5014         estimate D2E/DX2                !
 ! D2    D(5,1,2,18)           168.3022         estimate D2E/DX2                !
 ! D3    D(15,1,2,3)          -174.144          estimate D2E/DX2                !
 ! D4    D(15,1,2,18)           -7.3432         estimate D2E/DX2                !
 ! D5    D(2,1,5,6)             -4.2897         estimate D2E/DX2                !
 ! D6    D(2,1,5,38)           178.8864         estimate D2E/DX2                !
 ! D7    D(15,1,5,6)           170.3779         estimate D2E/DX2                !
 ! D8    D(15,1,5,38)           -6.4461         estimate D2E/DX2                !
 ! D9    D(2,1,15,16)            2.8785         estimate D2E/DX2                !
 ! D10   D(2,1,15,37)         -177.6527         estimate D2E/DX2                !
 ! D11   D(5,1,15,16)         -171.8325         estimate D2E/DX2                !
 ! D12   D(5,1,15,37)            7.6362         estimate D2E/DX2                !
 ! D13   D(1,2,3,4)              4.5106         estimate D2E/DX2                !
 ! D14   D(1,2,3,7)            169.899          estimate D2E/DX2                !
 ! D15   D(18,2,3,4)          -164.3915         estimate D2E/DX2                !
 ! D16   D(18,2,3,7)             0.997          estimate D2E/DX2                !
 ! D17   D(1,2,18,11)         -168.9966         estimate D2E/DX2                !
 ! D18   D(1,2,18,17)            5.5014         estimate D2E/DX2                !
 ! D19   D(3,2,18,11)           -0.7741         estimate D2E/DX2                !
 ! D20   D(3,2,18,17)          173.7238         estimate D2E/DX2                !
 ! D21   D(2,3,4,6)             -7.1435         estimate D2E/DX2                !
 ! D22   D(2,3,4,10)           166.6397         estimate D2E/DX2                !
 ! D23   D(7,3,4,6)           -169.9134         estimate D2E/DX2                !
 ! D24   D(7,3,4,10)             3.8698         estimate D2E/DX2                !
 ! D25   D(2,3,7,8)           -161.9819         estimate D2E/DX2                !
 ! D26   D(2,3,7,11)            -0.8224         estimate D2E/DX2                !
 ! D27   D(4,3,7,8)              3.0179         estimate D2E/DX2                !
 ! D28   D(4,3,7,11)           164.1775         estimate D2E/DX2                !
 ! D29   D(3,4,6,5)              4.1698         estimate D2E/DX2                !
 ! D30   D(3,4,6,39)          -178.2665         estimate D2E/DX2                !
 ! D31   D(10,4,6,5)          -168.2863         estimate D2E/DX2                !
 ! D32   D(10,4,6,39)            9.2774         estimate D2E/DX2                !
 ! D33   D(3,4,10,9)            -5.9158         estimate D2E/DX2                !
 ! D34   D(3,4,10,40)          176.9984         estimate D2E/DX2                !
 ! D35   D(6,4,10,9)           166.5726         estimate D2E/DX2                !
 ! D36   D(6,4,10,40)          -10.5133         estimate D2E/DX2                !
 ! D37   D(1,5,6,4)              1.4756         estimate D2E/DX2                !
 ! D38   D(1,5,6,39)          -176.1151         estimate D2E/DX2                !
 ! D39   D(38,5,6,4)           178.323          estimate D2E/DX2                !
 ! D40   D(38,5,6,39)            0.7323         estimate D2E/DX2                !
 ! D41   D(3,7,8,9)             -7.4792         estimate D2E/DX2                !
 ! D42   D(3,7,8,14)           166.1357         estimate D2E/DX2                !
 ! D43   D(11,7,8,9)          -164.8646         estimate D2E/DX2                !
 ! D44   D(11,7,8,14)            8.7504         estimate D2E/DX2                !
 ! D45   D(3,7,11,12)         -163.3194         estimate D2E/DX2                !
 ! D46   D(3,7,11,18)            0.338          estimate D2E/DX2                !
 ! D47   D(8,7,11,12)           -3.8566         estimate D2E/DX2                !
 ! D48   D(8,7,11,18)          159.8009         estimate D2E/DX2                !
 ! D49   D(7,8,9,10)             5.4889         estimate D2E/DX2                !
 ! D50   D(7,8,9,41)          -175.9977         estimate D2E/DX2                !
 ! D51   D(14,8,9,10)         -166.9524         estimate D2E/DX2                !
 ! D52   D(14,8,9,41)           11.561          estimate D2E/DX2                !
 ! D53   D(7,8,14,13)            4.4242         estimate D2E/DX2                !
 ! D54   D(7,8,14,42)         -175.6462         estimate D2E/DX2                !
 ! D55   D(9,8,14,13)          176.7977         estimate D2E/DX2                !
 ! D56   D(9,8,14,42)           -3.2727         estimate D2E/DX2                !
 ! D57   D(8,9,10,4)             1.2821         estimate D2E/DX2                !
 ! D58   D(8,9,10,40)          178.3817         estimate D2E/DX2                !
 ! D59   D(41,9,10,4)         -177.2217         estimate D2E/DX2                !
 ! D60   D(41,9,10,40)          -0.1221         estimate D2E/DX2                !
 ! D61   D(7,11,12,13)         -12.8296         estimate D2E/DX2                !
 ! D62   D(7,11,12,20)         171.9245         estimate D2E/DX2                !
 ! D63   D(18,11,12,13)       -172.4608         estimate D2E/DX2                !
 ! D64   D(18,11,12,20)         12.2933         estimate D2E/DX2                !
 ! D65   D(7,11,18,2)            0.2649         estimate D2E/DX2                !
 ! D66   D(7,11,18,17)        -173.1034         estimate D2E/DX2                !
 ! D67   D(12,11,18,2)         162.0597         estimate D2E/DX2                !
 ! D68   D(12,11,18,17)        -11.3086         estimate D2E/DX2                !
 ! D69   D(11,12,13,14)         24.0009         estimate D2E/DX2                !
 ! D70   D(11,12,13,19)        153.2334         estimate D2E/DX2                !
 ! D71   D(11,12,13,33)        -90.4289         estimate D2E/DX2                !
 ! D72   D(20,12,13,14)       -160.599          estimate D2E/DX2                !
 ! D73   D(20,12,13,19)        -31.3664         estimate D2E/DX2                !
 ! D74   D(20,12,13,33)         84.9713         estimate D2E/DX2                !
 ! D75   D(11,12,20,21)       -169.1275         estimate D2E/DX2                !
 ! D76   D(11,12,20,27)         13.439          estimate D2E/DX2                !
 ! D77   D(13,12,20,21)         15.9899         estimate D2E/DX2                !
 ! D78   D(13,12,20,27)       -161.4436         estimate D2E/DX2                !
 ! D79   D(12,13,14,8)         -20.6033         estimate D2E/DX2                !
 ! D80   D(12,13,14,42)        159.4635         estimate D2E/DX2                !
 ! D81   D(19,13,14,8)        -151.9024         estimate D2E/DX2                !
 ! D82   D(19,13,14,42)         28.1644         estimate D2E/DX2                !
 ! D83   D(33,13,14,8)          90.2674         estimate D2E/DX2                !
 ! D84   D(33,13,14,42)        -89.6658         estimate D2E/DX2                !
 ! D85   D(12,13,19,22)         29.2105         estimate D2E/DX2                !
 ! D86   D(12,13,19,43)        -91.3371         estimate D2E/DX2                !
 ! D87   D(12,13,19,46)        154.0553         estimate D2E/DX2                !
 ! D88   D(14,13,19,22)        162.2939         estimate D2E/DX2                !
 ! D89   D(14,13,19,43)         41.7463         estimate D2E/DX2                !
 ! D90   D(14,13,19,46)        -72.8613         estimate D2E/DX2                !
 ! D91   D(33,13,19,22)        -81.6586         estimate D2E/DX2                !
 ! D92   D(33,13,19,43)        157.7938         estimate D2E/DX2                !
 ! D93   D(33,13,19,46)         43.1862         estimate D2E/DX2                !
 ! D94   D(1,15,16,17)           2.9895         estimate D2E/DX2                !
 ! D95   D(1,15,16,23)        -176.3384         estimate D2E/DX2                !
 ! D96   D(37,15,16,17)       -176.4942         estimate D2E/DX2                !
 ! D97   D(37,15,16,23)          4.1779         estimate D2E/DX2                !
 ! D98   D(15,16,17,18)         -4.9461         estimate D2E/DX2                !
 ! D99   D(15,16,17,26)        178.0913         estimate D2E/DX2                !
 ! D100  D(23,16,17,18)        174.3912         estimate D2E/DX2                !
 ! D101  D(23,16,17,26)         -2.5714         estimate D2E/DX2                !
 ! D102  D(15,16,23,24)        175.8109         estimate D2E/DX2                !
 ! D103  D(15,16,23,36)         -1.8792         estimate D2E/DX2                !
 ! D104  D(17,16,23,24)         -3.5517         estimate D2E/DX2                !
 ! D105  D(17,16,23,36)        178.7581         estimate D2E/DX2                !
 ! D106  D(16,17,18,2)           0.9649         estimate D2E/DX2                !
 ! D107  D(16,17,18,11)        173.649          estimate D2E/DX2                !
 ! D108  D(26,17,18,2)         177.8845         estimate D2E/DX2                !
 ! D109  D(26,17,18,11)         -9.4314         estimate D2E/DX2                !
 ! D110  D(16,17,26,25)          8.7631         estimate D2E/DX2                !
 ! D111  D(16,17,26,27)       -174.0781         estimate D2E/DX2                !
 ! D112  D(18,17,26,25)       -167.9526         estimate D2E/DX2                !
 ! D113  D(18,17,26,27)          9.2062         estimate D2E/DX2                !
 ! D114  D(13,19,22,21)        -16.0336         estimate D2E/DX2                !
 ! D115  D(13,19,22,44)        171.1839         estimate D2E/DX2                !
 ! D116  D(43,19,22,21)        104.9333         estimate D2E/DX2                !
 ! D117  D(43,19,22,44)        -67.8492         estimate D2E/DX2                !
 ! D118  D(46,19,22,21)       -139.8188         estimate D2E/DX2                !
 ! D119  D(46,19,22,44)         47.3987         estimate D2E/DX2                !
 ! D120  D(12,20,21,22)          0.359          estimate D2E/DX2                !
 ! D121  D(12,20,21,45)        174.4591         estimate D2E/DX2                !
 ! D122  D(27,20,21,22)        178.0505         estimate D2E/DX2                !
 ! D123  D(27,20,21,45)         -7.8494         estimate D2E/DX2                !
 ! D124  D(12,20,27,26)        -32.8728         estimate D2E/DX2                !
 ! D125  D(12,20,27,28)        149.9607         estimate D2E/DX2                !
 ! D126  D(21,20,27,26)        149.7113         estimate D2E/DX2                !
 ! D127  D(21,20,27,28)        -27.4552         estimate D2E/DX2                !
 ! D128  D(20,21,22,19)          0.2188         estimate D2E/DX2                !
 ! D129  D(20,21,22,44)        172.8972         estimate D2E/DX2                !
 ! D130  D(45,21,22,19)       -173.9153         estimate D2E/DX2                !
 ! D131  D(45,21,22,44)         -1.237          estimate D2E/DX2                !
 ! D132  D(16,23,24,25)          3.0697         estimate D2E/DX2                !
 ! D133  D(16,23,24,35)       -176.9086         estimate D2E/DX2                !
 ! D134  D(36,23,24,25)       -179.2857         estimate D2E/DX2                !
 ! D135  D(36,23,24,35)          0.736          estimate D2E/DX2                !
 ! D136  D(23,24,25,26)          3.7186         estimate D2E/DX2                !
 ! D137  D(23,24,25,29)       -175.7683         estimate D2E/DX2                !
 ! D138  D(35,24,25,26)       -176.3025         estimate D2E/DX2                !
 ! D139  D(35,24,25,29)          4.2106         estimate D2E/DX2                !
 ! D140  D(24,25,26,17)         -9.2857         estimate D2E/DX2                !
 ! D141  D(24,25,26,27)        173.3373         estimate D2E/DX2                !
 ! D142  D(29,25,26,17)        170.1847         estimate D2E/DX2                !
 ! D143  D(29,25,26,27)         -7.1923         estimate D2E/DX2                !
 ! D144  D(24,25,29,30)        178.5363         estimate D2E/DX2                !
 ! D145  D(24,25,29,34)          0.3554         estimate D2E/DX2                !
 ! D146  D(26,25,29,30)         -0.947          estimate D2E/DX2                !
 ! D147  D(26,25,29,34)       -179.1278         estimate D2E/DX2                !
 ! D148  D(17,26,27,20)         16.2922         estimate D2E/DX2                !
 ! D149  D(17,26,27,28)       -166.5916         estimate D2E/DX2                !
 ! D150  D(25,26,27,20)       -166.6126         estimate D2E/DX2                !
 ! D151  D(25,26,27,28)         10.5037         estimate D2E/DX2                !
 ! D152  D(20,27,28,30)        171.0559         estimate D2E/DX2                !
 ! D153  D(20,27,28,32)         -9.284          estimate D2E/DX2                !
 ! D154  D(26,27,28,30)         -6.5132         estimate D2E/DX2                !
 ! D155  D(26,27,28,32)        173.1469         estimate D2E/DX2                !
 ! D156  D(27,28,30,29)         -1.5042         estimate D2E/DX2                !
 ! D157  D(27,28,30,31)        179.8473         estimate D2E/DX2                !
 ! D158  D(32,28,30,29)        178.8323         estimate D2E/DX2                !
 ! D159  D(32,28,30,31)          0.1837         estimate D2E/DX2                !
 ! D160  D(25,29,30,28)          5.3739         estimate D2E/DX2                !
 ! D161  D(25,29,30,31)       -175.9931         estimate D2E/DX2                !
 ! D162  D(34,29,30,28)       -176.4801         estimate D2E/DX2                !
 ! D163  D(34,29,30,31)          2.153          estimate D2E/DX2                !
 --------------------------------------------------------------------------------
 Trust Radius=3.00D-01 FncErr=1.00D-07 GrdErr=1.00D-06 EigMax=2.50D+02 EigMin=1.00D-04
 Number of steps in this run=    276 maximum allowed number of steps=    276.
 GradGradGradGradGradGradGradGradGradGradGradGradGradGradGradGradGradGrad

                          Input orientation:                          
 ---------------------------------------------------------------------
 Center     Atomic      Atomic             Coordinates (Angstroms)
 Number     Number       Type             X           Y           Z
 ---------------------------------------------------------------------
      1          6           0       -1.454575   -2.893345    0.098678
      2          6           0       -1.349325   -1.545776   -0.245419
      3          6           0       -2.468635   -0.715944   -0.381417
      4          6           0       -3.756620   -1.113316   -0.106659
      5          6           0       -2.803950   -3.366594    0.268225
      6          6           0       -3.899886   -2.512955    0.184547
      7          6           0       -2.019390    0.614869   -0.500847
      8          6           0       -2.913875    1.701187   -0.270841
      9          6           0       -4.315595    1.298395   -0.086367
     10          6           0       -4.714476   -0.010194   -0.022170
     11          6           0       -0.629291    0.632256   -0.422529
     12          6           0        0.060494    1.818988   -0.165931
     13          6           0       -0.819323    3.091965   -0.299979
     14          6           0       -2.323043    2.920249   -0.121728
     15          6           0       -0.208192   -3.521694    0.312433
     16          6           0        0.996037   -2.795009    0.236688
     17          6           0        1.041493   -1.352207   -0.000151
     18          6           0       -0.187457   -0.759512   -0.253371
     19          6           0       -0.337073    4.270535    0.557818
     20          6           0        1.419437    1.898390    0.085280
     21          6           0        1.913312    3.188571    0.571890
     22          6           0        1.137946    4.267020    0.788136
     23          6           0        2.244015   -3.488376    0.382414
     24          6           0        3.417719   -2.835546    0.231235
     25          6           0        3.488469   -1.416913   -0.015837
     26          6           0        2.298715   -0.619361   -0.033174
     27          6           0        2.435968    0.822415   -0.139662
     28          6           0        3.723208    1.303665   -0.446994
     29          6           0        4.750451   -0.848486   -0.248104
     30          6           0        4.856436    0.499559   -0.518231
     31          1           0        5.814871    0.942997   -0.763460
     32          1           0        3.846833    2.358428   -0.646032
     33          1           0       -0.657082    3.327661   -1.364390
     34          1           0        5.626587   -1.487339   -0.240923
     35          1           0        4.355848   -3.376661    0.293417
     36          1           0        2.226514   -4.555015    0.578826
     37          1           0       -0.150701   -4.579708    0.548916
     38          1           0       -2.974942   -4.408453    0.518618
     39          1           0       -4.886356   -2.919150    0.385138
     40          1           0       -5.764715   -0.229745    0.142320
     41          1           0       -5.061449    2.078580    0.027082
     42          1           0       -2.891741    3.811233    0.126439
     43          1           0       -0.840536    4.229887    1.539921
     44          1           0        1.573730    5.142916    1.259170
     45          1           0        2.952529    3.256803    0.864218
     46          1           0       -0.667360    5.210549    0.103146
 ---------------------------------------------------------------------
                    Distance matrix (angstroms):
                    1          2          3          4          5
     1  C    0.000000
     2  C    1.394784   0.000000
     3  C    2.449466   1.399990   0.000000
     4  C    2.917204   2.449764   1.375610   0.000000
     5  C    1.439974   2.386450   2.749621   2.474950   0.000000
     6  C    2.476210   2.761461   2.366018   1.436773   1.391681
     7  C    3.603611   2.276536   1.409662   2.481930   4.130261
     8  C    4.834855   3.604335   2.460282   2.942550   5.097556
     9  C    5.078421   4.112586   2.748796   2.475725   4.916597
    10  C    4.353633   3.705684   2.381374   1.463388   3.872965
    11  C    3.658225   2.300791   2.280903   3.595411   4.604029
    12  C    4.956968   3.649047   3.587312   4.813759   5.940016
    13  C    6.032115   4.668246   4.150546   5.133174   6.780456
    14  C    5.882235   4.572615   3.648361   4.280773   6.317257
    15  C    1.412085   2.348965   3.669232   4.308975   2.600763
    16  C    2.456464   2.700691   4.087605   5.053091   3.842864
    17  C    2.935171   2.411148   3.587644   4.805237   4.349392
    18  C    2.506545   1.402930   2.285184   3.589655   3.730278
    19  C    7.265039   5.958130   5.503698   6.412541   8.030883
    20  C    5.587562   4.431443   4.708466   5.991559   6.752075
    21  C    6.968235   5.807481   5.946048   7.149461   8.081767
    22  C    7.646394   6.406508   6.261406   7.328400   8.607027
    23  C    3.756878   4.132791   5.520769   6.472073   5.050725
    24  C    4.874440   4.961392   6.286272   7.385891   6.244401
    25  C    5.160102   4.844952   6.009334   7.252016   6.593670
    26  C    4.390396   3.769813   4.781028   6.075893   5.803044
    27  C    5.385165   4.466313   5.145884   6.488165   6.720931
    28  C    6.687457   5.821558   6.513220   7.868002   8.057707
    29  C    6.542481   6.139502   7.221533   8.512367   7.979752
    30  C    7.191748   6.539823   7.426495   8.772428   8.616680
    31  H    8.264723   7.601846   8.456625   9.811893   9.691286
    32  H    7.499376   6.511786   7.029006   8.375943   8.822962
    33  H    6.440301   5.047939   4.538579   5.559793   7.217169
    34  H    7.227381   6.976158   8.133106   9.391618   8.652444
    35  H    5.833741   6.015936   7.355840   8.431781   7.159849
    36  H    4.067199   4.745685   6.140436   6.936359   5.178261
    37  H    2.178674   3.357441   4.600762   5.044631   2.930898
    38  H    2.187103   3.379542   3.834193   3.443823   1.085083
    39  H    3.443813   3.846342   3.359628   2.186139   2.133141
    40  H    5.066949   4.623629   3.372660   2.207971   4.315299
    41  H    6.142858   5.195198   3.833917   3.450893   5.899523
    42  H    6.856937   5.587027   4.575180   5.005350   7.179764
    43  H    7.293467   6.066679   5.550089   6.305917   7.948505
    44  H    8.665960   7.452962   7.304689   8.331780   9.620697
    45  H    7.604797   6.542324   6.835448   8.065558   8.795547
    46  H    8.142041   6.799596   6.213108   7.041222   8.840795
                    6          7          8          9         10
     6  C    0.000000
     7  C    3.713396   0.000000
     8  C    4.351849   1.425866   0.000000
     9  C    3.843514   2.431370   1.470065   0.000000
    10  C    2.640095   2.807726   2.496563   1.369537   0.000000
    11  C    4.577956   1.392412   2.526845   3.761061   4.154728
    12  C    5.879896   2.426518   2.978549   4.407664   5.115360
    13  C    6.414029   2.759803   2.514411   3.935282   4.987262
    14  C    5.665681   2.355995   1.362875   2.569421   3.783697
    15  C    3.829166   4.588357   5.910957   6.345318   5.722691
    16  C    4.904318   4.611293   5.980031   6.713699   6.358629
    17  C    5.079240   3.672750   5.004141   5.977584   5.910386
    18  C    4.128979   2.303507   3.672697   4.615668   4.594435
    19  C    7.671291   4.161112   3.732041   5.007717   6.150015
    20  C    6.911224   3.717056   4.352391   5.768886   6.424883
    21  C    8.151730   4.820877   5.120961   6.542580   7.383263
    22  C    8.468302   4.996844   4.911434   6.270454   7.293970
    23  C    6.223995   5.982758   7.345892   8.133967   7.789867
    24  C    7.324861   6.481008   7.805326   8.774650   8.612748
    25  C    7.471897   5.890661   7.125839   8.263249   8.322692
    26  C    6.485041   4.515315   5.710738   6.886923   7.039606
    27  C    7.167486   4.474790   5.423123   6.768530   7.199715
    28  C    8.548508   5.784010   6.651310   8.046890   8.549925
    29  C    8.819636   6.930803   8.077329   9.318178   9.504663
    30  C    9.286674   6.876815   7.866565   9.216876   9.597306
    31  H   10.354652   7.845526   8.775451  10.159287  10.598360
    32  H    9.188683   6.121572   6.802934   8.249977   8.904807
    33  H    6.857680   3.156078   2.989044   4.374469   5.422663
    34  H    9.590965   7.933965   9.116309  10.326238  10.448320
    35  H    8.301505   7.563519   8.885483   9.858717   9.680055
    36  H    6.469795   6.776511   8.141597   8.803640   8.318289
    37  H    4.296582   5.619398   6.910628   7.232014   6.483413
    38  H    2.135424   5.214034   6.160737   5.893341   4.760579
    39  H    1.085520   4.636136   5.066409   4.282029   2.942357
    40  H    2.948291   3.892878   3.467923   2.118362   1.085478
    41  H    4.738799   3.416911   2.200740   1.085291   2.117969
    42  H    6.404302   3.372125   2.147234   2.896032   4.236479
    43  H    7.527455   4.315413   3.737903   4.828508   5.951960
    44  H    9.472468   6.042465   5.858757   7.160654   8.230304
    45  H    8.983744   5.793375   6.174382   7.587134   8.381045
    46  H    8.373074   4.828361   4.183577   5.352615   6.606891
                   11         12         13         14         15
    11  C    0.000000
    12  C    1.396416   0.000000
    13  C    2.470081   1.553228   0.000000
    14  C    2.862549   2.626019   1.523953   0.000000
    15  C    4.239433   5.368790   6.670009   6.794095   0.000000
    16  C    3.849987   4.725073   6.183850   6.618831   1.408537
    17  C    2.628310   3.323600   4.827339   5.439555   2.523112
    18  C    1.469983   2.591870   3.903243   4.256606   2.819612
    19  C    3.779358   2.586881   1.535385   2.495823   7.797157
    20  C    2.461352   1.384246   2.566143   3.884997   5.663752
    21  C    3.740113   2.419312   2.869979   4.301140   7.042425
    22  C    4.219046   2.839720   2.528962   3.823623   7.918488
    23  C    5.087576   5.765116   7.290445   7.885598   2.453432
    24  C    5.369483   5.752685   7.305484   8.136959   3.691155
    25  C    4.617406   4.716418   6.242419   7.252300   4.266517
    26  C    3.208015   3.312522   4.854615   5.822141   3.850658
    27  C    3.084151   2.576184   3.971584   5.200905   5.105610
    28  C    4.404048   3.709451   4.884078   6.267080   6.270305
    29  C    5.582530   5.396097   6.822919   8.015838   5.661129
    30  C    5.488166   4.986589   6.243592   7.586954   6.520041
    31  H    6.460651   5.851261   6.988949   8.399226   7.574186
    32  H    4.802636   3.854589   4.736121   6.217548   7.206783
    33  H    2.855360   2.056043   1.102200   2.117928   7.065897
    34  H    6.607698   6.474474   7.907166   9.090526   6.203987
    35  H    6.437049   6.756910   8.305278   9.188635   4.566383
    36  H    6.005507   6.773051   8.278027   8.778885   2.658291
    37  H    5.323281   6.441966   7.747402   7.836976   1.085644
    38  H    5.638846   6.961573   7.846851   7.385451   2.912689
    39  H    5.602447   6.872041   7.289969   6.397348   4.717368
    40  H    5.237812   6.182668   5.973800   4.673039   6.460713
    41  H    4.683805   5.132148   4.373734   2.868696   7.416104
    42  H    3.940297   3.573543   2.234747   1.085752   7.810752
    43  H    4.103509   3.087753   2.163458   2.583419   7.873601
    44  H    5.294097   3.920369   3.516255   4.693822   8.896461
    45  H    4.623137   3.390042   3.950873   5.377455   7.499510
    46  H    4.608530   3.479204   2.161944   2.835018   8.746811
                   16         17         18         19         20
    16  C    0.000000
    17  C    1.462818   0.000000
    18  C    2.405008   1.387705   0.000000
    19  C    7.197376   5.816098   5.097233   0.000000
    20  C    4.714890   3.273610   3.124298   2.989263   0.000000
    21  C    6.062754   4.658966   4.547708   2.497014   1.464674
    22  C    7.084948   5.675069   5.301646   1.492896   2.486695
    23  C    1.435076   2.481055   3.709849   8.178844   5.457606
    24  C    2.422027   2.810744   4.188324   8.043725   5.140485
    25  C    2.859219   2.447882   3.741795   6.878293   3.909265
    26  C    2.550145   1.455596   2.499836   5.586388   2.669500
    27  C    3.911623   2.587084   3.065580   4.479483   1.497216
    28  C    4.970313   3.800647   4.425776   5.128143   2.438109
    29  C    4.256712   3.751211   4.938712   7.262010   4.330373
    30  C    5.130961   4.272146   5.205407   6.507740   3.759510
    31  H    6.180141   5.351237   6.259926   7.117914   4.577442
    32  H    5.955178   4.696372   5.113827   4.755048   2.576568
    33  H    6.540898   5.162119   4.261443   2.164787   2.907970
    34  H    4.835298   4.593399   5.859436   8.328045   5.410146
    35  H    3.410259   3.894810   5.271628   8.976248   6.040860
    36  H    2.174570   3.463736   4.574456   9.190362   6.522377
    37  H    2.144212   3.484188   3.903705   8.852210   6.681770
    38  H    4.295505   5.073609   4.656266   9.071093   7.699001
    39  H    5.885575   6.143546   5.210699   8.509839   7.941135
    40  H    7.231684   6.899615   5.616318   7.062893   7.492947
    41  H    7.777464   7.001210   5.647054   5.235081   6.483652
    42  H    7.666121   6.492108   5.324389   2.631231   4.716664
    43  H    7.377031   6.088812   5.341958   1.104379   3.557996
    44  H    8.024329   6.637453   6.342572   2.214523   3.453806
    45  H    6.391094   5.063809   5.219129   3.455867   2.191438
    46  H    8.177633   6.782375   5.999920   1.095191   3.914772
                   21         22         23         24         25
    21  C    0.000000
    22  C    1.345737   0.000000
    23  C    6.687816   7.844372   0.000000
    24  C    6.218462   7.480237   1.351526   0.000000
    25  C    4.902757   6.203098   2.449128   1.441725   0.000000
    26  C    3.874917   5.089072   2.899475   2.496709   1.432447
    27  C    2.525504   3.796179   4.346531   3.805533   2.477434
    28  C    2.804767   4.121965   5.083265   4.205518   2.764515
    29  C    5.001957   6.347628   3.694427   2.440153   1.403444
    30  C    4.132932   5.452295   4.851755   3.708710   2.407613
    31  H    4.695522   5.943922   5.805265   4.584009   3.397096
    32  H    2.431250   3.610766   6.149134   5.284988   3.844317
    33  H    3.221095   2.955992   7.610916   7.558779   6.443227
    34  H    6.026044   7.370177   3.979258   2.630531   2.151086
    35  H    7.010407   8.308159   2.116658   1.084785   2.165317
    36  H    7.749920   8.891406   1.084713   2.120463   3.434216
    37  H    8.037838   8.943290   2.636929   3.984551   4.854459
    38  H    9.033971   9.604807   5.301189   6.589593   7.142173
    39  H    9.141915   9.385929   7.153056   8.305922   8.517933
    40  H    8.415552   8.263456   8.649629   9.545428   9.330370
    41  H    7.083515   6.618230   9.191685   9.802377   9.236959
    42  H    4.865662   4.109010   8.928931   9.165148   8.249899
    43  H    3.099210   2.116826   8.392012   8.352589   7.283338
    44  H    2.099318   1.085806   8.701562   8.253048   6.951491
    45  H    1.081704   2.078230   6.799380   6.142783   4.785953
    46  H    3.311795   2.149090   9.177439   9.024629   7.823575
                   26         27         28         29         30
    26  C    0.000000
    27  C    1.452204   0.000000
    28  C    2.428674   1.408205   0.000000
    29  C    2.471781   2.856659   2.393019   0.000000
    30  C    2.833584   2.471076   1.391354   1.378922   0.000000
    31  H    3.916329   3.438117   2.145993   2.146624   1.084146
    32  H    3.411670   2.146226   1.080474   3.355469   2.119204
    33  H    5.107627   4.164514   4.911732   6.922984   6.254041
    34  H    3.445472   3.940212   3.384527   1.084343   2.148906
    35  H    3.455599   4.637428   4.780575   2.615459   3.991797
    36  H    3.983608   5.429259   6.133232   4.559872   5.802477
    37  H    4.692847   6.028924   7.114287   6.211163   7.211739
    38  H    6.517143   7.554685   8.855841   8.540663   9.300221
    39  H    7.555743   8.239609   9.625446   9.877079  10.364634
    40  H    8.074745   8.272712   9.629087  10.540588  10.666633
    41  H    7.839294   7.603750   8.831503  10.242891  10.057590
    42  H    6.826161   6.114599   7.097484   8.958592   8.450860
    43  H    5.987047   5.016706   5.773938   7.761832   7.113848
    44  H    5.949756   4.622436   4.719227   6.946965   5.957858
    45  H    4.032051   2.683441   2.475474   4.617703   3.624696
    46  H    6.542479   5.380086   5.902837   8.135598   7.286416
                   31         32         33         34         35
    31  H    0.000000
    32  H    2.427016   0.000000
    33  H    6.923432   4.662692   0.000000
    34  H    2.492996   4.256943   7.995680   0.000000
    35  H    4.680297   5.833773   8.533799   2.338768   0.000000
    36  H    6.701207   7.205651   8.615555   4.652217   2.450314
    37  H    8.234722   8.096043   8.151297   6.600276   4.671358
    38  H   10.370273   9.679034   8.292506   9.115707   7.406470
    39  H   11.434672  10.255961   7.744046  10.628453   9.253976
    40  H   11.674013   9.985089   6.404157  11.466917  10.599609
    41  H   10.963979   8.938058   4.784856  11.270391  10.886509
    42  H    9.209983   6.936551   2.729490  10.038512  10.208881
    43  H    7.771979   5.500198   3.046751   8.813726   9.296007
    44  H    6.302192   4.068189   3.892909   7.914304   9.014214
    45  H    4.024430   1.971728   4.242759   5.556870   6.804261
    46  H    7.809118   5.392013   2.387265   9.197492   9.950326
                   36         37         38         39         40
    36  H    0.000000
    37  H    2.377531   0.000000
    38  H    5.203869   2.829591   0.000000
    39  H    7.301129   5.021026   2.426797   0.000000
    40  H    9.097156   7.113695   5.038456   2.839608   0.000000
    41  H    9.870330   8.289786   6.832036   5.013598   2.415828
    42  H    9.818111   8.837402   8.229457   7.024491   4.958199
    43  H    9.354411   8.891959   8.956543   8.295234   6.788899
    44  H    9.743657   9.899876  10.605069  10.367910   9.163275
    45  H    7.850672   8.434474   9.695901   9.990998   9.416342
    46  H   10.196422   9.814009   9.900644   9.163594   7.455291
                   41         42         43         44         45
    41  H    0.000000
    42  H    2.778415   0.000000
    43  H    4.973219   2.525994   0.000000
    44  H    7.411734   4.795507   2.596367   0.000000
    45  H    8.143270   5.916688   3.973765   2.369493   0.000000
    46  H    5.396576   2.628022   1.748145   2.522588   4.183294
                   46
    46  H    0.000000
 Stoichiometry    C30H16
 Framework group  C1[X(C30H16)]
 Deg. of freedom   132
 Full point group                 C1      NOp   1
 Largest Abelian subgroup         C1      NOp   1
 Largest concise Abelian subgroup C1      NOp   1
                         Standard orientation:                         
 ---------------------------------------------------------------------
 Center     Atomic      Atomic             Coordinates (Angstroms)
 Number     Number       Type             X           Y           Z
 ---------------------------------------------------------------------
      1          6           0       -1.454575   -2.893345    0.098678
      2          6           0       -1.349325   -1.545776   -0.245419
      3          6           0       -2.468635   -0.715944   -0.381417
      4          6           0       -3.756620   -1.113316   -0.106659
      5          6           0       -2.803950   -3.366594    0.268225
      6          6           0       -3.899886   -2.512955    0.184547
      7          6           0       -2.019390    0.614869   -0.500847
      8          6           0       -2.913875    1.701187   -0.270841
      9          6           0       -4.315595    1.298394   -0.086367
     10          6           0       -4.714476   -0.010195   -0.022170
     11          6           0       -0.629291    0.632256   -0.422529
     12          6           0        0.060494    1.818988   -0.165931
     13          6           0       -0.819323    3.091965   -0.299979
     14          6           0       -2.323043    2.920249   -0.121728
     15          6           0       -0.208192   -3.521694    0.312433
     16          6           0        0.996037   -2.795009    0.236688
     17          6           0        1.041493   -1.352207   -0.000151
     18          6           0       -0.187457   -0.759512   -0.253371
     19          6           0       -0.337073    4.270535    0.557818
     20          6           0        1.419437    1.898390    0.085280
     21          6           0        1.913312    3.188571    0.571890
     22          6           0        1.137946    4.267020    0.788136
     23          6           0        2.244015   -3.488376    0.382414
     24          6           0        3.417719   -2.835546    0.231235
     25          6           0        3.488469   -1.416913   -0.015837
     26          6           0        2.298715   -0.619361   -0.033174
     27          6           0        2.435968    0.822415   -0.139662
     28          6           0        3.723208    1.303665   -0.446994
     29          6           0        4.750451   -0.848485   -0.248104
     30          6           0        4.856436    0.499560   -0.518231
     31          1           0        5.814871    0.942998   -0.763460
     32          1           0        3.846833    2.358428   -0.646032
     33          1           0       -0.657082    3.327661   -1.364390
     34          1           0        5.626587   -1.487338   -0.240923
     35          1           0        4.355848   -3.376660    0.293417
     36          1           0        2.226515   -4.555015    0.578826
     37          1           0       -0.150700   -4.579708    0.548916
     38          1           0       -2.974941   -4.408453    0.518618
     39          1           0       -4.886356   -2.919151    0.385138
     40          1           0       -5.764715   -0.229746    0.142320
     41          1           0       -5.061449    2.078579    0.027082
     42          1           0       -2.891741    3.811233    0.126439
     43          1           0       -0.840536    4.229887    1.539921
     44          1           0        1.573729    5.142916    1.259170
     45          1           0        2.952529    3.256803    0.864218
     46          1           0       -0.667361    5.210549    0.103146
 ---------------------------------------------------------------------
 Rotational constants (GHZ):           0.2385078           0.1764897           0.1033982
 Standard basis: 6-311+G(d,p) (5D, 7F)
 There are   786 symmetry adapted cartesian basis functions of A   symmetry.
 There are   756 symmetry adapted basis functions of A   symmetry.
   756 basis functions,  1208 primitive gaussians,   786 cartesian basis functions
    98 alpha electrons       98 beta electrons
       nuclear repulsion energy      2627.1822657857 Hartrees.
 NAtoms=   46 NActive=   46 NUniq=   46 SFac= 1.00D+00 NAtFMM=   60 NAOKFM=F Big=F
 Integral buffers will be    131072 words long.
 Raffenetti 2 integral format.
 Two-electron integral symmetry is turned on.
 One-electron integrals computed using PRISM.
 NBasis=   756 RedAO= T EigKep=  1.29D-06  NBF=   756
 NBsUse=   735 1.00D-06 EigRej=  8.80D-07 NBFU=   735
 ExpMin= 4.38D-02 ExpMax= 4.56D+03 ExpMxC= 6.82D+02 IAcc=2 IRadAn=         4 AccDes= 0.00D+00
 Harris functional with IExCor=  402 and IRadAn=       4 diagonalized for initial guess.
 HarFok:  IExCor=  402 AccDes= 0.00D+00 IRadAn=         4 IDoV= 1 UseB2=F ITyADJ=14
 ICtDFT=  3500011 ScaDFX=  1.000000  1.000000  1.000000  1.000000
 FoFCou: FMM=F IPFlag=           0 FMFlag=      100000 FMFlg1=           0
         NFxFlg=           0 DoJE=T BraDBF=F KetDBF=T FulRan=T
         wScrn=  0.000000 ICntrl=       500 IOpCl=  0 I1Cent=   200000004 NGrid=           0
         NMat0=    1 NMatS0=      1 NMatT0=    0 NMatD0=    1 NMtDS0=    0 NMtDT0=    0
 Petite list used in FoFCou.
 Requested convergence on RMS density matrix=1.00D-08 within 128 cycles.
 Requested convergence on MAX density matrix=1.00D-06.
 Requested convergence on             energy=1.00D-06.
 No special actions if energy rises.
 SCF Done:  E(RB3LYP) =  -1153.06858772     A.U. after   18 cycles
            NFock= 18  Conv=0.36D-08     -V/T= 2.0045

 **********************************************************************

            Population analysis using the SCF Density.

 **********************************************************************

 Orbital symmetries:
       Occupied  (A) (A) (A) (A) (A) (A) (A) (A) (A) (A) (A) (A)
                 (A) (A) (A) (A) (A) (A) (A) (A) (A) (A) (A) (A)
                 (A) (A) (A) (A) (A) (A) (A) (A) (A) (A) (A) (A)
                 (A) (A) (A) (A) (A) (A) (A) (A) (A) (A) (A) (A)
                 (A) (A) (A) (A) (A) (A) (A) (A) (A) (A) (A) (A)
                 (A) (A) (A) (A) (A) (A) (A) (A) (A) (A) (A) (A)
                 (A) (A) (A) (A) (A) (A) (A) (A) (A) (A) (A) (A)
                 (A) (A) (A) (A) (A) (A) (A) (A) (A) (A) (A) (A)
                 (A) (A)
       Virtual   (A) (A) (A) (A) (A) (A) (A) (A) (A) (A) (A) (A)
                 (A) (A) (A) (A) (A) (A) (A) (A) (A) (A) (A) (A)
                 (A) (A) (A) (A) (A) (A) (A) (A) (A) (A) (A) (A)
                 (A) (A) (A) (A) (A) (A) (A) (A) (A) (A) (A) (A)
                 (A) (A) (A) (A) (A) (A) (A) (A) (A) (A) (A) (A)
                 (A) (A) (A) (A) (A) (A) (A) (A) (A) (A) (A) (A)
                 (A) (A) (A) (A) (A) (A) (A) (A) (A) (A) (A) (A)
                 (A) (A) (A) (A) (A) (A) (A) (A) (A) (A) (A) (A)
                 (A) (A) (A) (A) (A) (A) (A) (A) (A) (A) (A) (A)
                 (A) (A) (A) (A) (A) (A) (A) (A) (A) (A) (A) (A)
                 (A) (A) (A) (A) (A) (A) (A) (A) (A) (A) (A) (A)
                 (A) (A) (A) (A) (A) (A) (A) (A) (A) (A) (A) (A)
                 (A) (A) (A) (A) (A) (A) (A) (A) (A) (A) (A) (A)
                 (A) (A) (A) (A) (A) (A) (A) (A) (A) (A) (A) (A)
                 (A) (A) (A) (A) (A) (A) (A) (A) (A) (A) (A) (A)
                 (A) (A) (A) (A) (A) (A) (A) (A) (A) (A) (A) (A)
                 (A) (A) (A) (A) (A) (A) (A) (A) (A) (A) (A) (A)
                 (A) (A) (A) (A) (A) (A) (A) (A) (A) (A) (A) (A)
                 (A) (A) (A) (A) (A) (A) (A) (A) (A) (A) (A) (A)
                 (A) (A) (A) (A) (A) (A) (A) (A) (A) (A) (A) (A)
                 (A) (A) (A) (A) (A) (A) (A) (A) (A) (A) (A) (A)
                 (A) (A) (A) (A) (A) (A) (A) (A) (A) (A) (A) (A)
                 (A) (A) (A) (A) (A) (A) (A) (A) (A) (A) (A) (A)
                 (A) (A) (A) (A) (A) (A) (A) (A) (A) (A) (A) (A)
                 (A) (A) (A) (A) (A) (A) (A) (A) (A) (A) (A) (A)
                 (A) (A) (A) (A) (A) (A) (A) (A) (A) (A) (A) (A)
                 (A) (A) (A) (A) (A) (A) (A) (A) (A) (A) (A) (A)
                 (A) (A) (A) (A) (A) (A) (A) (A) (A) (A) (A) (A)
                 (A) (A) (A) (A) (A) (A) (A) (A) (A) (A) (A) (A)
                 (A) (A) (A) (A) (A) (A) (A) (A) (A) (A) (A) (A)
                 (A) (A) (A) (A) (A) (A) (A) (A) (A) (A) (A) (A)
                 (A) (A) (A) (A) (A) (A) (A) (A) (A) (A) (A) (A)
                 (A) (A) (A) (A) (A) (A) (A) (A) (A) (A) (A) (A)
                 (A) (A) (A) (A) (A) (A) (A) (A) (A) (A) (A) (A)
                 (A) (A) (A) (A) (A) (A) (A) (A) (A) (A) (A) (A)
                 (A) (A) (A) (A) (A) (A) (A) (A) (A) (A) (A) (A)
                 (A) (A) (A) (A) (A) (A) (A) (A) (A) (A) (A) (A)
                 (A) (A) (A) (A) (A) (A) (A) (A) (A) (A) (A) (A)
                 (A) (A) (A) (A) (A) (A) (A) (A) (A) (A) (A) (A)
                 (A) (A) (A) (A) (A) (A) (A) (A) (A) (A) (A) (A)
                 (A) (A) (A) (A) (A) (A) (A) (A) (A) (A) (A) (A)
                 (A) (A) (A) (A) (A) (A) (A) (A) (A) (A) (A) (A)
                 (A) (A) (A) (A) (A) (A) (A) (A) (A) (A) (A) (A)
                 (A) (A) (A) (A) (A) (A) (A) (A) (A) (A) (A) (A)
                 (A) (A) (A) (A) (A) (A) (A) (A) (A) (A) (A) (A)
                 (A) (A) (A) (A) (A) (A) (A) (A) (A) (A) (A) (A)
                 (A) (A) (A) (A) (A) (A) (A) (A) (A) (A) (A) (A)
                 (A) (A) (A) (A) (A) (A) (A) (A) (A) (A) (A) (A)
                 (A) (A) (A) (A) (A) (A) (A) (A) (A) (A) (A) (A)
                 (A) (A) (A) (A) (A) (A) (A) (A) (A) (A) (A) (A)
                 (A) (A) (A) (A) (A) (A) (A) (A) (A) (A) (A) (A)
                 (A) (A) (A) (A) (A) (A) (A) (A) (A) (A) (A) (A)
                 (A) (A) (A) (A) (A) (A) (A) (A) (A) (A) (A) (A)
                 (A)
 The electronic state is 1-A.
 Alpha  occ. eigenvalues --  -10.20621 -10.20346 -10.20305 -10.19953 -10.19805
 Alpha  occ. eigenvalues --  -10.19776 -10.19559 -10.19341 -10.19319 -10.19157
 Alpha  occ. eigenvalues --  -10.19147 -10.19126 -10.19081 -10.19057 -10.19047
 Alpha  occ. eigenvalues --  -10.19025 -10.18666 -10.18353 -10.18241 -10.18231
 Alpha  occ. eigenvalues --  -10.18162 -10.18126 -10.18079 -10.18018 -10.17859
 Alpha  occ. eigenvalues --  -10.17737 -10.17468 -10.16824 -10.16775 -10.16414
 Alpha  occ. eigenvalues --   -0.92061  -0.88713  -0.87472  -0.85146  -0.83872
 Alpha  occ. eigenvalues --   -0.83194  -0.80237  -0.79713  -0.78064  -0.77321
 Alpha  occ. eigenvalues --   -0.75249  -0.74740  -0.72758  -0.71431  -0.70569
 Alpha  occ. eigenvalues --   -0.66504  -0.65599  -0.64041  -0.63396  -0.62094
 Alpha  occ. eigenvalues --   -0.59889  -0.59418  -0.58867  -0.56744  -0.55706
 Alpha  occ. eigenvalues --   -0.52384  -0.51905  -0.51639  -0.50782  -0.49708
 Alpha  occ. eigenvalues --   -0.49202  -0.47642  -0.47308  -0.46621  -0.45374
 Alpha  occ. eigenvalues --   -0.45101  -0.44634  -0.43698  -0.43284  -0.43114
 Alpha  occ. eigenvalues --   -0.42383  -0.42218  -0.41067  -0.40828  -0.40256
 Alpha  occ. eigenvalues --   -0.39749  -0.39604  -0.39216  -0.38552  -0.37555
 Alpha  occ. eigenvalues --   -0.36522  -0.35876  -0.35543  -0.35129  -0.34503
 Alpha  occ. eigenvalues --   -0.34269  -0.33424  -0.32629  -0.32283  -0.31566
 Alpha  occ. eigenvalues --   -0.29965  -0.29407  -0.26589  -0.25737  -0.24594
 Alpha  occ. eigenvalues --   -0.23202  -0.20960  -0.17688
 Alpha virt. eigenvalues --   -0.10333  -0.06705  -0.04634  -0.04141  -0.01378
 Alpha virt. eigenvalues --   -0.00299  -0.00081   0.00519   0.00625   0.01255
 Alpha virt. eigenvalues --    0.01537   0.01659   0.02291   0.02844   0.03027
 Alpha virt. eigenvalues --    0.03199   0.03379   0.04083   0.04510   0.04735
 Alpha virt. eigenvalues --    0.04896   0.05163   0.05337   0.05928   0.06553
 Alpha virt. eigenvalues --    0.06747   0.07147   0.07374   0.07811   0.08276
 Alpha virt. eigenvalues --    0.08476   0.08693   0.08850   0.09086   0.09347
 Alpha virt. eigenvalues --    0.09656   0.10215   0.10447   0.10929   0.11342
 Alpha virt. eigenvalues --    0.11661   0.11941   0.12340   0.12746   0.12976
 Alpha virt. eigenvalues --    0.13126   0.13769   0.14145   0.14269   0.14423
 Alpha virt. eigenvalues --    0.14959   0.15222   0.15484   0.15870   0.16008
 Alpha virt. eigenvalues --    0.16338   0.16411   0.16641   0.16772   0.16943
 Alpha virt. eigenvalues --    0.17016   0.17331   0.17451   0.17692   0.17939
 Alpha virt. eigenvalues --    0.18385   0.18687   0.19055   0.19171   0.19316
 Alpha virt. eigenvalues --    0.19367   0.19555   0.19761   0.19972   0.20108
 Alpha virt. eigenvalues --    0.20376   0.20442   0.20555   0.20941   0.21226
 Alpha virt. eigenvalues --    0.21317   0.21419   0.21670   0.21893   0.22194
 Alpha virt. eigenvalues --    0.22532   0.22724   0.23029   0.23191   0.23364
 Alpha virt. eigenvalues --    0.23584   0.23893   0.24195   0.24464   0.24588
 Alpha virt. eigenvalues --    0.25146   0.25224   0.25447   0.25711   0.25773
 Alpha virt. eigenvalues --    0.26000   0.26169   0.26661   0.26721   0.26772
 Alpha virt. eigenvalues --    0.27348   0.27499   0.27562   0.27798   0.28155
 Alpha virt. eigenvalues --    0.28310   0.28390   0.28845   0.29022   0.29578
 Alpha virt. eigenvalues --    0.29704   0.29915   0.30457   0.30721   0.30845
 Alpha virt. eigenvalues --    0.30883   0.31691   0.31890   0.32194   0.32450
 Alpha virt. eigenvalues --    0.32589   0.33114   0.33457   0.33538   0.33948
 Alpha virt. eigenvalues --    0.34325   0.34798   0.35112   0.35289   0.36002
 Alpha virt. eigenvalues --    0.36625   0.36695   0.37122   0.37541   0.38100
 Alpha virt. eigenvalues --    0.38374   0.38507   0.39056   0.39294   0.40421
 Alpha virt. eigenvalues --    0.40488   0.40770   0.41332   0.41977   0.42126
 Alpha virt. eigenvalues --    0.42817   0.43254   0.44176   0.44883   0.45244
 Alpha virt. eigenvalues --    0.45909   0.47136   0.47483   0.48072   0.48446
 Alpha virt. eigenvalues --    0.48959   0.49957   0.50417   0.50859   0.52236
 Alpha virt. eigenvalues --    0.52323   0.52650   0.53119   0.53536   0.53891
 Alpha virt. eigenvalues --    0.54384   0.54588   0.54984   0.55616   0.56040
 Alpha virt. eigenvalues --    0.56281   0.56558   0.57057   0.57322   0.57800
 Alpha virt. eigenvalues --    0.58200   0.58888   0.59167   0.59486   0.59554
 Alpha virt. eigenvalues --    0.60015   0.60342   0.60818   0.61112   0.61545
 Alpha virt. eigenvalues --    0.61887   0.62114   0.62581   0.63228   0.63983
 Alpha virt. eigenvalues --    0.64336   0.64883   0.65416   0.65500   0.65860
 Alpha virt. eigenvalues --    0.66387   0.66862   0.67480   0.67803   0.68262
 Alpha virt. eigenvalues --    0.68441   0.68826   0.68890   0.69734   0.69873
 Alpha virt. eigenvalues --    0.70679   0.70910   0.71124   0.71627   0.71707
 Alpha virt. eigenvalues --    0.71871   0.72295   0.72426   0.72818   0.73192
 Alpha virt. eigenvalues --    0.73235   0.73766   0.74014   0.74125   0.74456
 Alpha virt. eigenvalues --    0.74870   0.75242   0.75351   0.76027   0.76435
 Alpha virt. eigenvalues --    0.76624   0.77128   0.77303   0.78284   0.79166
 Alpha virt. eigenvalues --    0.80065   0.80599   0.80800   0.81956   0.82462
 Alpha virt. eigenvalues --    0.83045   0.83583   0.84372   0.84751   0.85286
 Alpha virt. eigenvalues --    0.85493   0.86375   0.87523   0.87830   0.88016
 Alpha virt. eigenvalues --    0.88987   0.89502   0.89754   0.90232   0.90614
 Alpha virt. eigenvalues --    0.90986   0.91512   0.92055   0.92391   0.92818
 Alpha virt. eigenvalues --    0.93344   0.93710   0.94183   0.94538   0.95047
 Alpha virt. eigenvalues --    0.95242   0.95438   0.95743   0.96218   0.96576
 Alpha virt. eigenvalues --    0.96873   0.97597   0.98339   0.98379   0.99374
 Alpha virt. eigenvalues --    0.99585   1.00031   1.00281   1.01464   1.02050
 Alpha virt. eigenvalues --    1.02411   1.02940   1.03276   1.04208   1.04951
 Alpha virt. eigenvalues --    1.05295   1.05384   1.06566   1.07902   1.08355
 Alpha virt. eigenvalues --    1.08636   1.09036   1.09848   1.10738   1.11550
 Alpha virt. eigenvalues --    1.12713   1.13250   1.13386   1.14825   1.15740
 Alpha virt. eigenvalues --    1.17111   1.17455   1.17904   1.18827   1.19728
 Alpha virt. eigenvalues --    1.20254   1.21625   1.22955   1.23624   1.24528
 Alpha virt. eigenvalues --    1.25627   1.27164   1.29153   1.29946   1.30840
 Alpha virt. eigenvalues --    1.32140   1.33821   1.34768   1.36311   1.37771
 Alpha virt. eigenvalues --    1.38599   1.39226   1.39867   1.40718   1.42539
 Alpha virt. eigenvalues --    1.43172   1.43865   1.44656   1.45103   1.46032
 Alpha virt. eigenvalues --    1.46391   1.47530   1.48165   1.48320   1.49341
 Alpha virt. eigenvalues --    1.49408   1.50327   1.50578   1.51031   1.51414
 Alpha virt. eigenvalues --    1.52505   1.53090   1.54050   1.54425   1.54605
 Alpha virt. eigenvalues --    1.55585   1.56310   1.56583   1.57076   1.57680
 Alpha virt. eigenvalues --    1.58330   1.58588   1.59498   1.59900   1.61138
 Alpha virt. eigenvalues --    1.61697   1.62147   1.62277   1.62752   1.63569
 Alpha virt. eigenvalues --    1.64514   1.65560   1.66383   1.67286   1.68481
 Alpha virt. eigenvalues --    1.69744   1.69919   1.70627   1.71344   1.71949
 Alpha virt. eigenvalues --    1.72419   1.72667   1.73347   1.73827   1.75127
 Alpha virt. eigenvalues --    1.75437   1.76226   1.76744   1.77461   1.77824
 Alpha virt. eigenvalues --    1.78119   1.79150   1.80115   1.80610   1.80924
 Alpha virt. eigenvalues --    1.82577   1.82894   1.83663   1.84354   1.84863
 Alpha virt. eigenvalues --    1.86421   1.86522   1.86931   1.87541   1.88223
 Alpha virt. eigenvalues --    1.88952   1.89407   1.89640   1.90374   1.90503
 Alpha virt. eigenvalues --    1.92326   1.92504   1.93193   1.94189   1.94256
 Alpha virt. eigenvalues --    1.94664   1.94928   1.95733   1.96168   1.96951
 Alpha virt. eigenvalues --    1.97483   1.97849   1.98883   2.00751   2.00919
 Alpha virt. eigenvalues --    2.02306   2.02692   2.04093   2.04821   2.04882
 Alpha virt. eigenvalues --    2.05404   2.05833   2.06853   2.07102   2.08533
 Alpha virt. eigenvalues --    2.09600   2.10941   2.11214   2.12275   2.12928
 Alpha virt. eigenvalues --    2.13348   2.14187   2.15016   2.16006   2.16332
 Alpha virt. eigenvalues --    2.17442   2.17717   2.19396   2.19723   2.20856
 Alpha virt. eigenvalues --    2.21152   2.21694   2.22479   2.23496   2.24950
 Alpha virt. eigenvalues --    2.25293   2.26583   2.28003   2.30254   2.30563
 Alpha virt. eigenvalues --    2.32101   2.33249   2.33786   2.35310   2.36550
 Alpha virt. eigenvalues --    2.37838   2.39905   2.40199   2.40645   2.42023
 Alpha virt. eigenvalues --    2.42215   2.43320   2.45554   2.46725   2.47315
 Alpha virt. eigenvalues --    2.47940   2.49441   2.50789   2.52643   2.53652
 Alpha virt. eigenvalues --    2.55506   2.55899   2.56395   2.57092   2.58970
 Alpha virt. eigenvalues --    2.59293   2.60295   2.61201   2.62972   2.64613
 Alpha virt. eigenvalues --    2.65698   2.65839   2.68135   2.68949   2.69724
 Alpha virt. eigenvalues --    2.70196   2.71489   2.71715   2.71832   2.72087
 Alpha virt. eigenvalues --    2.72564   2.72682   2.73988   2.74581   2.75125
 Alpha virt. eigenvalues --    2.75554   2.75897   2.76043   2.76465   2.77200
 Alpha virt. eigenvalues --    2.77299   2.77914   2.78290   2.79172   2.80204
 Alpha virt. eigenvalues --    2.80695   2.80967   2.81787   2.82216   2.83090
 Alpha virt. eigenvalues --    2.83876   2.85321   2.85552   2.87068   2.87663
 Alpha virt. eigenvalues --    2.88281   2.89070   2.90016   2.90730   2.91277
 Alpha virt. eigenvalues --    2.92981   2.93480   2.94677   2.95340   2.98097
 Alpha virt. eigenvalues --    2.99419   3.00108   3.00499   3.01009   3.01939
 Alpha virt. eigenvalues --    3.04140   3.06082   3.06457   3.08888   3.09759
 Alpha virt. eigenvalues --    3.10667   3.11696   3.13242   3.13673   3.14271
 Alpha virt. eigenvalues --    3.15444   3.17130   3.19768   3.20216   3.21398
 Alpha virt. eigenvalues --    3.22587   3.25102   3.25355   3.27847   3.28801
 Alpha virt. eigenvalues --    3.30347   3.32287   3.33378   3.34998   3.36581
 Alpha virt. eigenvalues --    3.37731   3.39049   3.40506   3.40979   3.41546
 Alpha virt. eigenvalues --    3.42947   3.44474   3.46517   3.47975   3.48415
 Alpha virt. eigenvalues --    3.50503   3.51786   3.54626   3.56111   3.57437
 Alpha virt. eigenvalues --    3.58849   3.60937   3.61737   3.62969   3.67513
 Alpha virt. eigenvalues --    3.69465   3.71471   3.76258   3.81303   3.83077
 Alpha virt. eigenvalues --    3.85347   3.88461   3.93413   3.98244   4.02310
 Alpha virt. eigenvalues --    4.05422   4.05750   4.06635   4.08062   4.10104
 Alpha virt. eigenvalues --    4.11873   4.17335   4.19472   4.23729   4.27386
 Alpha virt. eigenvalues --    4.32893   4.41316   4.49841   4.64779   4.66768
 Alpha virt. eigenvalues --    4.72080   4.75732   4.76806   4.78682   4.81901
 Alpha virt. eigenvalues --    4.84312   4.88734  23.40229  23.63148  23.68419
 Alpha virt. eigenvalues --   23.76785  23.79583  23.81625  23.82927  23.85645
 Alpha virt. eigenvalues --   23.87965  23.89640  23.91450  23.92294  23.93061
 Alpha virt. eigenvalues --   23.93425  23.98091  23.99612  24.00758  24.05914
 Alpha virt. eigenvalues --   24.06975  24.08258  24.10002  24.10572  24.12467
 Alpha virt. eigenvalues --   24.13856  24.16030  24.17710  24.19018  24.19601
 Alpha virt. eigenvalues --   24.22929  24.23616
          Condensed to atoms (all electrons):
               1          2          3          4          5          6
     1  C   11.055449   0.124408  -0.224804   0.906127  -0.220171  -0.973799
     2  C    0.124408   8.954288   0.826683  -0.489012  -0.116250   1.265998
     3  C   -0.224804   0.826683  10.911525   1.036948   0.847674  -2.735439
     4  C    0.906127  -0.489012   1.036948  15.334166  -0.007936  -1.949429
     5  C   -0.220171  -0.116250   0.847674  -0.007936   9.639154   1.578171
     6  C   -0.973799   1.265998  -2.735439  -1.949429   1.578171  13.007988
     7  C   -0.454821   0.557449   2.252771  -1.841739  -0.261609  -1.870791
     8  C    0.235135   0.359078  -0.373669   1.685914  -0.074974   0.718826
     9  C    0.122796  -0.931747   3.149508   0.264522   0.264465  -2.145810
    10  C   -0.459077  -0.960658  -0.969399  -3.064444  -0.599880  -1.403657
    11  C   -1.112454   0.567580  -2.060984  -1.539679  -0.664156   0.500195
    12  C   -0.446779  -0.274327  -1.147642  -0.049943  -0.300361   0.217748
    13  C   -0.429575  -0.425088   0.437449  -1.153304   0.018320  -0.348402
    14  C   -0.286123  -0.432058  -2.108209  -1.000205  -0.165024   0.200059
    15  C    1.564154  -0.011897  -0.689737  -0.547903  -1.061414   0.044849
    16  C   -0.510137  -0.788283  -0.446031  -0.048558  -0.221578  -0.239626
    17  C   -0.836309   0.207729  -0.840807  -0.696204  -0.911282   0.532165
    18  C   -0.499131  -0.170504  -0.943958  -1.038348  -1.068554  -0.698273
    19  C    0.027269  -0.008216   0.008251   0.020045  -0.005593  -0.012635
    20  C    0.425770  -0.636121  -0.676276   0.377040  -0.055499   0.199989
    21  C    0.220038  -0.001456   0.039703   0.307878  -0.007292   0.047542
    22  C   -0.053663  -0.129833  -0.127132  -0.119870  -0.002269  -0.006748
    23  C   -0.975386  -0.654305  -0.119576  -0.121606  -0.335091  -0.128519
    24  C   -0.079647  -0.305785  -0.036867  -0.036065  -0.198714  -0.017693
    25  C    0.111197  -0.462857   0.101549  -0.078890  -0.049290   0.064796
    26  C   -1.137937   0.165249  -0.308369  -0.056049  -0.144040  -0.155272
    27  C   -0.308296  -0.034500   0.022030  -0.141666  -0.122635  -0.024457
    28  C   -0.032136  -0.104812  -0.040342   0.000430  -0.022494   0.001610
    29  C   -0.021392  -0.183056   0.011463  -0.014710  -0.004575   0.006415
    30  C   -0.007256  -0.022556   0.006079   0.004282  -0.004897  -0.000272
    31  H    0.000039   0.000087  -0.000005   0.000002   0.000000   0.000000
    32  H   -0.000262   0.000455  -0.000012   0.000069  -0.000025  -0.000001
    33  H    0.000134  -0.001703   0.001150  -0.002190  -0.000132  -0.001186
    34  H    0.000538  -0.000010   0.000029  -0.000002   0.000034   0.000002
    35  H    0.003020   0.000500   0.000142   0.000019   0.000251   0.000017
    36  H    0.044432   0.007311   0.001386   0.000163   0.004628   0.000336
    37  H   -0.032981   0.018032  -0.002652   0.006333   0.025674   0.009554
    38  H   -0.079921   0.026908  -0.016831  -0.054858   0.379340   0.009716
    39  H   -0.001091  -0.002357   0.013734  -0.088701  -0.041433   0.409661
    40  H    0.008554  -0.007922   0.021409  -0.059884   0.019784   0.035718
    41  H   -0.000971  -0.003416  -0.024484  -0.053755  -0.001162   0.005135
    42  H    0.000311   0.001725  -0.003645   0.008074   0.000044  -0.000350
    43  H    0.000262   0.000911   0.001629   0.001654   0.000027  -0.000134
    44  H    0.000034   0.000114   0.000325   0.000092   0.000001   0.000005
    45  H   -0.000375  -0.000968  -0.000970  -0.000080  -0.000025   0.000006
    46  H   -0.000066  -0.000259  -0.000160  -0.000986   0.000001  -0.000033
               7          8          9         10         11         12
     1  C   -0.454821   0.235135   0.122796  -0.459077  -1.112454  -0.446779
     2  C    0.557449   0.359078  -0.931747  -0.960658   0.567580  -0.274327
     3  C    2.252771  -0.373669   3.149508  -0.969399  -2.060984  -1.147642
     4  C   -1.841739   1.685914   0.264522  -3.064444  -1.539679  -0.049943
     5  C   -0.261609  -0.074974   0.264465  -0.599880  -0.664156  -0.300361
     6  C   -1.870791   0.718826  -2.145810  -1.403657   0.500195   0.217748
     7  C    9.792658  -0.408172  -0.366267   1.949809   0.547742  -1.109999
     8  C   -0.408172  11.516762  -0.239161  -1.989998  -0.754359   0.926785
     9  C   -0.366267  -0.239161  13.759906   0.200428  -2.586505  -0.321511
    10  C    1.949809  -1.989998   0.200428  11.633184   0.727369   0.372545
    11  C    0.547742  -0.754359  -2.586505   0.727369  11.783622   0.322271
    12  C   -1.109999   0.926785  -0.321511   0.372545   0.322271  12.035498
    13  C    1.223337  -2.797574  -0.786286  -0.420878   0.384298  -5.282645
    14  C   -0.843398  -1.313985  -2.921965   0.616511   1.708512   0.063739
    15  C   -0.383944  -0.101122  -0.096963  -0.106182  -0.196849   0.144789
    16  C   -0.527968   0.030669  -0.003341  -0.163413  -0.737760  -0.478416
    17  C   -0.759349  -0.477681  -0.518531  -0.021648   0.759061   0.494541
    18  C    0.023247  -0.707293  -0.625638   0.808905   0.340325   1.197264
    19  C   -0.079912   0.245746   0.077599  -0.029349  -0.738359   0.005506
    20  C   -1.207894  -0.403975  -0.247321  -0.008429  -0.506515  -0.020670
    21  C    0.178454   0.769478   0.075034  -0.064099  -3.013608   0.154658
    22  C   -0.049275  -0.714778  -0.187304   0.014624   0.030493  -0.049644
    23  C   -0.046996   0.073203   0.004822  -0.030479   0.569932  -0.013423
    24  C   -0.113892   0.011142  -0.007998   0.005410   0.107100   0.018313
    25  C   -0.140859  -0.110969  -0.032792  -0.008007  -0.832063  -0.642616
    26  C    0.029597   0.081496   0.033865   0.039881   1.869679   0.492539
    27  C   -0.014652   0.038052   0.028448   0.017285   1.692425   0.871190
    28  C   -0.246584  -0.087518  -0.003897   0.005596  -0.758206  -0.870688
    29  C    0.020525  -0.025312  -0.004398  -0.000676  -0.057206   0.372982
    30  C    0.012090   0.021311   0.003795  -0.000183  -0.141568  -0.220681
[...]
 000870,-0.00000488,-0.00000596,0.00005662,-0.00006442,-0.00007891,-0.0
 0005971,-0.00209880,-0.00166926,-0.00000763,0.00000689,-0.00000972,-0.
 00000814,0.00000503,0.00000136,0.00000159,0.00000901,0.00000108,-0.000
 00528,0.00001323,-0.00000246,-0.00000282,0.00000953,0.00000160,0.00001
 486,0.00001216,-0.00000405,0.00001676,0.00000159,-0.00000962,0.0000251
 8,-0.00001014,0.00000699,0.00017144,0.00024239,-0.00035809,0.09751927,
 0.00000337,-0.00002022,0.00001801,-0.00000226,0.00009124,0.00005923,0.
 00005176,-0.00004396,-0.00007534,-0.00004082,0.00006781,0.00002316,0.0
 0003422,0.00005660,-0.00001773,-0.00003758,-0.00000969,0.00001124,-0.0
 0016091,0.00017398,0.00002657,0.00001676,-0.00055978,-0.00026016,-0.00
 002026,0.00008717,-0.00008753,0.00000582,-0.00004435,0.00000561,0.0003
 0643,-0.00010206,-0.00038776,-0.00068937,0.00127925,0.00081377,0.00876
 383,0.00485895,-0.02109035,0.00132632,0.00123065,0.00098537,0.00000471
 ,-0.00001406,0.00001490,0.00001136,0.00000323,-0.00003339,0.00001414,-
 0.00003156,0.00002213,0.00000146,0.00004548,-0.00002625,-0.01721113,-0
 .05363317,0.03243947,0.00050608,0.00004450,0.00069397,0.00027798,-0.00
 014661,0.00018626,0.00192633,0.00083303,-0.00120526,0.00000404,-0.0000
 0946,0.00000631,-0.00000603,-0.00000175,-0.00000293,-0.00000875,-0.000
 00305,0.00001029,-0.00002424,0.00002684,0.00000954,0.00012802,-0.00004
 852,-0.00010364,-0.00005908,-0.00001141,0.00000580,-0.00001150,0.00001
 255,-0.00000474,0.00001999,0.00000265,-0.00000359,-0.00000633,-0.00000
 190,0.00000289,0.00001276,0.00001466,-0.00000573,-0.00137161,-0.002832
 81,-0.00410752,-0.00000294,0.00000545,0.00000009,-0.00000525,0.0000019
 3,-0.00000018,0.00000119,0.00000504,-0.00000014,-0.00000177,0.00000679
 ,0.00000119,-0.00000250,0.00000125,-0.00001132,0.00000798,0.00000766,-
 0.00000212,0.00001270,0.00000399,0.00000735,0.00002522,-0.00000478,0.0
 0000433,0.00003079,0.00001875,0.00022080,0.01789601,0.05398116,-0.0002
 3948,-0.00002061,0.00001907,0.00005361,0.00002078,0.00000616,0.0000227
 3,0.00006911,0.00004905,0.00011508,-0.00038626,0.00001207,0.00027631,-
 0.00008449,0.00000692,-0.00013120,0.00029478,-0.00004962,0.00056155,-0
 .00034237,-0.00011212,-0.00047337,0.00094319,0.00020814,-0.00021387,-0
 .00019992,-0.00009748,-0.00009938,0.00028442,0.00001962,-0.00020329,-0
 .00038199,-0.00037887,0.00153925,0.00071275,0.00029480,0.00576537,0.00
 329211,-0.02015765,0.00131342,-0.00019556,0.00047689,0.00014990,0.0000
 2344,0.00000977,-0.00005816,-0.00017209,0.00001628,0.00027339,0.000202
 75,-0.00004973,-0.00015492,-0.00000180,-0.00000021,0.08070814,0.031466
 09,-0.22898752,-0.00155489,-0.00364028,-0.00094909,-0.00119538,0.00518
 668,0.00185566,0.00602997,-0.00242030,0.00627979,0.00001402,-0.0000186
 3,0.00000461,-0.00002024,0.00000987,0.00000095,0.00003262,0.00002897,-
 0.00000077,-0.00011518,-0.00036179,-0.00004172,-0.00083254,0.00078482,
 0.00012890,0.00044487,0.00002846,0.00006365,-0.00000089,-0.00017719,0.
 00002645,-0.00012206,0.00019995,-0.00002614,0.00000422,-0.00000054,-0.
 00000869,0.00002150,-0.00000190,0.00000393,-0.00133377,-0.00441081,-0.
 00216900,-0.00000091,-0.00000075,0.00000578,-0.00000013,-0.00000235,0.
 00000078,-0.00000282,-0.00000100,-0.00000130,0.00000216,-0.00000208,-0
 .00000424,0.00000079,-0.00000265,-0.00000709,-0.00000314,0.00000166,0.
 00000524,-0.00000384,-0.00000045,0.00001329,-0.00001877,0.00000517,-0.
 00003201,-0.00068675,0.00020473,0.00004418,-0.09559378,-0.03427163,0.2
 5575760,0.00010362,-0.00009352,0.00001446,-0.00002778,0.00005288,-0.00
 000027,0.00007240,-0.00014505,-0.00006759,-0.00009149,0.00020684,0.000
 02100,-0.00000704,0.00007890,-0.00001722,0.00000128,-0.00007019,0.0000
 1499,-0.00005480,0.00040820,0.00015963,-0.00089969,-0.00034125,0.00009
 514,0.00024126,-0.00007471,0.00018631,-0.00015454,-0.00014381,-0.00000
 733,0.00040733,0.00005277,0.00016582,-0.00091209,0.00054228,0.00002083
 ,-0.00555485,0.00116507,0.00115146,0.00061189,-0.00124462,-0.00150533,
 -0.00009689,-0.00003809,0.00000805,0.00002848,0.00007669,-0.00002477,-
 0.00011265,-0.00011692,0.00002061,0.00001496,-0.00001256,-0.00000491,-
 0.00745738,-0.02329967,-0.01543123,-0.00122268,0.00311519,-0.00054845,
 0.00928995,0.01743786,0.00880889,-0.10034553,-0.08899624,-0.05312071,-
 0.00001119,-0.00000085,0.00000180,-0.00002786,0.00001726,0.00000109,-0
 .00000659,0.00008768,-0.00004918,-0.00011776,0.00016463,0.00009825,0.0
 0069413,0.00070688,-0.00000659,-0.00005599,-0.00013472,-0.00007368,0.0
 0006531,0.00003096,-0.00001721,0.00001362,-0.00005062,0.00004184,-0.00
 000099,0.00000494,0.00000904,0.00000079,0.00001939,0.00000644,-0.00000
 464,0.00012326,-0.00004306,-0.00000049,0.00000091,-0.00000049,0.000002
 02,0.00000747,-0.00000400,0.00000058,-0.00000378,0.00000017,-0.0000011
 9,-0.00000083,0.00000373,-0.00000224,-0.00000582,0.00000268,-0.0000005
 0,0.00000490,-0.00000215,-0.00000548,-0.00003013,-0.00002603,-0.000012
 29,0.00001008,0.00000140,-0.00000887,0.00004495,-0.00006968,0.00016741
 ,-0.00006697,0.00092256,0.10353268,0.00002085,0.00001001,-0.00000806,0
 .00002798,-0.00002838,0.00000885,-0.00000717,0.00007846,-0.00005241,-0
 .00012624,0.00011470,0.00000538,-0.00005971,0.00002397,-0.00000068,0.0
 0003156,-0.00007047,0.00001661,-0.00045143,0.00014209,-0.00000685,0.00
 004728,-0.00056093,0.00022670,0.00014973,0.00008227,-0.00000193,0.0000
 5221,-0.00018438,-0.00002244,0.00013373,0.00020603,0.00053468,-0.00076
 206,0.00034307,0.00005971,0.00050997,0.00011036,-0.00063920,0.00060510
 ,0.00037637,-0.00012879,0.00000558,0.00000445,-0.00000375,-0.00002265,
 -0.00000651,-0.00000583,0.00004809,0.00003373,-0.00002497,0.00003004,-
 0.00001668,0.00001154,0.00279490,0.00320044,0.00135123,0.00512379,0.00
 110953,-0.00359966,-0.01079349,-0.01860906,-0.01325905,-0.08574001,-0.
 22241066,-0.10830918,0.00000305,-0.00000755,0.00000268,0.00003653,0.00
 000368,0.00000480,-0.00003300,-0.00009407,0.00005925,0.00033951,-0.000
 01718,0.00007539,-0.00082770,-0.00076597,-0.00025022,-0.00008288,-0.00
 003503,0.00003019,-0.00000007,-0.00004450,-0.00000903,0.00001526,0.000
 05286,0.00002588,0.00002275,-0.00000558,-0.00000282,-0.00005362,0.0000
 6309,-0.00004973,0.00007694,0.00026997,0.00023968,0.00000686,-0.000006
 47,-0.00000917,0.00000475,-0.00001868,-0.00000190,-0.00000271,-0.00000
 728,0.00000016,-0.00000130,-0.00000616,0.00000119,-0.00000070,-0.00000
 442,0.00000272,-0.00000477,-0.00000358,-0.00000143,-0.00000578,-0.0000
 0462,-0.00000045,-0.00000612,0.00000689,0.00000099,0.00000889,0.000028
 93,-0.00011021,-0.00017533,0.00013174,-0.00008661,0.09025394,0.2364629
 9,-0.00007247,0.00001356,-0.00000026,-0.00010500,-0.00005053,0.0000062
 0,-0.00001343,-0.00015222,0.00011458,0.00023860,-0.00027774,-0.0000113
 4,0.00012810,-0.00007494,0.00000868,-0.00005993,0.00017345,-0.00003737
 ,0.00102052,-0.00039270,-0.00005016,-0.00021108,0.00139588,-0.00051573
 ,-0.00026598,-0.00021238,-0.00001553,-0.00013030,0.00038068,0.00005500
 ,-0.00058069,-0.00046451,-0.00111956,0.00241894,0.00043949,0.00019375,
 -0.00056093,0.00229239,0.00346747,-0.00121119,-0.00121958,0.00009275,0
 .00003813,-0.00001593,0.00001130,-0.00002618,-0.00004552,0.00001581,-0
 .00002744,0.00002306,0.00003374,-0.00004495,0.00014679,-0.00000152,-0.
 00270128,-0.00353987,-0.00072127,-0.00116084,-0.00390026,0.00742836,-0
 .00517345,-0.00411080,0.00231741,-0.05049377,-0.11237290,-0.09693706,0
 .00000121,0.00000267,-0.00000080,0.00001298,0.00000097,0.00000085,-0.0
 0000243,-0.00004000,-0.00002715,0.00013875,-0.00007273,-0.00034979,-0.
 00046305,-0.00056763,0.00047146,0.00018250,0.00006434,-0.00008034,0.00
 001335,-0.00001256,0.00002847,-0.00003376,-0.00001844,-0.00002937,0.00
 001730,-0.00000662,-0.00001568,0.00003720,-0.00016481,0.00004485,-0.00
 022720,-0.00052720,-0.00055554,0.00000408,-0.00001095,0.00000491,0.000
 00640,-0.00000535,0.00000919,-0.00000127,-0.00000386,-0.00000038,0.000
 00165,-0.00000429,0.00000012,-0.00000005,-0.00000520,-0.00000413,-0.00
 000605,-0.00000065,0.00000547,-0.00000457,-0.00000135,0.00000619,-0.00
 000476,-0.00000169,-0.00000128,-0.00002865,-0.00006556,0.00027687,-0.0
 0100698,-0.00037337,-0.00024429,0.05825483,0.12084600,0.09113689,0.000
 03557,0.00001375,-0.00000538,0.00000613,-0.00011853,0.00001736,-0.0000
 9002,0.00004326,-0.00002152,0.00000627,0.00001962,-0.00000487,-0.00006
 785,-0.00004169,0.00002029,0.00004826,-0.00004296,0.00001436,0.0000423
 6,-0.00023579,-0.00000083,-0.00001723,0.00000286,0.00005671,0.00006740
 ,0.00000153,-0.00000394,-0.00001510,-0.00004155,-0.00000293,-0.0005310
 1,0.00041912,0.00000631,0.00069686,-0.00180939,-0.00080427,0.00051109,
 0.00000168,0.00011947,-0.00000424,-0.00000117,-0.00001071,-0.00003221,
 -0.00002414,0.00000124,0.00001659,-0.00001247,0.00000723,0.00003954,0.
 00005306,-0.00000322,-0.00000135,0.00005471,0.00000465,0.00131704,0.00
 344977,-0.00106884,-0.00795426,0.00082951,-0.00166948,-0.31814875,-0.0
 2211958,-0.06911120,-0.01700639,-0.00202871,-0.00455090,-0.00006503,0.
 00007832,-0.00001160,0.00008863,-0.00003231,-0.00000798,-0.00033529,0.
 00003144,0.00008239,0.00020684,-0.00069135,-0.00003028,-0.00079006,0.0
 0122882,0.00065818,-0.00122680,0.00185294,0.00291462,0.00003450,0.0002
 2723,-0.00026914,0.00044616,0.00019272,0.00010645,-0.00000270,0.000017
 76,0.00014754,-0.00037903,0.00320474,0.00175779,-0.00006813,0.00003919
 ,-0.00001767,-0.00000531,0.00004227,-0.00006208,0.00000550,-0.00000847
 ,-0.00000492,0.00000480,-0.00000653,0.00000125,0.00000026,-0.00000783,
 0.00000046,-0.00000079,-0.00000524,-0.00000201,-0.00000551,-0.00000849
 ,-0.00000025,-0.00000689,-0.00000682,0.00000162,-0.00000863,0.00000477
 ,0.00000278,0.00000343,0.00000727,-0.00002098,0.00017895,0.00004987,0.
 00012302,0.00094875,-0.00033103,0.00141743,0.34308084,0.00002273,0.000
 05302,-0.00000682,0.00006881,-0.00013949,0.00002797,-0.00015444,0.0002
 3216,0.00004237,-0.00005664,-0.00003575,-0.00002300,-0.00008277,-0.000
 06611,0.00002173,0.00004337,-0.00003363,-0.00000164,-0.00036905,-0.000
 49349,0.00008077,0.00010010,-0.00012914,-0.00001998,0.00003949,0.00003
 062,-0.00005345,0.00004697,-0.00006903,0.00001721,-0.00108718,0.001005
 59,-0.00017816,-0.00063259,-0.00533128,-0.00244147,-0.00013061,-0.0002
 4217,-0.00008009,-0.00003623,0.00020392,0.00026242,-0.00000093,-0.0000
 1076,0.00000325,0.00002762,-0.00000435,0.00001421,-0.00002585,0.000080
 92,-0.00005592,0.00008675,0.00002674,-0.00000977,0.00179951,-0.0012528
 8,-0.00510637,-0.02406050,0.00072143,-0.00582871,-0.02063247,-0.054788
 07,-0.00916761,0.02757320,0.00371240,0.00444016,-0.00007229,0.00008578
 ,-0.00001950,0.00009458,-0.00002643,0.00001788,-0.00019424,0.00001732,
 -0.00002435,0.00001438,-0.00034858,0.00011060,-0.00176906,0.00091892,0
 .00026648,0.00097507,-0.00085256,-0.00084251,0.00013256,0.00024295,-0.
 00001190,0.00051719,-0.00015893,0.00016578,-0.00001748,-0.00002441,-0.
 00007399,0.00107936,-0.00043609,-0.00194542,0.00002621,0.00008605,0.00
 004370,-0.00000432,0.00003334,-0.00004477,-0.00000240,0.00000725,-0.00
 000255,0.00000986,0.00000078,0.00000244,0.00000287,-0.00000359,-0.0000
 0625,0.00000011,-0.00000009,-0.00000381,-0.00000191,-0.00001146,0.0000
 0269,-0.00000331,-0.00000166,0.00000734,-0.00000964,-0.00000026,0.0000
 0348,-0.00007557,0.00002416,-0.00000300,0.00120990,-0.00011915,0.00021
 927,-0.00031386,-0.00047072,0.00279951,0.01571401,0.05774298,0.0000284
 9,0.00004894,-0.00001146,0.00002076,-0.00014207,0.00000023,-0.00011718
 ,0.00002863,-0.00002488,0.00008038,0.00003463,0.00003423,-0.00007404,-
 0.00003792,0.00001604,0.00004588,-0.00006413,0.00001591,0.00003789,-0.
 00018813,-0.00040452,0.00007426,0.00002347,0.00000284,0.00003832,-0.00
 001287,0.00003185,-0.00003258,0.00000980,-0.00000504,-0.00072958,0.000
 23223,0.00013126,-0.00080159,-0.00290449,0.00178622,0.00054248,-0.0003
 0569,-0.00003591,-0.00000425,0.00021557,-0.00006804,-0.00001438,-0.000
 02252,0.00000547,0.00001566,0.00010522,-0.00002078,-0.00017213,-0.0000
 1879,-0.00000578,0.00005245,0.00008273,0.00006009,-0.00061912,-0.00548
 619,0.00930927,-0.00983681,0.00176743,-0.00007294,-0.07017300,-0.01057
 308,-0.05556348,0.00752146,-0.00114520,0.00510871,-0.00002642,0.000061
 01,-0.00002419,0.00006442,-0.00005401,0.00000496,-0.00005790,0.0000868
 9,-0.00001218,0.00012326,0.00015092,0.00004815,0.00020764,0.00063613,-
 0.00064663,0.00036013,-0.00191169,-0.00027712,0.00001500,0.00008827,-0
 .00008356,0.00020070,0.00032618,-0.00006661,0.00002703,-0.00003686,0.0
 0003264,0.00183027,-0.00183000,-0.00202561,0.00006521,0.00001147,-0.00
 012637,-0.00000468,0.00006927,-0.00000962,-0.00000352,0.00000976,0.000
 00324,0.00001069,0.00000104,0.00000676,0.00000213,-0.00000292,0.000001
 86,-0.00000101,-0.00000075,-0.00000070,0.00000007,-0.00000581,0.000000
 48,-0.00000153,-0.00000246,-0.00000585,-0.00000613,-0.00000017,0.00000
 411,-0.00005540,-0.00002736,0.00001260,-0.00217673,0.00013855,-0.00044
 465,0.00139376,0.00308156,-0.00537128,0.07018615,0.01743125,0.04843805
 ,0.00001621,-0.00001781,0.00001375,0.00004181,0.00003242,0.00001042,0.
 00002345,0.00000865,-0.00003927,-0.00007477,0.00010160,0.00002038,-0.0
 0000065,0.00007066,-0.00001536,-0.00003089,-0.00004818,0.00000754,-0.0
 0028845,0.00014240,0.00019395,-0.00005775,-0.00019268,-0.00017792,0.00
 006576,0.00005530,-0.00000805,0.00002422,-0.00010932,0.00000036,0.0006
 5824,-0.00019320,0.00026732,-0.00170730,-0.00063505,-0.00122149,0.0026
 4542,-0.00937305,0.00271108,0.00116581,-0.00026101,0.00009316,-0.00000
 902,-0.00000945,0.00000225,0.00000345,0.00002837,-0.00000263,-0.000008
 01,-0.00000989,0.00001389,-0.00003287,-0.00009965,-0.00013884,-0.07242
 742,0.07569866,-0.02988788,0.00128697,0.00038940,-0.00057470,-0.004623
 04,-0.00365850,-0.00240701,-0.01486418,0.03241101,-0.01013900,0.000005
 97,-0.00000700,0.00000341,-0.00000807,-0.00000080,-0.00000171,-0.00001
 105,0.00002076,-0.00001595,0.00003421,0.00003465,0.00001413,0.00011534
 ,-0.00000037,0.00003053,-0.00016913,-0.00008477,0.00010617,0.00002059,
 0.00002093,-0.00002745,0.00007380,-0.00000287,0.00005634,-0.00000077,-
 0.00000301,0.00001170,0.00003911,0.00010047,-0.00010387,0.00065494,0.0
 0041874,0.00075668,-0.00000388,0.00001115,-0.00001279,-0.00000421,0.00
 000155,-0.00000106,0.00000101,0.00000296,-0.00000106,-0.00000166,0.000
 00432,-0.00000255,-0.00000365,0.00000318,0.00000056,0.00000717,0.00000
 492,-0.00000368,0.00000758,0.00000142,0.00000130,-0.00000024,-0.000008
 52,-0.00000372,-0.00024545,-0.00003204,0.00016433,0.00451700,-0.011709
 85,0.00468427,0.00099703,-0.00086151,0.00068569,-0.00102318,0.00014870
 ,0.00196348,0.08319052,-0.00006026,0.00007764,-0.00004261,0.00007065,-
 0.00019945,-0.00000546,-0.00013254,0.00005575,-0.00003028,-0.00005010,
 0.00004590,-0.00000090,-0.00005841,0.00001409,0.00000902,0.00000875,-0
 .00006920,0.00001386,-0.00017641,0.00030655,0.00001620,-0.00039671,-0.
 00033784,0.00029016,0.00008274,0.00000234,0.00003728,0.00005922,-0.000
 12491,-0.00000976,0.00127856,-0.00091642,0.00049933,-0.00421981,-0.000
 43506,-0.00334158,0.00743224,-0.02237601,0.00507407,0.00194014,0.00027
 008,-0.00042588,0.00006191,0.00000862,0.00000160,-0.00002292,-0.000041
 43,0.00001112,0.00001890,0.00003769,0.00000026,-0.00029499,-0.00007340
 ,0.00005354,0.07535865,-0.24410573,0.07426237,0.00051090,0.00067400,0.
 00022708,-0.00083854,-0.00010689,0.00032151,-0.00006444,0.00352834,-0.
 00191312,0.00000778,-0.00001347,0.00000121,-0.00000849,0.00000168,0.00
 000175,0.00005785,0.00001262,-0.00002918,-0.00001144,0.00000690,-0.000
 00812,0.00005107,0.00002552,0.00013656,0.00002773,-0.00002983,-0.00004
 095,-0.00000611,-0.00004325,0.00000870,-0.00000730,0.00002424,0.000042
 69,0.00001132,-0.00000075,0.00000026,0.00000009,-0.00002141,-0.0000433
 2,0.00069867,0.00191796,0.00025742,0.00000244,-0.00000657,-0.00000868,
 0.00000523,-0.00000347,0.00000179,0.00000047,-0.00000672,0.00000124,0.
 00000127,-0.00000613,-0.00000013,-0.00000711,-0.00000398,0.00000881,-0
 .00000549,-0.00000716,-0.00000144,-0.00001228,-0.00000300,-0.00000324,
 -0.00002631,0.00000015,0.00001028,-0.00088604,0.00024037,-0.00004818,0
 .00142864,-0.00535407,0.00320503,0.00057029,0.00052326,0.00013332,-0.0
 0000614,-0.00017624,0.00013213,-0.08239370,0.26668870,-0.00003202,-0.0
 0002091,-0.00002396,0.00004414,-0.00011082,0.00001908,-0.00000767,-0.0
 0007486,-0.00000318,-0.00001509,0.00004380,0.00000594,0.00002586,0.000
 03772,-0.00000754,-0.00003419,-0.00001926,0.00000122,-0.00002440,0.000
 02116,0.00013360,0.00008385,-0.00027954,-0.00007064,-0.00001248,0.0000
 6455,0.00000766,-0.00000211,-0.00005300,-0.00000498,0.00105879,-0.0009
 7660,0.00047759,-0.00284817,-0.00269693,-0.00255634,0.00745534,-0.0225
 0881,0.00330214,0.00075782,0.00045856,-0.00038493,0.00001313,-0.000020
 59,0.00000556,0.00000318,-0.00001314,0.00000449,-0.00001424,0.00000919
 ,0.00001380,-0.00029745,-0.00014937,0.00000929,-0.03084721,0.07725419,
 -0.07132877,0.00012054,-0.00038489,-0.00037249,-0.00113486,-0.00028506
 ,0.00015416,0.00118749,0.00224476,-0.00146651,-0.00000080,-0.00000936,
 0.00000213,-0.00000277,0.00000045,0.00000230,0.00000887,0.00001869,-0.
 00001546,0.00000730,-0.00001813,-0.00000928,0.00000570,0.00013710,0.00
 007314,0.00001744,-0.00006009,0.00000159,0.00001276,-0.00001795,-0.000
 00455,0.00001832,0.00003056,0.00001644,0.00000465,-0.00000310,0.000003
 07,0.00004001,0.00001413,-0.00003464,0.00089924,-0.00031306,0.00204197
 ,-0.00000080,0.00000473,-0.00000450,-0.00000069,-0.00000009,-0.0000000
 7,0.00000195,-0.00000099,-0.00000013,0.00000041,-0.00000011,-0.0000014
 7,-0.00000610,0.00000010,0.00000905,0.00000241,0.00000141,-0.00000231,
 0.00000185,0.00000205,0.00000052,0.00000726,0.00000031,0.00000138,0.00
 008993,0.00014545,0.00016606,-0.00921339,0.02636383,-0.01154739,-0.000
 38488,-0.00000082,0.00035953,0.00003775,-0.00002950,0.00025226,0.03297
 333,-0.07880576,0.08077514\\0.00000216,0.00000336,0.00000222,0.0000008
 1,-0.00000017,-0.00000399,-0.00000255,-0.00000141,0.00000031,0.0000039
 6,-0.00000048,0.00000247,-0.00000009,-0.00000066,0.00000790,-0.0000010
 2,-0.00000014,0.00001039,0.00000450,-0.00000708,0.00000015,-0.00000115
 ,0.00000656,-0.00000073,-0.00000441,-0.00000585,0.00000348,0.00000076,
 0.00000341,0.00000473,-0.00001247,0.00000220,-0.00001950,-0.00000566,0
 .00002372,0.00000259,0.00001606,-0.00003026,0.00000566,-0.00000504,-0.
 00000047,0.00000626,-0.00000004,-0.00000098,0.00000727,0.00000060,0.00
 000426,0.00000263,-0.00000834,-0.00000718,0.00000851,0.00000911,-0.000
 00513,0.00000391,-0.00000551,0.00001570,0.00000534,0.00000064,0.000008
 57,-0.00000062,-0.00000488,-0.00001735,-0.00001156,0.00000142,0.000007
 33,-0.00000380,0.00000275,-0.00000028,0.00000143,-0.00000141,0.0000023
 3,0.00000231,0.00000448,-0.00000330,-0.00000284,0.00000227,0.00001329,
 0.00000238,0.00000530,-0.00001294,0.00000237,-0.00000503,0.00000245,-0
 .00000550,-0.00000207,-0.00000100,-0.00000191,-0.00000061,0.00000212,-
 0.00000430,-0.00000064,-0.00000045,-0.00000551,0.00000011,0.00000049,-
 0.00000509,-0.00000386,0.00000206,-0.00001215,0.00000054,0.00000098,-0
 .00000207,0.00000087,0.00000079,0.00000099,0.00000130,0.00000155,0.000
 00554,0.00000041,0.00000059,0.00000538,0.00000203,-0.00000045,0.000007
 60,0.00000114,-0.00000037,0.00000666,0.00000021,-0.00000255,0.00000502
 ,-0.00000018,-0.00000006,0.00000031,0.,-0.00000150,-0.00000346,0.00000
 017,-0.00000441,-0.00000842,0.00000235,0.00000137,-0.00001011,0.000001
 23,0.00000473,-0.00000463,-0.00000024,-0.00000336,-0.00000761\\\@


 ON INDUCTION, OR "WHY DO YOU BELIEVE THE SUN WILL RISE TOMORROW?":

 ... THE FARMER WHO HAS FED THE CHICKEN EVERY DAY THROUGHOUT ITS
 LIFE AT LAST WRINGS ITS NECK INSTEAD, SHOWING THAT MORE REFINED VIEWS
 AS TO THE UNIFORMITY OF NATURE WOULD HAVE BEEN USEFUL TO THE CHICKEN.

                               -- BERTRAND RUSSELL
 Job cpu time:       1 days  0 hours 12 minutes 48.6 seconds.
 Elapsed time:       0 days  1 hours 12 minutes 50.8 seconds.
 File lengths (MBytes):  RWF=   2285 Int=      0 D2E=      0 Chk=     47 Scr=      1
 Normal termination of Gaussian 16 at Sat Sep  7 19:42:56 2019.
