 Entering Gaussian System, Link 0=/share/apps/gaussian16/g16/g16
 Initial command:
 /share/apps/gaussian16/g16/l1.exe "/home/amen01//scratch/530/Gau-25038.inp" -scrdir="/home/amen01//scratch/530/"
 Entering Link 1 = /share/apps/gaussian16/g16/l1.exe PID=     25039.
  
 Copyright (c) 1988-2017, Gaussian, Inc.  All Rights Reserved.
  
 This is part of the Gaussian(R) 16 program.  It is based on
 the Gaussian(R) 09 system (copyright 2009, Gaussian, Inc.),
 the Gaussian(R) 03 system (copyright 2003, Gaussian, Inc.),
 the Gaussian(R) 98 system (copyright 1998, Gaussian, Inc.),
 the Gaussian(R) 94 system (copyright 1995, Gaussian, Inc.),
 the Gaussian 92(TM) system (copyright 1992, Gaussian, Inc.),
 the Gaussian 90(TM) system (copyright 1990, Gaussian, Inc.),
 the Gaussian 88(TM) system (copyright 1988, Gaussian, Inc.),
 the Gaussian 86(TM) system (copyright 1986, Carnegie Mellon
 University), and the Gaussian 82(TM) system (copyright 1983,
 Carnegie Mellon University). Gaussian is a federally registered
 trademark of Gaussian, Inc.
  
 This software contains proprietary and confidential information,
 including trade secrets, belonging to Gaussian, Inc.
  
 This software is provided under written license and may be
 used, copied, transmitted, or stored only in accord with that
 written license.
  
 The following legend is applicable only to US Government
 contracts under FAR:
  
                    RESTRICTED RIGHTS LEGEND
  
 Use, reproduction and disclosure by the US Government is
 subject to restrictions as set forth in subparagraphs (a)
 and (c) of the Commercial Computer Software - Restricted
 Rights clause in FAR 52.227-19.
  
 Gaussian, Inc.
 340 Quinnipiac St., Bldg. 40, Wallingford CT 06492
  
  
 ---------------------------------------------------------------
 Warning -- This program may not be used in any manner that
 competes with the business of Gaussian, Inc. or will provide
 assistance to any competitor of Gaussian, Inc.  The licensee
 of this program is prohibited from giving any competitor of
 Gaussian, Inc. access to this program.  By using this program,
 the user acknowledges that Gaussian, Inc. is engaged in the
 business of creating and licensing software in the field of
 computational chemistry and represents and warrants to the
 licensee that it is not a competitor of Gaussian, Inc. and that
 it will not use this program in any manner prohibited above.
 ---------------------------------------------------------------
  

 Cite this work as:
 Gaussian 16, Revision B.01,
 M. J. Frisch, G. W. Trucks, H. B. Schlegel, G. E. Scuseria, 
 M. A. Robb, J. R. Cheeseman, G. Scalmani, V. Barone, 
 G. A. Petersson, H. Nakatsuji, X. Li, M. Caricato, A. V. Marenich, 
 J. Bloino, B. G. Janesko, R. Gomperts, B. Mennucci, H. P. Hratchian, 
 J. V. Ortiz, A. F. Izmaylov, J. L. Sonnenberg, D. Williams-Young, 
 F. Ding, F. Lipparini, F. Egidi, J. Goings, B. Peng, A. Petrone, 
 T. Henderson, D. Ranasinghe, V. G. Zakrzewski, J. Gao, N. Rega, 
 G. Zheng, W. Liang, M. Hada, M. Ehara, K. Toyota, R. Fukuda, 
 J. Hasegawa, M. Ishida, T. Nakajima, Y. Honda, O. Kitao, H. Nakai, 
 T. Vreven, K. Throssell, J. A. Montgomery, Jr., J. E. Peralta, 
 F. Ogliaro, M. J. Bearpark, J. J. Heyd, E. N. Brothers, K. N. Kudin, 
 V. N. Staroverov, T. A. Keith, R. Kobayashi, J. Normand, 
 K. Raghavachari, A. P. Rendell, J. C. Burant, S. S. Iyengar, 
 J. Tomasi, M. Cossi, J. M. Millam, M. Klene, C. Adamo, R. Cammi, 
 J. W. Ochterski, R. L. Martin, K. Morokuma, O. Farkas, 
 J. B. Foresman, and D. J. Fox, Gaussian, Inc., Wallingford CT, 2016.
 
 ******************************************
 Gaussian 16:  ES64L-G16RevB.01 20-Dec-2017
                18-Jun-2019 
 ******************************************
 %nprocshared=20
 Will use up to   20 processors via shared memory.
 %mem=100GB
 %chk=7-memb-carbTSguess-1a.chk
 ---------------------------------------------------------------
 # opt=(ts,calcfc,noeigen) freq b3lyp/6-311+g(d,p) int=grid=fine
 ---------------------------------------------------------------
 1/5=1,10=4,11=1,18=20,26=3,38=1/1,3;
 2/9=110,12=2,17=6,18=5,40=1/2;
 3/5=4,6=6,7=111,11=2,25=1,30=1,71=2,74=-5,75=-4,140=1/1,2,3;
 4//1;
 5/5=2,38=5/2;
 8/6=4,10=90,11=11/1;
 11/6=1,8=1,9=11,15=111,16=1/1,2,10;
 10/6=1,13=1/2;
 6/7=2,8=2,9=2,10=2,28=1/1;
 7/10=1,18=20,25=1/1,2,3,16;
 1/5=1,10=4,11=1,18=20,26=3/3(2);
 2/9=110/2;
 99//99;
 2/9=110/2;
 3/5=4,6=6,7=111,11=2,25=1,30=1,71=1,74=-5,75=-4/1,2,3;
 4/5=5,16=3,69=1/1;
 5/5=2,38=5/2;
 7//1,2,3,16;
 1/5=1,11=1,18=20,26=3/3(-5);
 2/9=110/2;
 6/7=2,8=2,9=2,10=2,19=2,28=1/1;
 99/9=1/99;
 ---------------------
 7-memb-carbTSguess-1a
 ---------------------
 Symbolic Z-matrix:
 Charge =  0 Multiplicity = 1
 C                     1.76079   2.8657   -0.12255 
 C                     3.05677   2.39157   0.15445 
 C                     3.2697    1.01444   0.31013 
 C                     2.11206   0.22795   0.28862 
 C                     0.77226   0.63144   0.06355 
 C                     0.59732   1.99166  -0.25574 
 C                    -0.03764  -0.64961  -0.00287 
 C                     2.20605  -1.16729   0.25378 
 C                     0.92541  -1.68775   0.03771 
 C                     4.51728   0.2835    0.41301 
 C                     3.37555  -1.89486   0.26865 
 C                     4.57275  -1.09384   0.39421 
 C                     0.74552  -3.05783  -0.16413 
 C                     3.19899  -3.31553   0.0888 
 C                     1.94733  -3.86083  -0.11841 
 C                    -1.38114  -1.07409  -0.07065 
 C                    -1.60469  -2.47456  -0.41903 
 C                    -0.57564  -3.42948  -0.45938 
 C                    -2.5553   -0.27339   0.25737 
 C                    -2.94309  -2.89235  -0.75389 
 C                    -3.85286  -0.74693  -0.08161 
 C                    -4.0035   -2.05764  -0.65217 
 C                    -0.59976   2.49366  -0.90326 
 C                     1.55792   4.28197  -0.29362 
 C                     0.37526   4.79839  -0.71495 
 C                    -0.68682   3.87669  -1.06 
 C                    -2.46293   0.90825   1.01973 
 C                    -3.58835   1.63295   1.36698 
 C                    -4.98447   0.03286   0.23554 
 C                    -4.85846   1.21184   0.94413 
 H                     5.54103  -1.58118   0.44669 
 H                     4.06422  -3.97031   0.09454 
 H                     1.86216  -4.93207  -0.26989 
 H                    -0.82585  -4.45217  -0.72371 
 H                     5.44363   0.8448    0.4789 
 H                     3.88173   3.09686   0.19206 
 H                     2.39439   4.93957  -0.07648 
 H                     0.23078   5.86908  -0.81111 
 H                    -1.55282   4.29335  -1.57934 
 H                    -1.49392   1.22934   1.37361 
 H                    -3.48878   2.5251    1.97556 
 H                    -5.73849   1.7906    1.20164 
 H                    -5.96536  -0.33026  -0.05308 
 H                    -4.99777  -2.39206  -0.92864 
 H                    -3.08011  -3.9116   -1.09944 
 H                    -1.41278   3.17964  -0.36755 
 

 GradGradGradGradGradGradGradGradGradGradGradGradGradGradGradGradGradGrad
 Berny optimization.
 Initialization pass.
                           ----------------------------
                           !    Initial Parameters    !
                           ! (Angstroms and Degrees)  !
 --------------------------                            --------------------------
 ! Name  Definition              Value          Derivative Info.                !
 --------------------------------------------------------------------------------
 ! R1    R(1,2)                  1.4075         calculate D2E/DX2 analytically  !
 ! R2    R(1,6)                  1.4613         calculate D2E/DX2 analytically  !
 ! R3    R(1,24)                 1.4409         calculate D2E/DX2 analytically  !
 ! R4    R(2,3)                  1.4022         calculate D2E/DX2 analytically  !
 ! R5    R(2,36)                 1.086          calculate D2E/DX2 analytically  !
 ! R6    R(3,4)                  1.3997         calculate D2E/DX2 analytically  !
 ! R7    R(3,10)                 1.4496         calculate D2E/DX2 analytically  !
 ! R8    R(4,5)                  1.4172         calculate D2E/DX2 analytically  !
 ! R9    R(4,8)                  1.3988         calculate D2E/DX2 analytically  !
 ! R10   R(5,6)                  1.4081         calculate D2E/DX2 analytically  !
 ! R11   R(5,7)                  1.517          calculate D2E/DX2 analytically  !
 ! R12   R(6,23)                 1.4506         calculate D2E/DX2 analytically  !
 ! R13   R(7,9)                  1.4166         calculate D2E/DX2 analytically  !
 ! R14   R(7,16)                 1.4106         calculate D2E/DX2 analytically  !
 ! R15   R(8,9)                  1.3991         calculate D2E/DX2 analytically  !
 ! R16   R(8,11)                 1.3774         calculate D2E/DX2 analytically  !
 ! R17   R(9,13)                 1.3965         calculate D2E/DX2 analytically  !
 ! R18   R(10,12)                1.3786         calculate D2E/DX2 analytically  !
 ! R19   R(10,35)                1.0851         calculate D2E/DX2 analytically  !
 ! R20   R(11,12)                1.4459         calculate D2E/DX2 analytically  !
 ! R21   R(11,14)                1.4429         calculate D2E/DX2 analytically  !
 ! R22   R(12,31)                1.0853         calculate D2E/DX2 analytically  !
 ! R23   R(13,15)                1.4461         calculate D2E/DX2 analytically  !
 ! R24   R(13,18)                1.4038         calculate D2E/DX2 analytically  !
 ! R25   R(14,15)                1.3809         calculate D2E/DX2 analytically  !
 ! R26   R(14,32)                1.0851         calculate D2E/DX2 analytically  !
 ! R27   R(15,33)                1.0852         calculate D2E/DX2 analytically  !
 ! R28   R(16,17)                1.4604         calculate D2E/DX2 analytically  !
 ! R29   R(16,19)                1.4585         calculate D2E/DX2 analytically  !
 ! R30   R(17,18)                1.4044         calculate D2E/DX2 analytically  !
 ! R31   R(17,20)                1.4415         calculate D2E/DX2 analytically  !
 ! R32   R(18,34)                1.0855         calculate D2E/DX2 analytically  !
 ! R33   R(19,21)                1.4223         calculate D2E/DX2 analytically  !
 ! R34   R(19,27)                1.4093         calculate D2E/DX2 analytically  !
 ! R35   R(20,22)                1.3533         calculate D2E/DX2 analytically  !
 ! R36   R(20,45)                1.0849         calculate D2E/DX2 analytically  !
 ! R37   R(21,22)                1.4374         calculate D2E/DX2 analytically  !
 ! R38   R(21,29)                1.4104         calculate D2E/DX2 analytically  !
 ! R39   R(22,44)                1.0848         calculate D2E/DX2 analytically  !
 ! R40   R(23,26)                1.3946         calculate D2E/DX2 analytically  !
 ! R41   R(23,46)                1.191          calculate D2E/DX2 analytically  !
 ! R42   R(24,25)                1.3575         calculate D2E/DX2 analytically  !
 ! R43   R(24,37)                1.0859         calculate D2E/DX2 analytically  !
 ! R44   R(25,26)                1.448          calculate D2E/DX2 analytically  !
 ! R45   R(25,38)                1.0847         calculate D2E/DX2 analytically  !
 ! R46   R(26,39)                1.0924         calculate D2E/DX2 analytically  !
 ! R47   R(26,46)                1.2216         calculate D2E/DX2 analytically  !
 ! R48   R(27,28)                1.3829         calculate D2E/DX2 analytically  !
 ! R49   R(27,40)                1.0804         calculate D2E/DX2 analytically  !
 ! R50   R(28,30)                1.4033         calculate D2E/DX2 analytically  !
 ! R51   R(28,41)                1.0845         calculate D2E/DX2 analytically  !
 ! R52   R(29,30)                1.3813         calculate D2E/DX2 analytically  !
 ! R53   R(29,43)                1.085          calculate D2E/DX2 analytically  !
 ! R54   R(30,42)                1.0843         calculate D2E/DX2 analytically  !
 ! A1    A(2,1,6)              123.337          calculate D2E/DX2 analytically  !
 ! A2    A(2,1,24)             118.9526         calculate D2E/DX2 analytically  !
 ! A3    A(6,1,24)             117.7093         calculate D2E/DX2 analytically  !
 ! A4    A(1,2,3)              119.506          calculate D2E/DX2 analytically  !
 ! A5    A(1,2,36)             119.1757         calculate D2E/DX2 analytically  !
 ! A6    A(3,2,36)             121.2408         calculate D2E/DX2 analytically  !
 ! A7    A(2,3,4)              115.123          calculate D2E/DX2 analytically  !
 ! A8    A(2,3,10)             129.3323         calculate D2E/DX2 analytically  !
 ! A9    A(4,3,10)             115.4397         calculate D2E/DX2 analytically  !
 ! A10   A(3,4,5)              128.6341         calculate D2E/DX2 analytically  !
 ! A11   A(3,4,8)              120.3488         calculate D2E/DX2 analytically  !
 ! A12   A(5,4,8)              110.0928         calculate D2E/DX2 analytically  !
 ! A13   A(4,5,6)              115.3712         calculate D2E/DX2 analytically  !
 ! A14   A(4,5,7)              105.7378         calculate D2E/DX2 analytically  !
 ! A15   A(6,5,7)              137.6864         calculate D2E/DX2 analytically  !
 ! A16   A(1,6,5)              117.2718         calculate D2E/DX2 analytically  !
 ! A17   A(1,6,23)             119.3887         calculate D2E/DX2 analytically  !
 ! A18   A(5,6,23)             122.5497         calculate D2E/DX2 analytically  !
 ! A19   A(5,7,9)              104.7521         calculate D2E/DX2 analytically  !
 ! A20   A(5,7,16)             139.879          calculate D2E/DX2 analytically  !
 ! A21   A(9,7,16)             115.3621         calculate D2E/DX2 analytically  !
 ! A22   A(4,8,9)              108.2626         calculate D2E/DX2 analytically  !
 ! A23   A(4,8,11)             125.7067         calculate D2E/DX2 analytically  !
 ! A24   A(9,8,11)             125.6133         calculate D2E/DX2 analytically  !
 ! A25   A(7,9,8)              110.7359         calculate D2E/DX2 analytically  !
 ! A26   A(7,9,13)             128.8472         calculate D2E/DX2 analytically  !
 ! A27   A(8,9,13)             120.3429         calculate D2E/DX2 analytically  !
 ! A28   A(3,10,12)            122.51           calculate D2E/DX2 analytically  !
 ! A29   A(3,10,35)            118.5669         calculate D2E/DX2 analytically  !
 ! A30   A(12,10,35)           118.8998         calculate D2E/DX2 analytically  !
 ! A31   A(8,11,12)            114.2874         calculate D2E/DX2 analytically  !
 ! A32   A(8,11,14)            114.5097         calculate D2E/DX2 analytically  !
 ! A33   A(12,11,14)           131.118          calculate D2E/DX2 analytically  !
 ! A34   A(10,12,11)           121.4232         calculate D2E/DX2 analytically  !
 ! A35   A(10,12,31)           118.9393         calculate D2E/DX2 analytically  !
 ! A36   A(11,12,31)           119.6143         calculate D2E/DX2 analytically  !
 ! A37   A(9,13,15)            115.6678         calculate D2E/DX2 analytically  !
 ! A38   A(9,13,18)            114.2901         calculate D2E/DX2 analytically  !
 ! A39   A(15,13,18)           129.9232         calculate D2E/DX2 analytically  !
 ! A40   A(11,14,15)           121.227          calculate D2E/DX2 analytically  !
 ! A41   A(11,14,32)           119.7308         calculate D2E/DX2 analytically  !
 ! A42   A(15,14,32)           119.0294         calculate D2E/DX2 analytically  !
 ! A43   A(13,15,14)           122.5981         calculate D2E/DX2 analytically  !
 ! A44   A(13,15,33)           118.5866         calculate D2E/DX2 analytically  !
 ! A45   A(14,15,33)           118.807          calculate D2E/DX2 analytically  !
 ! A46   A(7,16,17)            116.4771         calculate D2E/DX2 analytically  !
 ! A47   A(7,16,19)            126.2082         calculate D2E/DX2 analytically  !
 ! A48   A(17,16,19)           117.1859         calculate D2E/DX2 analytically  !
 ! A49   A(16,17,18)           123.1437         calculate D2E/DX2 analytically  !
 ! A50   A(16,17,20)           118.3907         calculate D2E/DX2 analytically  !
 ! A51   A(18,17,20)           118.4608         calculate D2E/DX2 analytically  !
 ! A52   A(13,18,17)           120.2325         calculate D2E/DX2 analytically  !
 ! A53   A(13,18,34)           121.1679         calculate D2E/DX2 analytically  !
 ! A54   A(17,18,34)           118.5995         calculate D2E/DX2 analytically  !
 ! A55   A(16,19,21)           119.8715         calculate D2E/DX2 analytically  !
 ! A56   A(16,19,27)           121.9515         calculate D2E/DX2 analytically  !
 ! A57   A(21,19,27)           117.8984         calculate D2E/DX2 analytically  !
 ! A58   A(17,20,22)           122.0919         calculate D2E/DX2 analytically  !
 ! A59   A(17,20,45)           117.6149         calculate D2E/DX2 analytically  !
 ! A60   A(22,20,45)           120.2928         calculate D2E/DX2 analytically  !
 ! A61   A(19,21,22)           119.5917         calculate D2E/DX2 analytically  !
 ! A62   A(19,21,29)           119.6247         calculate D2E/DX2 analytically  !
 ! A63   A(22,21,29)           120.6185         calculate D2E/DX2 analytically  !
 ! A64   A(20,22,21)           120.6714         calculate D2E/DX2 analytically  !
 ! A65   A(20,22,44)           120.5878         calculate D2E/DX2 analytically  !
 ! A66   A(21,22,44)           118.5748         calculate D2E/DX2 analytically  !
 ! A67   A(6,23,26)            116.4155         calculate D2E/DX2 analytically  !
 ! A68   A(6,23,46)            124.1839         calculate D2E/DX2 analytically  !
 ! A69   A(1,24,25)            122.2357         calculate D2E/DX2 analytically  !
 ! A70   A(1,24,37)            117.5821         calculate D2E/DX2 analytically  !
 ! A71   A(25,24,37)           120.1817         calculate D2E/DX2 analytically  !
 ! A72   A(24,25,26)           118.0878         calculate D2E/DX2 analytically  !
 ! A73   A(24,25,38)           121.27           calculate D2E/DX2 analytically  !
 ! A74   A(26,25,38)           120.6313         calculate D2E/DX2 analytically  !
 ! A75   A(23,26,25)           123.965          calculate D2E/DX2 analytically  !
 ! A76   A(23,26,39)           118.7632         calculate D2E/DX2 analytically  !
 ! A77   A(25,26,39)           116.8716         calculate D2E/DX2 analytically  !
 ! A78   A(25,26,46)           131.6071         calculate D2E/DX2 analytically  !
 ! A79   A(39,26,46)            90.9177         calculate D2E/DX2 analytically  !
 ! A80   A(19,27,28)           121.4605         calculate D2E/DX2 analytically  !
 ! A81   A(19,27,40)           119.0234         calculate D2E/DX2 analytically  !
 ! A82   A(28,27,40)           119.4663         calculate D2E/DX2 analytically  !
 ! A83   A(27,28,30)           120.2416         calculate D2E/DX2 analytically  !
 ! A84   A(27,28,41)           119.8205         calculate D2E/DX2 analytically  !
 ! A85   A(30,28,41)           119.9358         calculate D2E/DX2 analytically  !
 ! A86   A(21,29,30)           120.9353         calculate D2E/DX2 analytically  !
 ! A87   A(21,29,43)           118.717          calculate D2E/DX2 analytically  !
 ! A88   A(30,29,43)           120.3028         calculate D2E/DX2 analytically  !
 ! A89   A(28,30,29)           119.5559         calculate D2E/DX2 analytically  !
 ! A90   A(28,30,42)           120.1876         calculate D2E/DX2 analytically  !
 ! A91   A(29,30,42)           120.2228         calculate D2E/DX2 analytically  !
 ! D1    D(6,1,2,3)              0.2437         calculate D2E/DX2 analytically  !
 ! D2    D(6,1,2,36)           177.0831         calculate D2E/DX2 analytically  !
 ! D3    D(24,1,2,3)          -179.3801         calculate D2E/DX2 analytically  !
 ! D4    D(24,1,2,36)           -2.5406         calculate D2E/DX2 analytically  !
 ! D5    D(2,1,6,5)              7.5022         calculate D2E/DX2 analytically  !
 ! D6    D(2,1,6,23)          -162.5824         calculate D2E/DX2 analytically  !
 ! D7    D(24,1,6,5)          -172.8697         calculate D2E/DX2 analytically  !
 ! D8    D(24,1,6,23)           17.0457         calculate D2E/DX2 analytically  !
 ! D9    D(2,1,24,25)          172.1226         calculate D2E/DX2 analytically  !
 ! D10   D(2,1,24,37)           -7.6094         calculate D2E/DX2 analytically  !
 ! D11   D(6,1,24,25)           -7.5224         calculate D2E/DX2 analytically  !
 ! D12   D(6,1,24,37)          172.7456         calculate D2E/DX2 analytically  !
 ! D13   D(1,2,3,4)             -5.4745         calculate D2E/DX2 analytically  !
 ! D14   D(1,2,3,10)           170.5875         calculate D2E/DX2 analytically  !
 ! D15   D(36,2,3,4)           177.7532         calculate D2E/DX2 analytically  !
 ! D16   D(36,2,3,10)           -6.1849         calculate D2E/DX2 analytically  !
 ! D17   D(2,3,4,5)              3.5529         calculate D2E/DX2 analytically  !
 ! D18   D(2,3,4,8)            171.401          calculate D2E/DX2 analytically  !
 ! D19   D(10,3,4,5)          -173.0747         calculate D2E/DX2 analytically  !
 ! D20   D(10,3,4,8)            -5.2267         calculate D2E/DX2 analytically  !
 ! D21   D(2,3,10,12)         -171.5606         calculate D2E/DX2 analytically  !
 ! D22   D(2,3,10,35)            6.6622         calculate D2E/DX2 analytically  !
 ! D23   D(4,3,10,12)            4.4911         calculate D2E/DX2 analytically  !
 ! D24   D(4,3,10,35)         -177.2862         calculate D2E/DX2 analytically  !
 ! D25   D(3,4,5,6)              4.0108         calculate D2E/DX2 analytically  !
 ! D26   D(3,4,5,7)            173.7206         calculate D2E/DX2 analytically  !
 ! D27   D(8,4,5,6)           -164.8361         calculate D2E/DX2 analytically  !
 ! D28   D(8,4,5,7)              4.8737         calculate D2E/DX2 analytically  !
 ! D29   D(3,4,8,9)           -171.2998         calculate D2E/DX2 analytically  !
 ! D30   D(3,4,8,11)             1.6038         calculate D2E/DX2 analytically  !
 ! D31   D(5,4,8,9)             -1.3839         calculate D2E/DX2 analytically  !
 ! D32   D(5,4,8,11)           171.5198         calculate D2E/DX2 analytically  !
 ! D33   D(4,5,6,1)             -9.0034         calculate D2E/DX2 analytically  !
 ! D34   D(4,5,6,23)           160.7437         calculate D2E/DX2 analytically  !
 ! D35   D(7,5,6,1)           -174.2056         calculate D2E/DX2 analytically  !
 ! D36   D(7,5,6,23)            -4.4584         calculate D2E/DX2 analytically  !
 ! D37   D(4,5,7,9)             -6.4288         calculate D2E/DX2 analytically  !
 ! D38   D(4,5,7,16)           172.5079         calculate D2E/DX2 analytically  !
 ! D39   D(6,5,7,9)            159.6986         calculate D2E/DX2 analytically  !
 ! D40   D(6,5,7,16)           -21.3647         calculate D2E/DX2 analytically  !
 ! D41   D(1,6,23,26)          -15.6167         calculate D2E/DX2 analytically  !
 ! D42   D(1,6,23,46)          -80.6015         calculate D2E/DX2 analytically  !
 ! D43   D(5,6,23,26)          174.8448         calculate D2E/DX2 analytically  !
 ! D44   D(5,6,23,46)          109.86           calculate D2E/DX2 analytically  !
 ! D45   D(5,7,9,8)              5.8501         calculate D2E/DX2 analytically  !
 ! D46   D(5,7,9,13)          -170.981          calculate D2E/DX2 analytically  !
 ! D47   D(16,7,9,8)          -173.3917         calculate D2E/DX2 analytically  !
 ! D48   D(16,7,9,13)            9.7773         calculate D2E/DX2 analytically  !
 ! D49   D(5,7,16,17)          166.5711         calculate D2E/DX2 analytically  !
 ! D50   D(5,7,16,19)          -17.6903         calculate D2E/DX2 analytically  !
 ! D51   D(9,7,16,17)          -14.5668         calculate D2E/DX2 analytically  !
 ! D52   D(9,7,16,19)          161.1718         calculate D2E/DX2 analytically  !
 ! D53   D(4,8,9,7)             -3.0491         calculate D2E/DX2 analytically  !
 ! D54   D(4,8,9,13)           174.0914         calculate D2E/DX2 analytically  !
 ! D55   D(11,8,9,7)          -175.9611         calculate D2E/DX2 analytically  !
 ! D56   D(11,8,9,13)            1.1794         calculate D2E/DX2 analytically  !
 ! D57   D(4,8,11,12)            2.9838         calculate D2E/DX2 analytically  !
 ! D58   D(4,8,11,14)         -174.0434         calculate D2E/DX2 analytically  !
 ! D59   D(9,8,11,12)          174.6867         calculate D2E/DX2 analytically  !
 ! D60   D(9,8,11,14)           -2.3405         calculate D2E/DX2 analytically  !
 ! D61   D(7,9,13,15)          177.1588         calculate D2E/DX2 analytically  !
 ! D62   D(7,9,13,18)            0.7239         calculate D2E/DX2 analytically  !
 ! D63   D(8,9,13,15)            0.5932         calculate D2E/DX2 analytically  !
 ! D64   D(8,9,13,18)         -175.8417         calculate D2E/DX2 analytically  !
 ! D65   D(3,10,12,11)           0.0333         calculate D2E/DX2 analytically  !
 ! D66   D(3,10,12,31)         178.272          calculate D2E/DX2 analytically  !
 ! D67   D(35,10,12,11)       -178.1838         calculate D2E/DX2 analytically  !
 ! D68   D(35,10,12,31)          0.055          calculate D2E/DX2 analytically  !
 ! D69   D(8,11,12,10)          -3.7052         calculate D2E/DX2 analytically  !
 ! D70   D(8,11,12,31)         178.0677         calculate D2E/DX2 analytically  !
 ! D71   D(14,11,12,10)        172.7036         calculate D2E/DX2 analytically  !
 ! D72   D(14,11,12,31)         -5.5235         calculate D2E/DX2 analytically  !
 ! D73   D(8,11,14,15)           1.8084         calculate D2E/DX2 analytically  !
 ! D74   D(8,11,14,32)        -179.5034         calculate D2E/DX2 analytically  !
 ! D75   D(12,11,14,15)       -174.594          calculate D2E/DX2 analytically  !
 ! D76   D(12,11,14,32)          4.0942         calculate D2E/DX2 analytically  !
 ! D77   D(9,13,15,14)          -1.0264         calculate D2E/DX2 analytically  !
 ! D78   D(9,13,15,33)        -179.9627         calculate D2E/DX2 analytically  !
 ! D79   D(18,13,15,14)        174.7354         calculate D2E/DX2 analytically  !
 ! D80   D(18,13,15,33)         -4.2009         calculate D2E/DX2 analytically  !
 ! D81   D(9,13,18,17)          -5.4383         calculate D2E/DX2 analytically  !
 ! D82   D(9,13,18,34)         174.4696         calculate D2E/DX2 analytically  !
 ! D83   D(15,13,18,17)        178.7526         calculate D2E/DX2 analytically  !
 ! D84   D(15,13,18,34)         -1.3395         calculate D2E/DX2 analytically  !
 ! D85   D(11,14,15,13)         -0.2107         calculate D2E/DX2 analytically  !
 ! D86   D(11,14,15,33)        178.7233         calculate D2E/DX2 analytically  !
 ! D87   D(32,14,15,13)       -178.9079         calculate D2E/DX2 analytically  !
 ! D88   D(32,14,15,33)          0.0261         calculate D2E/DX2 analytically  !
 ! D89   D(7,16,17,18)          11.0308         calculate D2E/DX2 analytically  !
 ! D90   D(7,16,17,20)        -168.1566         calculate D2E/DX2 analytically  !
 ! D91   D(19,16,17,18)       -165.1044         calculate D2E/DX2 analytically  !
 ! D92   D(19,16,17,20)         15.7082         calculate D2E/DX2 analytically  !
 ! D93   D(7,16,19,21)         168.8057         calculate D2E/DX2 analytically  !
 ! D94   D(7,16,19,27)         -17.3856         calculate D2E/DX2 analytically  !
 ! D95   D(17,16,19,21)        -15.4825         calculate D2E/DX2 analytically  !
 ! D96   D(17,16,19,27)        158.3261         calculate D2E/DX2 analytically  !
 ! D97   D(16,17,18,13)         -0.3555         calculate D2E/DX2 analytically  !
 ! D98   D(16,17,18,34)        179.7343         calculate D2E/DX2 analytically  !
 ! D99   D(20,17,18,13)        178.8314         calculate D2E/DX2 analytically  !
 ! D100  D(20,17,18,34)         -1.0788         calculate D2E/DX2 analytically  !
 ! D101  D(16,17,20,22)         -5.3336         calculate D2E/DX2 analytically  !
 ! D102  D(16,17,20,45)        174.4507         calculate D2E/DX2 analytically  !
 ! D103  D(18,17,20,22)        175.4404         calculate D2E/DX2 analytically  !
 ! D104  D(18,17,20,45)         -4.7754         calculate D2E/DX2 analytically  !
 ! D105  D(16,19,21,22)          4.7712         calculate D2E/DX2 analytically  !
 ! D106  D(16,19,21,29)       -179.869          calculate D2E/DX2 analytically  !
 ! D107  D(27,19,21,22)       -169.2856         calculate D2E/DX2 analytically  !
 ! D108  D(27,19,21,29)          6.0743         calculate D2E/DX2 analytically  !
 ! D109  D(16,19,27,28)       -177.5604         calculate D2E/DX2 analytically  !
 ! D110  D(16,19,27,40)         -0.1419         calculate D2E/DX2 analytically  !
 ! D111  D(21,19,27,28)         -3.6348         calculate D2E/DX2 analytically  !
 ! D112  D(21,19,27,40)        173.7838         calculate D2E/DX2 analytically  !
 ! D113  D(17,20,22,21)         -5.9167         calculate D2E/DX2 analytically  !
 ! D114  D(17,20,22,44)        178.8334         calculate D2E/DX2 analytically  !
 ! D115  D(45,20,22,21)        174.3046         calculate D2E/DX2 analytically  !
 ! D116  D(45,20,22,44)         -0.9453         calculate D2E/DX2 analytically  !
 ! D117  D(19,21,22,20)          6.2413         calculate D2E/DX2 analytically  !
 ! D118  D(19,21,22,44)       -178.4148         calculate D2E/DX2 analytically  !
 ! D119  D(29,21,22,20)       -169.0715         calculate D2E/DX2 analytically  !
 ! D120  D(29,21,22,44)          6.2724         calculate D2E/DX2 analytically  !
 ! D121  D(19,21,29,30)         -4.0206         calculate D2E/DX2 analytically  !
 ! D122  D(19,21,29,43)        178.4112         calculate D2E/DX2 analytically  !
 ! D123  D(22,21,29,30)        171.2906         calculate D2E/DX2 analytically  !
 ! D124  D(22,21,29,43)         -6.2776         calculate D2E/DX2 analytically  !
 ! D125  D(6,23,26,25)           5.021          calculate D2E/DX2 analytically  !
 ! D126  D(6,23,26,39)         177.5213         calculate D2E/DX2 analytically  !
 ! D127  D(1,24,25,26)          -2.9712         calculate D2E/DX2 analytically  !
 ! D128  D(1,24,25,38)         178.223          calculate D2E/DX2 analytically  !
 ! D129  D(37,24,25,26)        176.754          calculate D2E/DX2 analytically  !
 ! D130  D(37,24,25,38)         -2.0518         calculate D2E/DX2 analytically  !
 ! D131  D(24,25,26,23)          4.3742         calculate D2E/DX2 analytically  !
 ! D132  D(24,25,26,39)       -168.2563         calculate D2E/DX2 analytically  !
 ! D133  D(24,25,26,46)         73.4494         calculate D2E/DX2 analytically  !
 ! D134  D(38,25,26,23)       -176.812          calculate D2E/DX2 analytically  !
 ! D135  D(38,25,26,39)         10.5574         calculate D2E/DX2 analytically  !
 ! D136  D(38,25,26,46)       -107.7368         calculate D2E/DX2 analytically  !
 ! D137  D(19,27,28,30)         -1.002          calculate D2E/DX2 analytically  !
 ! D138  D(19,27,28,41)        178.4675         calculate D2E/DX2 analytically  !
 ! D139  D(40,27,28,30)       -178.4093         calculate D2E/DX2 analytically  !
 ! D140  D(40,27,28,41)          1.0602         calculate D2E/DX2 analytically  !
 ! D141  D(27,28,30,29)          3.2208         calculate D2E/DX2 analytically  !
 ! D142  D(27,28,30,42)       -178.8833         calculate D2E/DX2 analytically  !
 ! D143  D(41,28,30,29)       -176.2481         calculate D2E/DX2 analytically  !
 ! D144  D(41,28,30,42)          1.6478         calculate D2E/DX2 analytically  !
 ! D145  D(21,29,30,28)         -0.6829         calculate D2E/DX2 analytically  !
 ! D146  D(21,29,30,42)       -178.5781         calculate D2E/DX2 analytically  !
 ! D147  D(43,29,30,28)        176.8469         calculate D2E/DX2 analytically  !
 ! D148  D(43,29,30,42)         -1.0483         calculate D2E/DX2 analytically  !
 --------------------------------------------------------------------------------
 Trust Radius=3.00D-01 FncErr=1.00D-07 GrdErr=1.00D-06 EigMax=2.50D+02 EigMin=1.00D-04
 Number of steps in this run=    276 maximum allowed number of steps=    276.
 Search for a saddle point of order  1.
 GradGradGradGradGradGradGradGradGradGradGradGradGradGradGradGradGradGrad

                          Input orientation:                          
 ---------------------------------------------------------------------
 Center     Atomic      Atomic             Coordinates (Angstroms)
 Number     Number       Type             X           Y           Z
 ---------------------------------------------------------------------
      1          6           0        1.760785    2.865695   -0.122553
      2          6           0        3.056769    2.391572    0.154451
      3          6           0        3.269703    1.014443    0.310125
      4          6           0        2.112056    0.227947    0.288617
      5          6           0        0.772258    0.631437    0.063551
      6          6           0        0.597323    1.991661   -0.255736
      7          6           0       -0.037637   -0.649612   -0.002869
      8          6           0        2.206051   -1.167286    0.253777
      9          6           0        0.925413   -1.687749    0.037707
     10          6           0        4.517281    0.283499    0.413008
     11          6           0        3.375547   -1.894857    0.268653
     12          6           0        4.572748   -1.093839    0.394211
     13          6           0        0.745522   -3.057828   -0.164129
     14          6           0        3.198986   -3.315528    0.088800
     15          6           0        1.947329   -3.860828   -0.118410
     16          6           0       -1.381143   -1.074093   -0.070654
     17          6           0       -1.604689   -2.474555   -0.419032
     18          6           0       -0.575642   -3.429480   -0.459381
     19          6           0       -2.555297   -0.273390    0.257367
     20          6           0       -2.943091   -2.892348   -0.753887
     21          6           0       -3.852856   -0.746928   -0.081611
     22          6           0       -4.003502   -2.057645   -0.652174
     23          6           0       -0.599756    2.493663   -0.903263
     24          6           0        1.557922    4.281967   -0.293621
     25          6           0        0.375264    4.798386   -0.714949
     26          6           0       -0.686824    3.876686   -1.059999
     27          6           0       -2.462927    0.908247    1.019729
     28          6           0       -3.588346    1.632952    1.366977
     29          6           0       -4.984467    0.032860    0.235544
     30          6           0       -4.858455    1.211837    0.944130
     31          1           0        5.541033   -1.581184    0.446685
     32          1           0        4.064222   -3.970309    0.094538
     33          1           0        1.862164   -4.932073   -0.269891
     34          1           0       -0.825852   -4.452172   -0.723713
     35          1           0        5.443630    0.844804    0.478898
     36          1           0        3.881734    3.096863    0.192058
     37          1           0        2.394390    4.939570   -0.076483
     38          1           0        0.230779    5.869079   -0.811108
     39          1           0       -1.552822    4.293349   -1.579344
     40          1           0       -1.493917    1.229343    1.373606
     41          1           0       -3.488776    2.525103    1.975555
     42          1           0       -5.738493    1.790596    1.201638
     43          1           0       -5.965362   -0.330258   -0.053077
     44          1           0       -4.997770   -2.392061   -0.928643
     45          1           0       -3.080107   -3.911598   -1.099438
     46          1           0       -1.412783    3.179639   -0.367551
 ---------------------------------------------------------------------
                    Distance matrix (angstroms):
                    1          2          3          4          5
     1  C    0.000000
     2  C    1.407515   0.000000
     3  C    2.427175   1.402162   0.000000
     4  C    2.692613   2.364689   1.399709   0.000000
     5  C    2.450251   2.885365   2.538646   1.417222   0.000000
     6  C    1.461272   2.525284   2.901167   2.387765   1.408104
     7  C    3.950447   4.341532   3.715581   2.340140   1.517046
     8  C    4.074901   3.660472   2.427853   1.398830   2.308106
     9  C    4.632211   4.604038   3.587722   2.267370   2.324381
    10  C    3.814817   2.577580   1.449591   2.409080   3.777351
    11  C    5.042158   4.299783   2.911520   2.470446   3.633365
    12  C    4.883860   3.808381   2.479889   2.795223   4.186841
    13  C    6.010043   5.927842   4.814540   3.587299   3.696381
    14  C    6.349851   5.709249   4.336200   3.711813   4.633377
    15  C    6.729110   6.355928   5.069574   4.112285   4.646972
    16  C    5.039478   5.635297   5.112469   3.745240   2.750269
    17  C    6.319223   6.762933   6.038582   4.649567   3.940806
    18  C    6.723211   6.888820   5.926826   4.599999   4.310608
    19  C    5.350398   6.213525   5.965897   4.694305   3.453824
    20  C    7.461909   8.046316   7.415790   6.031382   5.185469
    21  C    6.675754   7.592682   7.347566   6.055380   4.828317
    22  C    7.599130   8.384128   7.953820   6.596140   5.527324
    23  C    2.513975   3.807802   4.316609   3.729339   2.506998
    24  C    1.440918   2.453753   3.737836   4.132934   3.751161
    25  C    2.450693   3.706626   4.873067   4.991243   4.257597
    26  C    2.809217   4.206536   5.071862   4.792264   3.731344
    27  C    4.793345   5.780658   5.777358   4.682713   3.384867
    28  C    5.687843   6.797299   6.966515   5.969211   4.660131
    29  C    7.324726   8.380428   8.312664   7.099402   5.790316
    30  C    6.905606   8.041526   8.155236   7.070061   5.728631
    31  H    5.864217   4.694652   3.451792   3.880183   5.271024
    32  H    7.216918   6.441435   5.052276   4.634002   5.658096
    33  H    7.799819   7.432558   6.138293   5.196170   5.679060
    34  H    7.784810   7.917244   6.908420   5.617796   5.386726
    35  H    4.243712   2.862667   2.187057   3.393539   4.694652
    36  H    2.156581   1.086010   2.173705   3.372204   3.970350
    37  H    2.168994   2.642796   4.040082   4.734174   4.605533
    38  H    3.440253   4.583839   5.836070   6.047394   5.337708
    39  H    3.891070   5.279312   6.130095   5.783433   4.638394
    40  H    3.938175   4.852407   4.885617   3.896542   2.685011
    41  H    5.663563   6.795470   7.122695   6.284266   5.039657
    42  H    7.690806   8.877748   9.085417   8.056463   6.710348
    43  H    8.361357   9.426042   9.339516   8.103890   6.806907
    44  H    8.600689   9.430368   9.027177   7.674359   6.589326
    45  H    8.385716   8.886137   8.159218   6.783884   6.068972
    46  H    3.198456   4.568417   5.203171   4.644086   3.384315
                    6          7          8          9         10
     6  C    0.000000
     7  C    2.728267   0.000000
     8  C    3.581418   2.316892   0.000000
     9  C    3.705646   1.416630   1.399143   0.000000
    10  C    4.327945   4.668075   2.733481   4.114388   0.000000
    11  C    4.806093   3.643375   1.377426   2.469694   2.463662
    12  C    5.074125   4.648727   2.371997   3.712530   1.378583
    13  C    5.052494   2.537488   2.425271   1.396501   5.071856
    14  C    5.920609   4.194191   2.372358   2.796678   3.846558
    15  C    6.007745   3.776950   2.731415   2.406441   4.905355
    16  C    3.653414   1.410598   3.603041   2.389250   6.071935
    17  C    4.982229   2.441160   4.084527   2.688697   6.765920
    18  C    5.550323   2.868017   3.655671   2.352422   6.362793
    19  C    3.915705   2.558882   4.844533   3.763510   7.096176
    20  C    6.052787   3.746406   5.523123   4.128317   8.191752
    21  C    5.228220   3.817272   6.082725   4.871472   8.447818
    22  C    6.141794   4.258197   6.338141   4.990688   8.900523
    23  C    1.450619   3.317660   4.755401   4.549261   5.727256
    24  C    2.483886   5.191418   5.514896   6.012267   5.024428
    25  C    2.852699   5.509830   6.315018   6.552793   6.229992
    26  C    2.418510   4.693223   5.961240   5.896372   6.493339
    27  C    3.487940   3.058539   5.166612   4.380001   7.034325
    28  C    4.503520   4.437805   6.531124   5.759170   8.272380
    29  C    5.935877   4.999374   7.290009   6.158435   9.506710
    30  C    5.640330   5.253769   7.486258   6.533172   9.436542
    31  H    6.139942   5.673754   3.366100   4.634929   2.127497
    32  H    6.905590   5.278424   3.366763   3.881421   4.289705
    33  H    7.038332   4.692549   3.816557   3.390834   5.892214
    34  H    6.615694   3.949729   4.575849   3.359870   7.229646
    35  H    5.034050   5.701725   3.818521   5.198342   1.085139
    36  H    3.494188   5.425453   4.581996   5.626382   2.892707
    37  H    3.457130   6.095829   6.118679   6.789130   5.140551
    38  H    3.934103   6.574088   7.385534   7.636010   7.146416
    39  H    3.416552   5.404991   6.878081   6.673083   7.542845
    40  H    2.758472   2.746981   4.548364   4.018359   6.160509
    41  H    4.686088   5.089532   7.002093   6.402222   8.459509
    42  H    6.504378   6.317057   8.530140   7.606659  10.395873
    43  H    6.964281   5.936534   8.219901   7.023803  10.510934
    44  H    7.139670   5.338174   7.402245   6.042680   9.974710
    45  H    7.005983   4.593434   6.107856   4.720465   8.809463
    46  H    2.337589   4.084995   5.690146   5.415059   6.645492
                   11         12         13         14         15
    11  C    0.000000
    12  C    1.445920   0.000000
    13  C    2.908063   4.337817   0.000000
    14  C    1.442854   2.629905   2.479893   0.000000
    15  C    2.460623   3.848614   1.446112   1.380918   0.000000
    16  C    4.838893   5.972044   2.909750   5.101670   4.341301
    17  C    5.060801   6.381886   2.434887   4.903103   3.824782
    18  C    4.300813   5.717496   1.403842   3.815928   2.582190
    19  C    6.148511   7.176412   4.338912   6.511128   5.769277
    20  C    6.478099   7.812848   3.739126   6.214042   5.025733
    21  C    7.327362   8.446156   5.147052   7.507011   6.583303
    22  C    7.438063   8.693440   4.877682   7.348955   6.240894
    23  C    6.036185   6.427162   5.759787   7.011514   6.890805
    24  C    6.463209   6.201740   7.385753   7.782112   8.153984
    25  C    7.400586   7.318977   7.884199   8.628732   8.820954
    26  C    7.181844   7.381324   7.137344   8.255132   8.227665
    27  C    6.519915   7.341685   5.236928   7.124897   6.594679
    28  C    7.883372   8.659395   6.567352   8.496415   7.939250
    29  C    8.579454   9.624707   6.522642   8.843197   7.958385
    30  C    8.826472   9.724512   7.131819   9.281755   8.554509
    31  H    2.195317   1.085281   5.054750   2.936191   4.293113
    32  H    2.193648   2.936406   3.451565   1.085083   2.130392
    33  H    3.435846   4.745560   2.184232   2.128138   1.085249
    34  H    5.017609   6.455466   2.174062   4.260453   2.899416
    35  H    3.439028   2.126957   6.141355   4.743307   5.892696
    36  H    5.017904   4.252099   6.916857   6.449462   7.228262
    37  H    6.913117   6.431860   8.166078   8.295863   8.811846
    38  H    8.445955   8.293836   8.965111   9.694178   9.904416
    39  H    8.123903   8.392814   7.831029   9.124549   8.993108
    40  H    5.890096   6.569689   5.075387   6.658072   6.322826
    41  H    8.340773   8.976946   7.326435   9.077388   8.643844
    42  H    9.875158  10.737485   8.210663  10.353233   9.630835
    43  H    9.476500  10.575201   7.244856   9.639359   8.664864
    44  H    8.473085   9.748340   5.832078   8.311125   7.144799
    45  H    6.900318   8.290775   4.029785   6.418272   5.122510
    46  H    7.005952   7.393881   6.603458   7.978964   7.805165
                   16         17         18         19         20
    16  C    0.000000
    17  C    1.460354   0.000000
    18  C    2.519482   1.404439   0.000000
    19  C    1.458547   2.491244   3.793898   0.000000
    20  C    2.492497   1.441527   2.445416   2.834071   0.000000
    21  C    2.493295   2.855311   4.251932   1.422253   2.425377
    22  C    2.860473   2.445909   3.697205   2.471463   1.353346
    23  C    3.746023   5.091911   5.939801   3.581590   5.875598
    24  C    6.113526   7.461128   8.002874   6.162259   8.481849
    25  C    6.163286   7.543438   8.286574   5.937718   8.376180
    26  C    5.096184   6.449153   7.331655   4.738119   7.141727
    27  C    2.507761   3.774911   4.956358   1.409253   4.221468
    28  C    3.777118   4.898606   6.167673   2.435686   5.039123
    29  C    3.781937   4.258932   5.648757   2.448496   3.701761
    30  C    4.283335   5.102420   6.469479   2.825257   4.836963
    31  H    6.959979   7.253201   6.453748   8.203458   8.668384
    32  H    6.169875   5.885371   4.704005   7.583651   7.140326
    33  H    5.044080   4.252142   2.869946   6.441684   5.242633
    34  H    3.485147   2.147181   1.085530   4.627712   2.629955
    35  H    7.110675   7.842399   7.441875   8.079744   9.264079
    36  H    6.720399   7.843148   7.930052   7.266240   9.129277
    37  H    7.100622   8.430849   8.888684   7.196236   9.501922
    38  H    7.166185   8.552128   9.340087   6.828893   9.318762
    39  H    5.578087   6.866843   7.864559   5.023303   7.365356
    40  H    2.721107   4.116392   5.089961   2.151912   4.859493
    41  H    4.645783   5.854948   7.062034   3.413959   6.090681
    42  H    5.367650   6.156819   7.527497   3.909530   5.793817
    43  H    4.644207   4.873131   6.230517   3.424639   4.023625
    44  H    3.943751   3.432129   4.566362   3.443989   2.121917
    45  H    3.463569   2.169079   2.629535   3.918278   1.084919
    46  H    4.264198   5.657684   6.662559   3.690430   6.273765
                   21         22         23         24         25
    21  C    0.000000
    22  C    1.437434   0.000000
    23  C    4.664676   5.688843   0.000000
    24  C    7.389943   8.440893   2.867973   0.000000
    25  C    7.002044   8.135275   2.509557   1.357529   0.000000
    26  C    5.688480   6.810504   1.394597   2.406340   1.447971
    27  C    2.425790   3.736997   3.111728   5.410555   5.118361
    28  C    2.798607   4.227272   3.850517   6.021540   5.483119
    29  C    1.410390   2.473974   5.155397   7.819065   7.234666
    30  C    2.429019   3.737465   4.815855   7.219946   6.558025
    31  H    9.445646   9.619390   7.492398   7.126694   8.290565
    32  H    8.549932   8.324904   8.033133   8.633207   9.547444
    33  H    7.086067   6.543280   7.848807   9.219092   9.853465
    34  H    4.827409   3.979490   6.951833   9.063804   9.328214
    35  H    9.448409   9.947454   6.414953   5.244960   6.537921
    36  H    8.641383   9.458257   4.652669   2.653386   4.001646
    37  H    8.447743   9.498708   3.953598   1.085942   2.122367
    38  H    7.808956   8.988178   3.477314   2.132610   1.084669
    39  H    5.739142   6.870269   2.145761   3.365998   2.172500
    40  H    3.404100   4.605007   2.753572   4.627297   4.538058
    41  H    3.882096   5.307681   4.078605   5.805591   5.228521
    42  H    3.411947   4.610398   5.597457   7.853687   7.078003
    43  H    2.153395   2.681730   6.122669   8.827813   8.181968
    44  H    2.175949   1.084822   6.573695   9.376727   8.978735
    45  H    3.412953   2.118925   6.871535   9.449612   9.378232
    46  H    4.631808   5.849955   1.191035   3.169492   2.436830
                   26         27         28         29         30
    26  C    0.000000
    27  C    4.036266   0.000000
    28  C    4.398111   1.382876   0.000000
    29  C    5.909583   2.781980   2.406156   0.000000
    30  C    5.340455   2.415872   1.403323   1.381289   0.000000
    31  H    8.416926   8.401727   9.722303  10.650628  10.779507
    32  H    9.245579   8.201217   9.569610   9.895656  10.353290
    33  H    9.204121   7.380980   8.688323   8.472448   9.186305
    34  H    8.336804   5.869727   7.002220   6.191104   7.150146
    35  H    7.010205   7.925287   9.109690  10.462489  10.319114
    36  H    4.800780   6.762381   7.702309   9.380806   8.972728
    37  H    3.404542   6.406776   6.986446   8.866831   8.218358
    38  H    2.207617   5.934465   6.105288   7.896564   7.118361
    39  H    1.092373   4.363758   4.461152   5.763833   5.175988
    40  H    3.685411   1.080422   2.132974   3.861437   3.391883
    41  H    4.346527   2.140139   1.084534   3.387625   2.159751
    42  H    5.914908   3.397199   2.162249   2.142785   1.084315
    43  H    6.824605   3.866763   3.394253   1.085040   2.144230
    44  H    7.609119   4.594955   4.843251   2.689935   4.063837
    45  H    8.147805   5.301197   6.089626   4.579030   5.795539
    46  H    1.221628   2.861218   3.183379   4.798215   4.179163
                   31         32         33         34         35
    31  H    0.000000
    32  H    2.830706   0.000000
    33  H    5.027526   2.430403   0.000000
    34  H    7.081640   4.981421   2.767976   0.000000
    35  H    2.428156   5.023526   6.838120   8.295217   0.000000
    36  H    4.970134   7.070200   8.291916   8.943597   2.755643
    37  H    7.259153   9.066616   9.887872   9.949557   5.135506
    38  H    9.235110  10.598539  10.937057  10.375564   7.353997
    39  H    9.430679  10.131195   9.923971   8.817297   8.067166
    40  H    7.632088   7.717856   7.206068   6.093002   7.005564
    41  H   10.036757  10.137869   9.449024   7.941006   9.211475
    42  H   11.796888  11.423962  10.253276   8.173932  11.245299
    43  H   11.584978  10.670722   9.082614   6.622272  11.481675
    44  H   10.659053   9.255132   7.344679   4.657355  11.021856
    45  H    9.063409   7.243650   5.114251   2.348415   9.887800
    46  H    8.466639   9.018474   8.748411   7.662629   7.292347
                   36         37         38         39         40
    36  H    0.000000
    37  H    2.383249   0.000000
    38  H    4.692653   2.466754   0.000000
    39  H    5.839850   4.272783   2.500869   0.000000
    40  H    5.812169   5.566639   5.410610   4.255763   0.000000
    41  H    7.604748   6.682227   5.725623   4.417230   2.453732
    42  H    9.760858   8.814387   7.504491   5.614043   4.284974
    43  H   10.429312   9.882160   8.797645   6.570977   4.945867
    44  H   10.499040  10.446196   9.777422   7.548893   5.540027
    45  H    9.962616  10.457520  10.329896   8.359669   5.921252
    46  H    5.324653   4.204360   3.182943   1.651788   2.615696
                   41         42         43         44         45
    41  H    0.000000
    42  H    2.489915   0.000000
    43  H    4.289745   2.474631   0.000000
    44  H    5.906770   4.751988   2.440058   0.000000
    45  H    7.145188   6.699029   4.716520   2.452671   0.000000
    46  H    3.198173   4.806616   5.757104   6.649120   7.321289
                   46
    46  H    0.000000
 Stoichiometry    C30H16
 Framework group  C1[X(C30H16)]
 Deg. of freedom   132
 Full point group                 C1      NOp   1
 Largest Abelian subgroup         C1      NOp   1
 Largest concise Abelian subgroup C1      NOp   1
                         Standard orientation:                         
 ---------------------------------------------------------------------
 Center     Atomic      Atomic             Coordinates (Angstroms)
 Number     Number       Type             X           Y           Z
 ---------------------------------------------------------------------
      1          6           0        1.760785    2.865695   -0.122553
      2          6           0        3.056769    2.391572    0.154451
      3          6           0        3.269703    1.014443    0.310125
      4          6           0        2.112056    0.227947    0.288617
      5          6           0        0.772258    0.631437    0.063551
      6          6           0        0.597323    1.991661   -0.255736
      7          6           0       -0.037637   -0.649612   -0.002869
      8          6           0        2.206051   -1.167286    0.253777
      9          6           0        0.925413   -1.687749    0.037707
     10          6           0        4.517281    0.283499    0.413008
     11          6           0        3.375547   -1.894857    0.268653
     12          6           0        4.572748   -1.093839    0.394211
     13          6           0        0.745522   -3.057828   -0.164129
     14          6           0        3.198986   -3.315528    0.088800
     15          6           0        1.947329   -3.860828   -0.118410
     16          6           0       -1.381143   -1.074093   -0.070654
     17          6           0       -1.604689   -2.474555   -0.419032
     18          6           0       -0.575642   -3.429480   -0.459381
     19          6           0       -2.555297   -0.273390    0.257367
     20          6           0       -2.943091   -2.892348   -0.753887
     21          6           0       -3.852856   -0.746928   -0.081611
     22          6           0       -4.003502   -2.057645   -0.652174
     23          6           0       -0.599756    2.493663   -0.903263
     24          6           0        1.557922    4.281967   -0.293621
     25          6           0        0.375264    4.798386   -0.714949
     26          6           0       -0.686824    3.876686   -1.059999
     27          6           0       -2.462927    0.908247    1.019729
     28          6           0       -3.588346    1.632952    1.366977
     29          6           0       -4.984467    0.032860    0.235544
     30          6           0       -4.858455    1.211837    0.944130
     31          1           0        5.541033   -1.581184    0.446685
     32          1           0        4.064222   -3.970309    0.094538
     33          1           0        1.862164   -4.932073   -0.269891
     34          1           0       -0.825852   -4.452172   -0.723713
     35          1           0        5.443630    0.844804    0.478898
     36          1           0        3.881734    3.096863    0.192058
     37          1           0        2.394390    4.939570   -0.076483
     38          1           0        0.230779    5.869079   -0.811108
     39          1           0       -1.552822    4.293349   -1.579344
     40          1           0       -1.493917    1.229343    1.373606
     41          1           0       -3.488776    2.525103    1.975555
     42          1           0       -5.738493    1.790596    1.201638
     43          1           0       -5.965362   -0.330258   -0.053077
     44          1           0       -4.997770   -2.392061   -0.928643
     45          1           0       -3.080107   -3.911598   -1.099438
     46          1           0       -1.412783    3.179639   -0.367551
 ---------------------------------------------------------------------
 Rotational constants (GHZ):           0.2217687           0.1672461           0.0997690
 Standard basis: 6-311+G(d,p) (5D, 7F)
 There are   786 symmetry adapted cartesian basis functions of A   symmetry.
 There are   756 symmetry adapted basis functions of A   symmetry.
   756 basis functions,  1208 primitive gaussians,   786 cartesian basis functions
    98 alpha electrons       98 beta electrons
       nuclear repulsion energy      2581.3225374778 Hartrees.
 NAtoms=   46 NActive=   46 NUniq=   46 SFac= 1.00D+00 NAtFMM=   60 NAOKFM=F Big=F
 Integral buffers will be    131072 words long.
 Raffenetti 2 integral format.
 Two-electron integral symmetry is turned on.
 One-electron integrals computed using PRISM.
 NBasis=   756 RedAO= T EigKep=  1.17D-06  NBF=   756
 NBsUse=   736 1.00D-06 EigRej=  9.44D-07 NBFU=   736
 ExpMin= 4.38D-02 ExpMax= 4.56D+03 ExpMxC= 6.82D+02 IAcc=2 IRadAn=         4 AccDes= 0.00D+00
 Harris functional with IExCor=  402 and IRadAn=       4 diagonalized for initial guess.
 HarFok:  IExCor=  402 AccDes= 0.00D+00 IRadAn=         4 IDoV= 1 UseB2=F ITyADJ=14
 ICtDFT=  3500011 ScaDFX=  1.000000  1.000000  1.000000  1.000000
 FoFCou: FMM=F IPFlag=           0 FMFlag=      100000 FMFlg1=           0
         NFxFlg=           0 DoJE=T BraDBF=F KetDBF=T FulRan=T
         wScrn=  0.000000 ICntrl=       500 IOpCl=  0 I1Cent=   200000004 NGrid=           0
         NMat0=    1 NMatS0=      1 NMatT0=    0 NMatD0=    1 NMtDS0=    0 NMtDT0=    0
 Petite list used in FoFCou.
 Requested convergence on RMS density matrix=1.00D-08 within 128 cycles.
 Requested convergence on MAX density matrix=1.00D-06.
 Requested convergence on             energy=1.00D-06.
 No special actions if energy rises.
 SCF Done:  E(RB3LYP) =  -1152.99288317     A.U. after   17 cycles
            NFock= 17  Conv=0.56D-08     -V/T= 2.0044
 DoSCS=F DFT=T ScalE2(SS,OS)=  1.000000  1.000000
 Range of M.O.s used for correlation:     1   736
 NBasis=   756 NAE=    98 NBE=    98 NFC=     0 NFV=     0
 NROrb=    736 NOA=    98 NOB=    98 NVA=   638 NVB=   638

 **** Warning!!: The largest alpha MO coefficient is  0.13298404D+03

 Symmetrizing basis deriv contribution to polar:
 IMax=3 JMax=2 DiffMx= 0.00D+00
 G2DrvN: will do    47 centers at a time, making    1 passes.
 Calling FoFCou, ICntrl=  3107 FMM=F I1Cent=   0 AccDes= 0.00D+00.
 End of G2Drv F.D. properties file   721 does not exist.
 End of G2Drv F.D. properties file   722 does not exist.
 End of G2Drv F.D. properties file   788 does not exist.
          IDoAtm=1111111111111111111111111111111111111111111111
          Differentiating once with respect to nuclear coordinates.
 CalDSu exits because no D1Ps are significant.
          There are   141 degrees of freedom in the 1st order CPHF.  IDoFFX=6 NUNeed=     0.
    136 vectors produced by pass  0 Test12= 6.25D-14 1.00D-09 XBig12= 3.37D-01 1.13D-01.
 AX will form   136 AO Fock derivatives at one time.
    135 vectors produced by pass  1 Test12= 6.25D-14 1.00D-09 XBig12= 5.05D-02 4.55D-02.
    135 vectors produced by pass  2 Test12= 6.25D-14 1.00D-09 XBig12= 7.52D-04 3.57D-03.
    135 vectors produced by pass  3 Test12= 6.25D-14 1.00D-09 XBig12= 4.07D-06 1.54D-04.
    135 vectors produced by pass  4 Test12= 6.25D-14 1.00D-09 XBig12= 1.33D-08 1.12D-05.
    135 vectors produced by pass  5 Test12= 6.25D-14 1.00D-09 XBig12= 7.57D-11 6.83D-07.
    111 vectors produced by pass  6 Test12= 6.25D-14 1.00D-09 XBig12= 1.11D-11 2.49D-07.
     81 vectors produced by pass  7 Test12= 6.25D-14 1.00D-09 XBig12= 2.26D-12 8.09D-08.
     42 vectors produced by pass  8 Test12= 6.25D-14 1.00D-09 XBig12= 1.45D-13 1.78D-08.
      3 vectors produced by pass  9 Test12= 6.25D-14 1.00D-09 XBig12= 9.91D-16 1.71D-09.
      2 vectors produced by pass 10 Test12= 6.25D-14 1.00D-09 XBig12= 5.32D-16 1.30D-09.
      1 vectors produced by pass 11 Test12= 6.25D-14 1.00D-09 XBig12= 6.22D-16 1.46D-09.
 InvSVY:  IOpt=1 It=  1 EMax= 1.05D-15
 Solved reduced A of dimension  1051 with   141 vectors.
 End of Minotr F.D. properties file   721 does not exist.
 End of Minotr F.D. properties file   722 does not exist.
 End of Minotr F.D. properties file   788 does not exist.

 **********************************************************************

            Population analysis using the SCF Density.

 **********************************************************************

 Orbital symmetries:
       Occupied  (A) (A) (A) (A) (A) (A) (A) (A) (A) (A) (A) (A)
                 (A) (A) (A) (A) (A) (A) (A) (A) (A) (A) (A) (A)
                 (A) (A) (A) (A) (A) (A) (A) (A) (A) (A) (A) (A)
                 (A) (A) (A) (A) (A) (A) (A) (A) (A) (A) (A) (A)
                 (A) (A) (A) (A) (A) (A) (A) (A) (A) (A) (A) (A)
                 (A) (A) (A) (A) (A) (A) (A) (A) (A) (A) (A) (A)
                 (A) (A) (A) (A) (A) (A) (A) (A) (A) (A) (A) (A)
                 (A) (A) (A) (A) (A) (A) (A) (A) (A) (A) (A) (A)
                 (A) (A)
       Virtual   (A) (A) (A) (A) (A) (A) (A) (A) (A) (A) (A) (A)
                 (A) (A) (A) (A) (A) (A) (A) (A) (A) (A) (A) (A)
                 (A) (A) (A) (A) (A) (A) (A) (A) (A) (A) (A) (A)
                 (A) (A) (A) (A) (A) (A) (A) (A) (A) (A) (A) (A)
                 (A) (A) (A) (A) (A) (A) (A) (A) (A) (A) (A) (A)
                 (A) (A) (A) (A) (A) (A) (A) (A) (A) (A) (A) (A)
                 (A) (A) (A) (A) (A) (A) (A) (A) (A) (A) (A) (A)
                 (A) (A) (A) (A) (A) (A) (A) (A) (A) (A) (A) (A)
                 (A) (A) (A) (A) (A) (A) (A) (A) (A) (A) (A) (A)
                 (A) (A) (A) (A) (A) (A) (A) (A) (A) (A) (A) (A)
                 (A) (A) (A) (A) (A) (A) (A) (A) (A) (A) (A) (A)
                 (A) (A) (A) (A) (A) (A) (A) (A) (A) (A) (A) (A)
                 (A) (A) (A) (A) (A) (A) (A) (A) (A) (A) (A) (A)
                 (A) (A) (A) (A) (A) (A) (A) (A) (A) (A) (A) (A)
                 (A) (A) (A) (A) (A) (A) (A) (A) (A) (A) (A) (A)
                 (A) (A) (A) (A) (A) (A) (A) (A) (A) (A) (A) (A)
                 (A) (A) (A) (A) (A) (A) (A) (A) (A) (A) (A) (A)
                 (A) (A) (A) (A) (A) (A) (A) (A) (A) (A) (A) (A)
                 (A) (A) (A) (A) (A) (A) (A) (A) (A) (A) (A) (A)
                 (A) (A) (A) (A) (A) (A) (A) (A) (A) (A) (A) (A)
                 (A) (A) (A) (A) (A) (A) (A) (A) (A) (A) (A) (A)
                 (A) (A) (A) (A) (A) (A) (A) (A) (A) (A) (A) (A)
                 (A) (A) (A) (A) (A) (A) (A) (A) (A) (A) (A) (A)
                 (A) (A) (A) (A) (A) (A) (A) (A) (A) (A) (A) (A)
                 (A) (A) (A) (A) (A) (A) (A) (A) (A) (A) (A) (A)
                 (A) (A) (A) (A) (A) (A) (A) (A) (A) (A) (A) (A)
                 (A) (A) (A) (A) (A) (A) (A) (A) (A) (A) (A) (A)
                 (A) (A) (A) (A) (A) (A) (A) (A) (A) (A) (A) (A)
                 (A) (A) (A) (A) (A) (A) (A) (A) (A) (A) (A) (A)
                 (A) (A) (A) (A) (A) (A) (A) (A) (A) (A) (A) (A)
                 (A) (A) (A) (A) (A) (A) (A) (A) (A) (A) (A) (A)
                 (A) (A) (A) (A) (A) (A) (A) (A) (A) (A) (A) (A)
                 (A) (A) (A) (A) (A) (A) (A) (A) (A) (A) (A) (A)
                 (A) (A) (A) (A) (A) (A) (A) (A) (A) (A) (A) (A)
                 (A) (A) (A) (A) (A) (A) (A) (A) (A) (A) (A) (A)
                 (A) (A) (A) (A) (A) (A) (A) (A) (A) (A) (A) (A)
                 (A) (A) (A) (A) (A) (A) (A) (A) (A) (A) (A) (A)
                 (A) (A) (A) (A) (A) (A) (A) (A) (A) (A) (A) (A)
                 (A) (A) (A) (A) (A) (A) (A) (A) (A) (A) (A) (A)
                 (A) (A) (A) (A) (A) (A) (A) (A) (A) (A) (A) (A)
                 (A) (A) (A) (A) (A) (A) (A) (A) (A) (A) (A) (A)
                 (A) (A) (A) (A) (A) (A) (A) (A) (A) (A) (A) (A)
                 (A) (A) (A) (A) (A) (A) (A) (A) (A) (A) (A) (A)
                 (A) (A) (A) (A) (A) (A) (A) (A) (A) (A) (A) (A)
                 (A) (A) (A) (A) (A) (A) (A) (A) (A) (A) (A) (A)
                 (A) (A) (A) (A) (A) (A) (A) (A) (A) (A) (A) (A)
                 (A) (A) (A) (A) (A) (A) (A) (A) (A) (A) (A) (A)
                 (A) (A) (A) (A) (A) (A) (A) (A) (A) (A) (A) (A)
                 (A) (A) (A) (A) (A) (A) (A) (A) (A) (A) (A) (A)
                 (A) (A) (A) (A) (A) (A) (A) (A) (A) (A) (A) (A)
                 (A) (A) (A) (A) (A) (A) (A) (A) (A) (A) (A) (A)
                 (A) (A) (A) (A) (A) (A) (A) (A) (A) (A) (A) (A)
                 (A) (A) (A) (A) (A) (A) (A) (A) (A) (A) (A) (A)
                 (A) (A)
 The electronic state is 1-A.
 Alpha  occ. eigenvalues --  -10.20827 -10.20463 -10.20090 -10.20000 -10.19912
 Alpha  occ. eigenvalues --  -10.19676 -10.19638 -10.19583 -10.19539 -10.19505
 Alpha  occ. eigenvalues --  -10.19375 -10.19276 -10.19210 -10.19114 -10.19038
 Alpha  occ. eigenvalues --  -10.19002 -10.18844 -10.18772 -10.18697 -10.18666
 Alpha  occ. eigenvalues --  -10.17928 -10.17749 -10.17733 -10.17566 -10.17550
 Alpha  occ. eigenvalues --  -10.17424 -10.17356 -10.17081 -10.16915 -10.16489
 Alpha  occ. eigenvalues --   -0.92042  -0.88883  -0.88149  -0.85912  -0.84374
 Alpha  occ. eigenvalues --   -0.82998  -0.81427  -0.79371  -0.78346  -0.77599
 Alpha  occ. eigenvalues --   -0.75687  -0.74502  -0.72813  -0.72271  -0.71400
 Alpha  occ. eigenvalues --   -0.66724  -0.65219  -0.63898  -0.63463  -0.61684
 Alpha  occ. eigenvalues --   -0.60273  -0.59311  -0.58619  -0.57260  -0.55942
 Alpha  occ. eigenvalues --   -0.53013  -0.52380  -0.51442  -0.51035  -0.50078
 Alpha  occ. eigenvalues --   -0.48906  -0.48127  -0.47267  -0.46433  -0.45600
 Alpha  occ. eigenvalues --   -0.44705  -0.44105  -0.43761  -0.43408  -0.42973
 Alpha  occ. eigenvalues --   -0.42600  -0.42053  -0.41339  -0.40694  -0.40482
 Alpha  occ. eigenvalues --   -0.40025  -0.39702  -0.39562  -0.38731  -0.37521
 Alpha  occ. eigenvalues --   -0.36574  -0.36187  -0.35183  -0.34749  -0.34178
 Alpha  occ. eigenvalues --   -0.33757  -0.33122  -0.33021  -0.32481  -0.29793
 Alpha  occ. eigenvalues --   -0.29331  -0.27762  -0.26110  -0.24919  -0.22987
 Alpha  occ. eigenvalues --   -0.22278  -0.20871  -0.20266
 Alpha virt. eigenvalues --   -0.10103  -0.05741  -0.04982  -0.04644  -0.01960
 Alpha virt. eigenvalues --   -0.00260  -0.00079  -0.00024   0.00504   0.00591
 Alpha virt. eigenvalues --    0.01334   0.01469   0.01536   0.02227   0.02654
 Alpha virt. eigenvalues --    0.03100   0.03364   0.03518   0.03799   0.04195
 Alpha virt. eigenvalues --    0.04676   0.05201   0.05377   0.05578   0.05912
 Alpha virt. eigenvalues --    0.06421   0.06690   0.06929   0.07219   0.07461
 Alpha virt. eigenvalues --    0.08072   0.08236   0.08483   0.08761   0.09158
 Alpha virt. eigenvalues --    0.09702   0.09937   0.10231   0.10588   0.10736
 Alpha virt. eigenvalues --    0.11302   0.11366   0.11658   0.12059   0.12597
 Alpha virt. eigenvalues --    0.12891   0.13185   0.13481   0.13906   0.14176
 Alpha virt. eigenvalues --    0.14393   0.14721   0.14948   0.15306   0.15618
 Alpha virt. eigenvalues --    0.15905   0.16065   0.16082   0.16339   0.16423
 Alpha virt. eigenvalues --    0.16870   0.17048   0.17223   0.17361   0.17424
 Alpha virt. eigenvalues --    0.17837   0.18167   0.18366   0.18719   0.19064
 Alpha virt. eigenvalues --    0.19214   0.19401   0.19562   0.19749   0.19946
 Alpha virt. eigenvalues --    0.20138   0.20218   0.20410   0.20550   0.20733
 Alpha virt. eigenvalues --    0.20913   0.21249   0.21473   0.21806   0.21952
 Alpha virt. eigenvalues --    0.22333   0.22469   0.22725   0.22911   0.23017
 Alpha virt. eigenvalues --    0.23191   0.23402   0.23546   0.23722   0.24123
 Alpha virt. eigenvalues --    0.24541   0.24807   0.24864   0.25025   0.25375
 Alpha virt. eigenvalues --    0.25520   0.25592   0.25916   0.26116   0.26450
 Alpha virt. eigenvalues --    0.26560   0.26922   0.27097   0.27400   0.27710
 Alpha virt. eigenvalues --    0.27845   0.28413   0.28614   0.29021   0.29052
 Alpha virt. eigenvalues --    0.29263   0.29465   0.29685   0.30180   0.30277
 Alpha virt. eigenvalues --    0.30505   0.30692   0.31311   0.31555   0.31677
 Alpha virt. eigenvalues --    0.32102   0.32378   0.32584   0.32647   0.33390
 Alpha virt. eigenvalues --    0.33574   0.34003   0.34243   0.34833   0.35289
 Alpha virt. eigenvalues --    0.35635   0.35888   0.36013   0.36805   0.37110
 Alpha virt. eigenvalues --    0.37267   0.38154   0.38807   0.39518   0.39868
 Alpha virt. eigenvalues --    0.40390   0.41260   0.41608   0.42257   0.42575
 Alpha virt. eigenvalues --    0.43169   0.43792   0.44124   0.44950   0.44989
 Alpha virt. eigenvalues --    0.45599   0.47557   0.47711   0.48173   0.48712
 Alpha virt. eigenvalues --    0.48894   0.49765   0.50891   0.50988   0.51636
 Alpha virt. eigenvalues --    0.51942   0.52563   0.53112   0.53403   0.53765
 Alpha virt. eigenvalues --    0.54152   0.54336   0.54840   0.55260   0.55627
 Alpha virt. eigenvalues --    0.55786   0.56487   0.56865   0.56974   0.57465
 Alpha virt. eigenvalues --    0.57855   0.58443   0.58599   0.58752   0.58867
 Alpha virt. eigenvalues --    0.59499   0.59544   0.60001   0.60442   0.60697
 Alpha virt. eigenvalues --    0.61613   0.61828   0.62099   0.62863   0.63367
 Alpha virt. eigenvalues --    0.63604   0.64128   0.64335   0.64855   0.65517
 Alpha virt. eigenvalues --    0.65684   0.66199   0.67137   0.67389   0.67616
 Alpha virt. eigenvalues --    0.68245   0.69225   0.69408   0.69545   0.69971
 Alpha virt. eigenvalues --    0.70102   0.70503   0.70680   0.71165   0.71591
 Alpha virt. eigenvalues --    0.71671   0.72065   0.72171   0.72604   0.72715
 Alpha virt. eigenvalues --    0.73438   0.73757   0.73993   0.74494   0.74613
 Alpha virt. eigenvalues --    0.75257   0.75462   0.75873   0.75987   0.76335
 Alpha virt. eigenvalues --    0.76675   0.77056   0.77622   0.77938   0.78668
 Alpha virt. eigenvalues --    0.78895   0.79711   0.80715   0.81107   0.82012
 Alpha virt. eigenvalues --    0.82385   0.83406   0.83951   0.84357   0.84771
 Alpha virt. eigenvalues --    0.85279   0.86000   0.86495   0.86989   0.87127
 Alpha virt. eigenvalues --    0.87424   0.88051   0.88384   0.89090   0.89811
 Alpha virt. eigenvalues --    0.90265   0.90924   0.91487   0.91584   0.91852
 Alpha virt. eigenvalues --    0.92004   0.92850   0.93011   0.93618   0.94288
 Alpha virt. eigenvalues --    0.94700   0.95263   0.95685   0.96213   0.96296
 Alpha virt. eigenvalues --    0.96787   0.97125   0.97477   0.97895   0.98146
 Alpha virt. eigenvalues --    0.98968   0.99513   0.99730   1.00021   1.00910
 Alpha virt. eigenvalues --    1.01527   1.01771   1.02257   1.02812   1.03632
 Alpha virt. eigenvalues --    1.03970   1.04807   1.05510   1.05992   1.06522
 Alpha virt. eigenvalues --    1.07247   1.07397   1.07931   1.09428   1.09771
 Alpha virt. eigenvalues --    1.10024   1.11258   1.12113   1.12593   1.12702
 Alpha virt. eigenvalues --    1.14695   1.15290   1.16007   1.16159   1.16498
 Alpha virt. eigenvalues --    1.17519   1.17949   1.18586   1.20027   1.21957
 Alpha virt. eigenvalues --    1.22339   1.22962   1.24338   1.25377   1.26137
 Alpha virt. eigenvalues --    1.27530   1.28975   1.29619   1.31925   1.33352
 Alpha virt. eigenvalues --    1.34205   1.34912   1.35984   1.37188   1.37865
 Alpha virt. eigenvalues --    1.39505   1.40365   1.42425   1.43397   1.44087
 Alpha virt. eigenvalues --    1.46091   1.46627   1.47125   1.47503   1.48174
 Alpha virt. eigenvalues --    1.48582   1.48806   1.49526   1.50475   1.50798
 Alpha virt. eigenvalues --    1.50963   1.51628   1.52332   1.53167   1.53558
 Alpha virt. eigenvalues --    1.54207   1.55054   1.55497   1.56645   1.57173
 Alpha virt. eigenvalues --    1.57556   1.58413   1.58734   1.59135   1.60010
 Alpha virt. eigenvalues --    1.60501   1.61879   1.62317   1.63102   1.63707
 Alpha virt. eigenvalues --    1.63791   1.64699   1.65664   1.66161   1.67608
 Alpha virt. eigenvalues --    1.68143   1.68505   1.68997   1.70237   1.70622
 Alpha virt. eigenvalues --    1.72409   1.72581   1.73333   1.73777   1.74011
 Alpha virt. eigenvalues --    1.74463   1.74930   1.75904   1.76241   1.76468
 Alpha virt. eigenvalues --    1.77072   1.77634   1.79080   1.79796   1.80380
 Alpha virt. eigenvalues --    1.81258   1.81821   1.83344   1.83902   1.84857
 Alpha virt. eigenvalues --    1.85100   1.85864   1.86214   1.86918   1.87358
 Alpha virt. eigenvalues --    1.88392   1.88974   1.89334   1.89599   1.89828
 Alpha virt. eigenvalues --    1.90590   1.91848   1.92349   1.92627   1.92991
 Alpha virt. eigenvalues --    1.93675   1.94193   1.95015   1.95053   1.95489
 Alpha virt. eigenvalues --    1.96244   1.97157   1.98105   1.98926   1.99410
 Alpha virt. eigenvalues --    1.99837   2.00155   2.00998   2.02863   2.02998
 Alpha virt. eigenvalues --    2.03877   2.04291   2.05171   2.05711   2.06450
 Alpha virt. eigenvalues --    2.06886   2.07453   2.08254   2.09639   2.10413
 Alpha virt. eigenvalues --    2.11659   2.12106   2.13520   2.13990   2.15156
 Alpha virt. eigenvalues --    2.15808   2.16107   2.17602   2.18315   2.19538
 Alpha virt. eigenvalues --    2.20215   2.21525   2.21734   2.22750   2.23576
 Alpha virt. eigenvalues --    2.24365   2.24800   2.26375   2.27451   2.27774
 Alpha virt. eigenvalues --    2.30457   2.32030   2.33760   2.34476   2.36869
 Alpha virt. eigenvalues --    2.38087   2.39211   2.39568   2.40639   2.41058
 Alpha virt. eigenvalues --    2.42237   2.42910   2.43587   2.45236   2.45570
 Alpha virt. eigenvalues --    2.46458   2.46928   2.47978   2.51092   2.52411
 Alpha virt. eigenvalues --    2.53226   2.54439   2.55341   2.56370   2.58146
 Alpha virt. eigenvalues --    2.59018   2.60764   2.61677   2.63753   2.64660
 Alpha virt. eigenvalues --    2.66632   2.67529   2.68154   2.69485   2.69842
 Alpha virt. eigenvalues --    2.70133   2.71040   2.71744   2.72100   2.72367
 Alpha virt. eigenvalues --    2.72834   2.73105   2.73412   2.73811   2.74166
 Alpha virt. eigenvalues --    2.75086   2.75626   2.75985   2.76078   2.76643
 Alpha virt. eigenvalues --    2.76667   2.77492   2.78026   2.78329   2.78364
 Alpha virt. eigenvalues --    2.79159   2.79623   2.80243   2.80636   2.82119
 Alpha virt. eigenvalues --    2.83489   2.83578   2.84951   2.85081   2.86172
 Alpha virt. eigenvalues --    2.86622   2.87389   2.88656   2.89126   2.89339
 Alpha virt. eigenvalues --    2.90831   2.91869   2.92084   2.93080   2.93418
 Alpha virt. eigenvalues --    2.94624   2.95735   2.97873   2.99658   3.00003
 Alpha virt. eigenvalues --    3.01636   3.02967   3.03805   3.05551   3.06710
 Alpha virt. eigenvalues --    3.08117   3.10860   3.11925   3.13526   3.14344
 Alpha virt. eigenvalues --    3.15773   3.16746   3.18160   3.20235   3.20723
 Alpha virt. eigenvalues --    3.21967   3.23228   3.23902   3.24847   3.25150
 Alpha virt. eigenvalues --    3.27526   3.30411   3.31884   3.33092   3.35466
 Alpha virt. eigenvalues --    3.35587   3.37495   3.38054   3.38437   3.40539
 Alpha virt. eigenvalues --    3.43368   3.43811   3.44646   3.46785   3.47492
 Alpha virt. eigenvalues --    3.48341   3.49707   3.52007   3.53833   3.54780
 Alpha virt. eigenvalues --    3.56213   3.57047   3.57870   3.61602   3.62798
 Alpha virt. eigenvalues --    3.64135   3.64698   3.68731   3.71131   3.77162
 Alpha virt. eigenvalues --    3.81462   3.83150   3.85270   3.90204   3.93182
 Alpha virt. eigenvalues --    4.03549   4.04406   4.06384   4.06540   4.07206
 Alpha virt. eigenvalues --    4.08585   4.10501   4.16306   4.19274   4.22010
 Alpha virt. eigenvalues --    4.24996   4.29061   4.34327   4.48166   4.61728
 Alpha virt. eigenvalues --    4.72298   4.75432   4.76845   4.77458   4.81317
 Alpha virt. eigenvalues --    4.83148   4.84733   4.87706  23.42344  23.61155
 Alpha virt. eigenvalues --   23.67896  23.77964  23.82474  23.84443  23.85535
 Alpha virt. eigenvalues --   23.86981  23.89544  23.90674  23.93962  23.96332
 Alpha virt. eigenvalues --   23.97513  23.98535  23.99406  24.00999  24.03399
 Alpha virt. eigenvalues --   24.04643  24.05765  24.07542  24.10152  24.11144
 Alpha virt. eigenvalues --   24.11469  24.12868  24.13155  24.13954  24.18491
 Alpha virt. eigenvalues --   24.19668  24.19923  24.22302
          Condensed to atoms (all electrons):
               1          2          3          4          5          6
     1  C   15.656906   1.095463  -1.412826  -0.617544  -0.139788  -2.335525
     2  C    1.095463   9.249543   1.662857  -0.039707   0.738559  -1.439402
     3  C   -1.412826   1.662857  11.400981   0.401860  -0.703538  -1.982761
     4  C   -0.617544  -0.039707   0.401860   7.804299  -0.302528   0.614608
     5  C   -0.139788   0.738559  -0.703538  -0.302528   9.946201   1.990288
     6  C   -2.335525  -1.439402  -1.982761   0.614608   1.990288  14.257995
     7  C   -0.721333  -0.041384  -0.770002  -0.136187   0.710503   0.636998
     8  C   -0.601057  -0.639349   0.428268  -0.007466  -1.271757  -0.398129
     9  C   -0.504257  -0.178409   0.156580   0.016097  -0.254695  -0.095920
    10  C   -0.408674  -1.348096  -0.178387  -0.056768  -1.684752  -0.745036
    11  C   -0.101545  -0.351919   0.544866   0.734599  -0.482046  -0.227766
    12  C   -0.656751  -0.099445  -1.593805   0.804239  -0.329982   0.230013
    13  C    0.052561  -0.125342  -0.409149   0.454312  -0.649562  -0.045619
    14  C   -0.371362   0.022433  -0.155096  -0.884424   0.497324   0.032674
    15  C    0.016778  -0.050697   0.036378  -0.414412  -1.004200  -0.265462
    16  C   -0.467695   0.034589  -0.365972  -0.517774   1.660960  -0.059441
    17  C   -0.065194  -0.078953   0.132632   0.239234  -1.508532  -0.252841
    18  C   -0.074313   0.017088  -0.119652  -0.088169   0.318827   0.073735
    19  C    0.042653  -0.103244   0.060911   0.571767   0.085617   0.496981
    20  C    0.031626  -0.003999   0.061086  -0.091569   0.181268   0.062281
    21  C   -0.104979  -0.043633  -0.033707   0.112637  -0.695982   0.201719
    22  C   -0.015922   0.000940   0.001720  -0.098160   0.122871   0.003181
    23  C   -0.948005   0.746858   0.057769  -1.584828  -1.068737  -4.930464
    24  C   -1.359380  -2.911791  -1.020942  -0.711887  -1.067142   0.010751
    25  C   -1.171108  -0.588877  -0.609951  -0.216823   0.053888   0.739803
    26  C    0.285449  -0.089915   0.069992   0.390630   0.019543  -0.569619
    27  C    0.323423   0.106336   0.091407  -0.440605   0.825400  -0.232028
    28  C    0.090853   0.011955   0.069964  -0.172865  -0.115543   0.188785
    29  C    0.035202   0.002285   0.004745  -0.036526   0.041329  -0.007066
    30  C    0.047634   0.009983   0.008141  -0.006048   0.086414  -0.148272
    31  H    0.002751  -0.001120  -0.010889  -0.001966  -0.001368  -0.000721
    32  H    0.000309   0.000842   0.010118  -0.009596   0.001218  -0.000308
    33  H    0.000008   0.000168   0.000990  -0.002223   0.004618   0.000028
    34  H    0.000143  -0.000032   0.000221   0.004294  -0.003784  -0.000160
    35  H    0.022213   0.068979  -0.100391   0.020463  -0.006397   0.005780
    36  H   -0.089614   0.364434  -0.024700   0.027658  -0.019655  -0.020818
    37  H   -0.110237   0.102804   0.055015   0.003038  -0.016681  -0.041223
    38  H    0.023264  -0.005319   0.001162   0.002627   0.005147   0.029163
    39  H   -0.021960  -0.006338  -0.004008   0.004327  -0.003884   0.050589
    40  H   -0.024973  -0.002518  -0.012692   0.004882  -0.027484  -0.010531
    41  H   -0.000010   0.000366  -0.000030  -0.000377   0.000465  -0.008609
    42  H    0.000005   0.000005   0.000009  -0.000046   0.000259   0.000392
    43  H   -0.000028  -0.000002  -0.000004   0.000046  -0.000706   0.000156
    44  H    0.000018  -0.000001   0.000005   0.000087   0.000079   0.000490
    45  H   -0.000024  -0.000004   0.000010  -0.000099  -0.001260  -0.000444
    46  H    0.038933   0.019051   0.007581  -0.012278   0.006242  -0.004952
               7          8          9         10         11         12
     1  C   -0.721333  -0.601057  -0.504257  -0.408674  -0.101545  -0.656751
     2  C   -0.041384  -0.639349  -0.178409  -1.348096  -0.351919  -0.099445
     3  C   -0.770002   0.428268   0.156580  -0.178387   0.544866  -1.593805
     4  C   -0.136187  -0.007466   0.016097  -0.056768   0.734599   0.804239
     5  C    0.710503  -1.271757  -0.254695  -1.684752  -0.482046  -0.329982
     6  C    0.636998  -0.398129  -0.095920  -0.745036  -0.227766   0.230013
     7  C    8.538140  -1.063307  -0.507901  -0.606137  -0.075393   0.331797
     8  C   -1.063307   8.279122   0.341899   1.233881   1.584133  -1.454498
     9  C   -0.507901   0.341899   8.421388  -0.815246  -0.171430  -0.757818
    10  C   -0.606137   1.233881  -0.815246  11.397574  -0.525959   1.256720
    11  C   -0.075393   1.584133  -0.171430  -0.525959  12.350386  -2.521024
    12  C    0.331797  -1.454498  -0.757818   1.256720  -2.521024  11.198508
    13  C    0.155364  -0.038302   0.880883  -0.031011   0.227403   0.542615
    14  C   -0.274646  -0.787655   1.485858  -0.873350  -2.930868   0.084420
    15  C   -1.492547   1.608582   0.259255   0.166313  -0.353503  -0.897235
    16  C    1.477574  -0.695508  -0.416029  -0.245128  -0.448874   0.018588
    17  C   -0.583350   0.672565   0.598250  -0.086302  -0.383125  -0.333099
    18  C    0.877248  -0.762999   0.391316  -0.099933  -0.429415   0.197093
[...]
 1,-0.00000640,0.00003262,0.00000196,0.00000860,-0.00000026,-0.00000278
 ,-0.00001074,0.00001088,0.00000462,0.00000791,-0.00004193,0.00023905,0
 .00056841,0.00046495,0.00198252,-0.00005683,-0.00042219,-0.28146820,-0
 .08146364,-0.06811739,0.00103150,0.00112545,0.00054832,-0.00000651,0.0
 0000149,-0.00000004,-0.00000488,0.00000193,-0.00000056,-0.00000293,0.0
 0000966,0.00000128,-0.00001487,0.00002984,0.00000174,-0.00000462,-0.00
 000284,-0.00000063,-0.00000338,-0.00000352,0.00000052,-0.00000290,-0.0
 0000329,-0.00000249,-0.00000090,-0.00000833,-0.00000261,0.00000122,-0.
 00000810,0.00000390,-0.00005765,-0.00011215,-0.00001151,-0.00010243,0.
 00012534,0.00004062,0.00074339,-0.00050215,0.00009835,0.29864386,0.000
 00627,0.00001433,0.00000534,-0.00000114,0.00000219,0.00000286,0.000004
 02,-0.00000085,0.00000150,-0.00001046,0.00000421,0.00000259,-0.0000012
 0,0.00001484,-0.00000133,0.00000931,-0.00000134,-0.00000805,0.00006011
 ,-0.00024061,-0.00013642,0.00000459,-0.00003058,0.00002801,0.00007954,
 0.00000541,0.00000401,-0.00000278,0.00000180,0.00000140,0.00000162,0.0
 0000518,0.00000363,0.00000464,-0.00000297,-0.00000475,0.00002255,0.000
 02965,0.00001770,-0.00000139,0.00000049,0.00000200,-0.00000606,-0.0000
 0507,-0.00000282,0.00081300,0.00055673,0.00005835,0.00017499,0.0001433
 4,0.00003514,-0.00009004,-0.00001559,-0.00002197,0.00314973,0.00003010
 ,-0.00278020,-0.00030750,0.00009655,0.00001096,0.01415294,0.00823623,0
 .00435676,0.00140952,0.00017857,0.00226342,-0.00003021,-0.00000217,0.0
 0008785,0.00000717,-0.00000589,0.00000511,-0.00000539,-0.00000105,-0.0
 0000894,0.00001325,0.00005075,-0.00004487,0.00065371,-0.00135953,-0.00
 013509,0.00067622,-0.00214851,-0.00571122,-0.08156428,-0.08421765,-0.0
 3491273,-0.02572911,-0.00398520,-0.00628414,-0.00000111,0.00000146,-0.
 00000160,-0.00000224,0.00000065,-0.00000076,0.00000176,0.00000066,0.00
 000052,0.00001212,-0.00000763,-0.00000729,-0.00000126,-0.00000116,-0.0
 0000134,-0.00000109,-0.00000153,-0.00000314,-0.00000088,-0.00000055,-0
 .00000142,-0.00000085,-0.00000474,-0.00000382,-0.00000384,-0.00000515,
 0.00000842,-0.00009156,-0.00019141,0.00041551,-0.00128117,-0.00022310,
 -0.00061551,0.00013964,-0.00041123,0.00237770,0.08805212,0.08355518,-0
 .00002571,-0.00000177,-0.00000753,0.00000938,-0.00000935,0.00000289,0.
 00000562,0.00001291,0.00000169,-0.00001314,-0.00000572,-0.00001247,-0.
 00000463,-0.00002401,0.00001660,-0.00000408,0.00002106,-0.00000064,0.0
 0001923,-0.00004126,0.00006354,0.00000292,-0.00000197,-0.00003288,0.00
 003128,0.00000044,-0.00001751,0.00000163,-0.00000328,-0.00000436,0.000
 00150,-0.00001074,0.00000185,0.00000225,0.00000130,0.00000796,0.000035
 36,0.00001569,-0.00000956,0.00000697,0.00000963,-0.00000177,-0.0000136
 5,-0.00000400,-0.00000322,0.00036631,-0.00001470,0.00022327,0.00006864
 ,0.00005710,0.00007827,-0.00006302,-0.00000761,0.00001359,0.00015697,-
 0.00356730,0.00361974,-0.00016786,0.00013941,-0.00007845,0.00850406,0.
 00174905,0.00435863,0.00086817,0.00144638,-0.00252193,0.00001489,-0.00
 002569,-0.00002472,0.00000199,-0.00000652,0.00000244,-0.00000238,0.000
 01037,-0.00001162,0.00001130,0.00002376,0.00001059,0.00005050,0.000909
 35,-0.00030596,0.00077431,-0.00584640,0.00412050,-0.06828143,-0.032971
 87,-0.05893848,-0.01595127,-0.00566690,-0.00128993,-0.00000155,0.00000
 102,0.00000167,-0.00000226,0.00000091,0.00000170,-0.00000023,0.0000023
 3,0.00000024,0.00000134,-0.00000126,0.00001131,-0.00000128,-0.00000094
 ,0.00000115,-0.00000165,-0.00000142,-0.00000089,-0.00000275,0.00000014
 ,0.00000021,-0.00000095,-0.00000174,0.00000191,0.00000252,0.00000591,-
 0.00000153,0.00001952,0.00050387,-0.00066722,-0.00065928,-0.00030194,-
 0.00002538,0.00057626,0.00240873,-0.00304513,0.07395284,0.04133605,0.0
 5412863,-0.00001340,-0.00000277,-0.00000085,-0.00000471,-0.00001277,-0
 .00000086,0.00000721,-0.00000693,-0.00000438,-0.00007056,0.00000452,-0
 .00000306,0.00007337,0.00008199,0.00001155,0.00001880,-0.00001452,0.00
 001250,-0.00001953,-0.00010785,0.00011525,0.00000764,-0.00002596,0.000
 00323,0.00005664,0.00002784,-0.00001978,-0.00000641,-0.00000026,0.0000
 0056,-0.00001267,0.00007305,0.00000112,0.00001149,-0.00000873,0.000000
 32,-0.00035750,0.00034418,0.00012133,-0.00009407,-0.00000225,-0.000018
 56,0.00001697,-0.00013174,-0.00001826,0.00028131,0.00018377,0.00009718
 ,-0.00061487,0.00428109,-0.00037954,-0.00075876,-0.00082681,-0.0003127
 3,0.00135030,0.00018950,-0.00041938,-0.01893356,-0.01015579,-0.0071037
 0,-0.00131970,0.00060417,-0.00018964,-0.28691257,-0.07717750,-0.067949
 90,-0.00005973,0.00001566,0.00004055,0.00000361,0.00001237,0.00000107,
 -0.00000140,-0.00001188,0.00000562,0.00001809,0.00000138,-0.00004750,-
 0.00032620,0.00023517,0.00010223,0.00027945,0.00002276,0.00007732,0.00
 072444,0.00126268,0.00103875,0.00007963,-0.00037618,-0.00017685,-0.000
 00738,0.00000250,-0.00000037,-0.00002003,-0.00000429,-0.00000205,0.000
 00034,0.00001486,0.00000328,0.00001198,0.00006002,-0.00002221,-0.00000
 550,-0.00000424,0.00000062,-0.00000376,-0.00000500,-0.00000047,-0.0000
 0400,-0.00000368,-0.00000227,-0.00000043,-0.00000893,-0.00000163,0.000
 00051,-0.00000616,0.00000787,0.00001676,-0.00007129,-0.00002740,0.0000
 2574,-0.00000776,-0.00001691,0.00000674,-0.00002945,-0.00004374,0.0004
 7170,-0.00033542,-0.00024340,0.30531970,0.00001506,0.00001502,-0.00000
 597,-0.00001530,-0.00000616,0.00000264,-0.00000937,0.00000616,-0.00001
 062,-0.00000303,0.00002733,-0.00000086,0.00003887,0.00003281,0.0000049
 4,-0.00001360,0.00001335,-0.00000150,-0.00028058,0.00014434,0.00022750
 ,-0.00008691,-0.00003484,-0.00000172,0.00009818,-0.00023053,-0.0000980
 3,0.00002608,-0.00002243,0.00000346,0.00000444,-0.00008583,-0.00000182
 ,0.00000195,0.00003574,0.00000312,0.00033376,-0.00017204,0.00034690,0.
 00007172,0.00005093,-0.00000845,-0.00002769,0.00008688,0.00005620,0.00
 066760,-0.00048382,-0.00003178,0.00313050,-0.00170930,-0.00330049,0.00
 031671,0.00070060,0.00010307,0.00120222,-0.00372116,-0.00334625,0.0198
 4769,0.00984727,0.00492039,-0.02646293,-0.00530105,-0.00645050,-0.0783
 2708,-0.08183002,-0.02983666,-0.00000352,-0.00003763,0.00005391,0.0000
 0286,-0.00000978,0.00000419,-0.00000850,-0.00000413,-0.00000391,-0.000
 00963,0.00002983,-0.00001693,-0.00162635,0.00000360,-0.00009681,0.0000
 8234,0.00006526,0.00006176,-0.00186062,0.00089665,0.00119117,0.0003034
 1,-0.00004055,0.00005238,0.00000085,0.00000056,-0.00000061,0.00001333,
 0.00000641,-0.00000748,-0.00000299,-0.00000386,0.00000035,0.00000346,-
 0.00001541,-0.00010875,-0.00000134,0.00000090,0.00000216,-0.00000086,0
 .00000026,-0.00000059,-0.00000019,-0.00000046,-0.00000090,-0.00000145,
 -0.00000401,-0.00000370,-0.00000028,-0.00000343,0.00000212,-0.00000510
 ,-0.00037994,-0.00030894,0.00008108,0.00000399,-0.00000316,0.00001060,
 -0.00001164,-0.00001948,0.00109449,-0.00010022,-0.00012011,0.08198581,
 0.08198184,0.00001993,0.00001556,0.00000225,-0.00000779,0.00001542,-0.
 00000636,-0.00000555,-0.00003287,0.00003104,0.00003585,0.00000802,0.00
 000517,0.00002359,-0.00003680,-0.00000086,-0.00001542,-0.00001642,0.00
 000899,0.00016962,0.00010643,-0.00040385,0.00004445,0.00002310,-0.0000
 4026,-0.00010041,0.00011113,0.00017815,0.00000581,0.00002109,-0.000004
 64,-0.00001002,0.00006762,-0.00000038,-0.00000711,-0.00000849,-0.00000
 076,-0.00001027,0.00009358,-0.00083351,-0.00004489,-0.00005072,0.00004
 758,0.00008291,0.00000706,-0.00007326,0.00013592,-0.00016270,-0.000546
 42,-0.00035828,-0.00220415,0.00872371,0.00036906,0.00000630,0.00027528
 ,0.00108086,-0.00348598,0.00201376,0.00258224,0.00051775,0.00507039,-0
 .01128610,-0.00330215,-0.00020910,-0.06731936,-0.02940789,-0.05751770,
 -0.00000202,-0.00002280,-0.00000666,0.00000205,-0.00000759,0.00000047,
 -0.00000581,0.00000188,-0.00000251,-0.00000793,0.00001411,0.00000802,-
 0.00072464,0.00015172,0.00019495,0.00006276,-0.00003968,0.00000518,-0.
 00056037,0.00126064,-0.00124990,0.00022194,0.00009914,-0.00010074,0.00
 000024,0.00000078,0.00000229,-0.00000199,-0.00000376,0.00001662,0.0000
 0096,0.00000153,-0.00000462,-0.00003933,-0.00005860,0.00025216,0.00000
 029,-0.00000015,-0.00000653,-0.00000190,0.00000112,0.00000236,-0.00000
 111,-0.00000021,-0.00000045,-0.00000149,-0.00000205,-0.00000017,0.0000
 0180,0.00000297,-0.00000091,-0.00000792,-0.00010149,-0.00015217,0.0000
 3490,-0.00002108,0.00003407,-0.00000353,-0.00005740,0.00003796,0.00048
 375,-0.00021882,0.00018002,0.07433219,0.03474199,0.04899740,-0.0000050
 0,-0.00002999,0.00000078,0.00001929,-0.00000979,0.00000143,-0.00003030
 ,0.00004231,-0.00002095,-0.00003890,-0.00017719,0.00000432,-0.00027745
 ,0.00005336,0.00008470,-0.00002613,0.00002042,0.00000131,0.00027606,-0
 .00138649,-0.00009743,0.00006099,0.00015923,0.00002310,0.00001580,-0.0
 0004113,-0.00003244,-0.00001730,-0.00002114,-0.00000105,-0.00005684,0.
 00000652,-0.00001875,0.00000948,0.00001315,0.00000423,0.00001488,0.000
 33555,0.00013645,-0.00001388,-0.00005002,-0.00000396,0.00002643,-0.000
 02072,-0.00002954,-0.00492243,0.00050222,-0.00130042,-0.00189537,-0.02
 675315,-0.00944393,0.00092018,-0.00217278,-0.00007548,-0.00033724,0.00
 013953,0.00007967,-0.05993101,-0.03141586,-0.01528659,-0.00365923,0.00
 254596,-0.00133548,0.00661714,0.02548071,0.00887562,-0.00000706,0.0000
 2453,-0.00002250,-0.00001020,0.00000606,-0.00000325,0.00000187,-0.0000
 0520,0.00000591,0.00000745,-0.00001997,-0.00000156,0.00014650,-0.00006
 674,0.00014246,0.00001083,-0.00000112,-0.00005678,0.00063556,0.0007907
 8,0.00049821,-0.00031536,0.00005624,0.00019158,-0.00000414,-0.00000126
 ,-0.00000064,0.00000283,0.00000492,0.00000416,-0.00002315,0.00001204,-
 0.00000716,-0.00043274,0.00090243,0.00004355,-0.00000390,0.00000189,-0
 .00000023,-0.00000087,-0.00000201,0.00000132,0.00000004,-0.00000397,0.
 00000018,0.00000069,0.00000038,0.00000199,0.00000004,-0.00000455,0.000
 00056,0.00000720,0.00004850,0.00003652,0.00001546,0.00000932,-0.000004
 73,0.00000119,0.00010423,0.00006817,-0.00003960,0.00000122,-0.00005464
 ,0.00075762,-0.00059646,0.00082535,0.06250790,0.00000118,-0.00000748,0
 .00000555,0.00000913,0.00000258,0.00000007,-0.00001014,0.00001110,0.00
 000593,0.00000437,-0.00008487,0.00001261,-0.00005078,0.00004941,-0.000
 03095,-0.00000171,-0.00001342,0.00000793,0.00045734,-0.00048749,-0.000
 07161,0.00007900,0.00012735,-0.00001679,0.00004451,0.00030874,0.000056
 04,-0.00003323,0.00000655,-0.00000247,-0.00005412,0.00011786,-0.000000
 05,0.00001082,-0.00002733,0.00000094,-0.00061178,0.00017909,0.00005559
 ,-0.00011271,-0.00011701,-0.00002821,0.00015390,-0.00009769,-0.0000225
 6,-0.00167081,0.00183423,-0.00084250,-0.00014133,-0.00717671,-0.003033
 26,0.00214789,0.00033928,0.00119987,0.00040353,0.00009175,0.00036305,-
 0.03040448,-0.29686256,-0.09000266,0.00413921,0.00105121,-0.00195481,-
 0.00510576,-0.01427719,-0.00718495,-0.00005411,0.00000274,0.00004572,0
 .00000015,0.00000837,0.00000090,-0.00000109,-0.00001221,0.00000092,0.0
 0000907,0.00000752,-0.00003212,-0.00012355,0.00008666,0.00020250,0.000
 21406,0.00005660,0.00000208,-0.00076940,-0.00054061,-0.00047576,0.0003
 0549,-0.00038271,0.00000737,-0.00000833,0.00000119,-0.00000144,-0.0000
 1288,0.00000051,0.00000346,-0.00000498,0.00001974,-0.00000103,-0.00030
 766,0.00073260,-0.00002811,-0.00000464,-0.00000288,-0.00000114,-0.0000
 0395,-0.00000398,-0.00000271,-0.00000350,-0.00000399,-0.00000139,-0.00
 000029,-0.00000782,-0.00000210,0.00000137,-0.00000440,0.00000628,-0.00
 001681,-0.00001300,-0.00001132,0.00000170,-0.00001369,-0.00002252,-0.0
 0001401,-0.00010802,-0.00004944,0.00004937,0.00003551,-0.00002019,-0.0
 0004860,0.00024201,0.00195886,0.03152813,0.31493767,-0.00000854,-0.000
 00889,-0.00001685,0.00000106,-0.00001422,0.00000029,0.00001116,0.00002
 354,-0.00001683,-0.00006411,-0.00004340,-0.00002791,-0.00002472,0.0001
 2475,0.00013496,-0.00001547,-0.00000823,-0.00000510,-0.00011031,-0.000
 50508,0.00009806,-0.00003055,0.00003004,0.00003164,0.00012818,-0.00014
 105,-0.00002199,-0.00000751,-0.00000838,-0.00000197,-0.00000780,-0.000
 01756,-0.00001468,0.00000327,0.00000573,0.00000397,0.00010021,0.000306
 37,-0.00002706,-0.00000004,0.00001878,0.00000613,-0.00003975,-0.000025
 74,0.00003357,-0.00077262,-0.00183067,0.00255972,0.00204820,-0.0060304
 1,0.00072705,0.00067152,0.00024031,-0.00165470,-0.00111086,0.00084352,
 -0.00036008,-0.01754583,-0.08963730,-0.06802760,-0.00140811,-0.0022119
 8,0.00867007,0.00028238,-0.00348042,0.00354506,0.00000486,0.00001207,-
 0.00001450,-0.00000219,0.00000014,-0.00000057,-0.00000799,0.00000039,0
 .00000851,0.00001115,-0.00000365,-0.00001259,0.00025337,-0.00010743,-0
 .00075645,-0.00053030,-0.00002891,0.00010489,0.00044555,-0.00037483,0.
 00006881,0.00027162,0.00077462,-0.00032996,-0.00000509,0.00000085,0.00
 000267,-0.00000191,0.00000378,-0.00000675,-0.00001501,0.00001006,0.000
 01717,-0.00029298,0.00029698,0.00031403,-0.00000378,-0.00000075,-0.000
 00163,-0.00000368,-0.00000193,0.00000747,-0.00000239,-0.00000342,-0.00
 000290,-0.00000073,-0.00000455,0.00000075,0.00000241,-0.00000119,-0.00
 000014,0.00000076,-0.00000312,0.00000472,-0.00000876,-0.00003582,0.000
 04405,0.00001043,0.00003177,0.00000295,-0.00001175,-0.00010283,0.00015
 048,0.00102427,0.00201673,-0.00492115,0.01676508,0.09990101,0.05967293
 ,-0.00039034,-0.00090167,-0.00062227,-0.00101752,0.00067202,-0.0013018
 4,0.00025091,-0.00105734,0.00027549,0.00039928,-0.00023994,0.00072808,
 0.00079938,0.00066566,0.00076762,-0.00530020,-0.00357028,0.00368920,-0
 .00005341,-0.00004900,0.00035008,0.00009606,0.00026410,-0.00000749,-0.
 00001846,-0.00015572,-0.00003332,-0.00046883,0.00040320,-0.00005415,0.
 00034413,0.00030789,-0.00003301,-0.00011370,-0.00048881,-0.00001295,-0
 .00027219,0.00009803,-0.00007577,-0.00026686,-0.00019881,-0.00005362,0
 .00032368,-0.00013017,0.00002687,0.00060670,-0.00006108,-0.00029779,-0
 .00015694,0.00003360,0.00000339,0.00022962,0.00000045,0.00004171,-0.00
 029120,0.00029238,-0.00003962,0.00013516,0.00010872,0.00006485,0.00007
 049,-0.00014928,-0.00001399,-0.00010259,0.00005309,-0.00001296,-0.0168
 3725,0.03063747,0.01602507,-0.00160925,-0.00035029,-0.00051145,-0.0084
 8717,-0.00079790,0.00575812,-0.04660702,-0.01890955,0.05550717,-0.0002
 5813,-0.00067386,0.00049516,0.00007980,0.00003346,-0.00004257,0.000004
 29,0.00020880,0.00014801,-0.00034951,-0.00003760,-0.00013211,-0.000009
 01,-0.00001485,0.00001518,-0.00000434,-0.00001050,-0.00000102,-0.00000
 429,0.00000274,0.00000446,-0.00000338,0.00000422,-0.00000011,0.0000129
 9,0.00001039,-0.00001099,-0.00001109,-0.00004270,-0.00020458,0.0001443
 8,-0.00007298,-0.00057990,-0.00007870,0.00007199,0.00065432,0.00479558
 ,0.00145622,-0.01215828,0.00011909,0.00011649,0.00004166,-0.00004018,-
 0.00000314,0.00026080,-0.00000158,-0.00001790,0.00001622,0.00001003,0.
 00001896,0.00000939,0.00000672,0.00001077,0.00000679,-0.00000733,0.000
 01046,-0.00000268,0.07433218,-0.00319342,0.00367897,-0.00265733,0.0031
 3375,-0.00353104,0.00065346,0.00105689,0.00247028,0.00017491,-0.002029
 89,0.00135183,-0.00059914,0.00084268,0.00294553,0.00230295,0.00524136,
 -0.00601050,0.00298344,0.00023668,0.00045369,-0.00041982,-0.00092354,-
 0.00077553,-0.00012888,0.00096276,0.00041548,0.00019136,0.00014407,-0.
 00051617,-0.00004458,0.00027659,0.00028838,-0.00000405,0.00058550,0.00
 011986,0.00006650,-0.00071435,-0.00052619,-0.00013415,0.00003700,0.000
 17706,0.00003540,-0.00017565,0.00009872,0.,0.00045326,-0.00039531,-0.0
 0023191,-0.00006444,0.00007621,0.00012494,0.00050053,-0.00032925,0.000
 02047,0.00038357,0.00020758,-0.00017554,0.00020477,0.00015004,0.000078
 97,-0.00045595,-0.00004988,-0.00004230,-0.00011818,0.00008196,-0.00001
 143,-0.01184948,0.04008238,0.00996039,0.00540811,-0.01165975,0.0044731
 4,-0.02365296,-0.00502409,-0.00106952,0.04072263,-0.01143916,-0.026378
 11,-0.00051798,-0.00070893,0.00059408,-0.00029793,0.00008059,0.0000915
 8,0.00021784,-0.00009125,-0.00000060,-0.00005210,0.00016890,0.00008970
 ,-0.00001709,-0.00000232,0.00001118,0.00001975,-0.00000232,0.00000137,
 -0.00000876,-0.00002629,-0.00000293,-0.00000250,-0.00000230,-0.0000122
 6,0.00008449,-0.00001716,0.00001046,0.00007576,-0.00003181,-0.00013854
 ,0.00012726,0.00005865,-0.00019156,-0.00063079,-0.00033299,0.00004602,
 -0.00853165,-0.00011603,0.01912265,0.00012336,-0.00048590,0.00032665,-
 0.00003854,0.00003395,0.00006828,0.00001521,0.00000260,0.00002377,-0.0
 0000427,-0.00000010,0.00000125,-0.00001652,0.00001649,0.00001401,-0.00
 001008,-0.00000522,-0.00000966,-0.00754774,-0.01087965,-0.00020523,-0.
 00047092,0.00058542,-0.00090120,0.00059496,0.00004141,-0.00053756,-0.0
 0036067,-0.00018695,0.00063989,-0.00035389,-0.00076648,-0.00106912,-0.
 00086134,-0.00102044,-0.00339038,0.00451080,0.00230314,-0.00003301,-0.
 00033609,0.00007751,0.00026844,0.00022256,0.00013135,-0.00032408,-0.00
 009233,-0.00012011,0.00011092,-0.00005006,0.00014749,-0.00023385,-0.00
 017941,0.00009574,-0.00015688,0.00016929,-0.00002275,0.00028047,0.0001
 1790,0.00007786,0.00000875,0.00000889,-0.00001443,-0.00000175,-0.00005
 074,-0.00000341,-0.00030189,0.00006258,0.00015539,0.00006413,0.0000086
 8,-0.00003194,-0.00019495,0.00011322,-0.00001741,-0.00006941,-0.000126
 80,0.00000010,-0.00008827,-0.00005226,-0.00001217,0.00003458,-0.000030
 92,-0.00002360,0.00000386,-0.00006837,-0.00003156,0.01939457,-0.022438
 16,-0.03215681,-0.00195700,0.00353593,-0.00041357,0.00043769,-0.000545
 41,0.00882363,0.05111505,0.02492555,-0.10775032,0.00046723,0.00035434,
 -0.00035886,0.00012561,0.00032766,0.00001447,-0.00007690,-0.00007244,-
 0.00004312,0.00001649,-0.00009255,-0.00009096,0.00000528,0.00000652,-0
 .00002334,-0.00000938,0.00000399,-0.00000005,0.00000068,0.00001417,0.0
 0000303,0.00000392,0.00000380,0.00000007,-0.00003927,0.00000058,-0.000
 00215,-0.00016236,0.00001040,-0.00000108,0.00016212,-0.00017841,-0.000
 60165,0.00042640,-0.00016444,-0.00063034,0.00472684,0.00038118,-0.0125
 0528,-0.00000988,0.00044432,-0.00013306,0.00015645,-0.00005256,-0.0000
 9952,-0.00001167,-0.00000358,0.00000449,0.00000234,-0.00001580,0.00000
 229,0.00000866,-0.00000896,-0.00000491,0.00000086,0.00000338,0.0000114
 6,-0.06868719,-0.00921459,0.14459145\\-0.00000453,0.00000965,-0.000006
 82,0.00000010,-0.00000244,-0.00000742,-0.00000117,0.00000074,-0.000002
 05,0.00000017,0.00000337,0.00000561,0.00000242,0.00000011,0.00000029,-
 0.00000578,0.00001512,-0.00001587,0.00000237,0.00000076,-0.00000215,-0
 .00000020,0.00000025,0.00000619,0.00000049,0.00000012,0.00000264,-0.00
 000035,0.00000117,-0.00000521,0.00000155,0.00000151,-0.00000080,0.0000
 0080,0.00000152,-0.00000426,0.00000027,-0.00000032,0.00000189,0.000000
 87,0.00000115,-0.00000216,0.00000174,0.00000091,-0.00000094,0.00000158
 ,-0.00000070,0.00000088,0.00000040,-0.00000038,0.00000151,0.00000142,0
 .00000004,0.00000029,0.00000014,0.00000081,0.00000080,0.00000059,-0.00
 000114,0.00000326,-0.00000026,-0.00000185,0.00000327,0.00000028,-0.000
 00122,0.00000248,-0.00001025,-0.00006911,0.00002538,-0.00000863,0.0000
 0346,-0.00000522,0.00001346,-0.00000120,-0.00001096,0.00002087,0.00000
 910,0.00003838,0.00000016,0.00000023,0.00000027,0.00000064,-0.00000002
 ,0.00000006,0.00000052,-0.00000128,0.00000231,0.,-0.00000075,0.0000017
 6,0.00000063,0.00000184,-0.00000112,0.00000120,0.00000123,0.00000064,0
 .00000130,0.00000036,0.00000211,0.00000093,-0.00000066,0.00000294,0.00
 000001,0.00000193,-0.00000248,-0.00000084,0.00000148,-0.00000319,-0.00
 000338,0.00000163,0.00000018,-0.00000232,-0.00000055,-0.00000202,-0.00
 000909,0.00001204,0.00001102,0.00000095,0.00000126,-0.00000068,0.00000
 034,0.00000007,0.00000021,0.00000010,-0.00000103,0.00000192,0.00000008
 ,-0.00000184,0.00000327,0.00000022,-0.00000210,0.00000412,0.00000059,-
 0.00000154,0.00000377,-0.00001039,0.00001626,-0.00005410\\\@


 OPTIMIST - A PESSIMIST WHO LACKS EXPERIENCE
 Job cpu time:       0 days 22 hours 36 minutes  2.7 seconds.
 Elapsed time:       0 days  1 hours  7 minutes 59.7 seconds.
 File lengths (MBytes):  RWF=   2281 Int=      0 D2E=      0 Chk=     47 Scr=      1
 Normal termination of Gaussian 16 at Tue Jun 18 06:43:42 2019.
