 Entering Gaussian System, Link 0=/share/apps/gaussian16/g16/g16
 Initial command:
 /share/apps/gaussian16/g16/l1.exe "/home/amen01//scratch/531/Gau-13824.inp" -scrdir="/home/amen01//scratch/531/"
 Entering Link 1 = /share/apps/gaussian16/g16/l1.exe PID=     13825.
  
 Copyright (c) 1988-2017, Gaussian, Inc.  All Rights Reserved.
  
 This is part of the Gaussian(R) 16 program.  It is based on
 the Gaussian(R) 09 system (copyright 2009, Gaussian, Inc.),
 the Gaussian(R) 03 system (copyright 2003, Gaussian, Inc.),
 the Gaussian(R) 98 system (copyright 1998, Gaussian, Inc.),
 the Gaussian(R) 94 system (copyright 1995, Gaussian, Inc.),
 the Gaussian 92(TM) system (copyright 1992, Gaussian, Inc.),
 the Gaussian 90(TM) system (copyright 1990, Gaussian, Inc.),
 the Gaussian 88(TM) system (copyright 1988, Gaussian, Inc.),
 the Gaussian 86(TM) system (copyright 1986, Carnegie Mellon
 University), and the Gaussian 82(TM) system (copyright 1983,
 Carnegie Mellon University). Gaussian is a federally registered
 trademark of Gaussian, Inc.
  
 This software contains proprietary and confidential information,
 including trade secrets, belonging to Gaussian, Inc.
  
 This software is provided under written license and may be
 used, copied, transmitted, or stored only in accord with that
 written license.
  
 The following legend is applicable only to US Government
 contracts under FAR:
  
                    RESTRICTED RIGHTS LEGEND
  
 Use, reproduction and disclosure by the US Government is
 subject to restrictions as set forth in subparagraphs (a)
 and (c) of the Commercial Computer Software - Restricted
 Rights clause in FAR 52.227-19.
  
 Gaussian, Inc.
 340 Quinnipiac St., Bldg. 40, Wallingford CT 06492
  
  
 ---------------------------------------------------------------
 Warning -- This program may not be used in any manner that
 competes with the business of Gaussian, Inc. or will provide
 assistance to any competitor of Gaussian, Inc.  The licensee
 of this program is prohibited from giving any competitor of
 Gaussian, Inc. access to this program.  By using this program,
 the user acknowledges that Gaussian, Inc. is engaged in the
 business of creating and licensing software in the field of
 computational chemistry and represents and warrants to the
 licensee that it is not a competitor of Gaussian, Inc. and that
 it will not use this program in any manner prohibited above.
 ---------------------------------------------------------------
  

 Cite this work as:
 Gaussian 16, Revision B.01,
 M. J. Frisch, G. W. Trucks, H. B. Schlegel, G. E. Scuseria, 
 M. A. Robb, J. R. Cheeseman, G. Scalmani, V. Barone, 
 G. A. Petersson, H. Nakatsuji, X. Li, M. Caricato, A. V. Marenich, 
 J. Bloino, B. G. Janesko, R. Gomperts, B. Mennucci, H. P. Hratchian, 
 J. V. Ortiz, A. F. Izmaylov, J. L. Sonnenberg, D. Williams-Young, 
 F. Ding, F. Lipparini, F. Egidi, J. Goings, B. Peng, A. Petrone, 
 T. Henderson, D. Ranasinghe, V. G. Zakrzewski, J. Gao, N. Rega, 
 G. Zheng, W. Liang, M. Hada, M. Ehara, K. Toyota, R. Fukuda, 
 J. Hasegawa, M. Ishida, T. Nakajima, Y. Honda, O. Kitao, H. Nakai, 
 T. Vreven, K. Throssell, J. A. Montgomery, Jr., J. E. Peralta, 
 F. Ogliaro, M. J. Bearpark, J. J. Heyd, E. N. Brothers, K. N. Kudin, 
 V. N. Staroverov, T. A. Keith, R. Kobayashi, J. Normand, 
 K. Raghavachari, A. P. Rendell, J. C. Burant, S. S. Iyengar, 
 J. Tomasi, M. Cossi, J. M. Millam, M. Klene, C. Adamo, R. Cammi, 
 J. W. Ochterski, R. L. Martin, K. Morokuma, O. Farkas, 
 J. B. Foresman, and D. J. Fox, Gaussian, Inc., Wallingford CT, 2016.
 
 ******************************************
 Gaussian 16:  ES64L-G16RevB.01 20-Dec-2017
                18-Jun-2019 
 ******************************************
 %nprocshared=20
 Will use up to   20 processors via shared memory.
 %mem=100GB
 %chk=7-memb-carbTSguess-1b.chk
 ---------------------------------------------------------------
 # opt=(ts,calcfc,noeigen) freq b3lyp/6-311+g(d,p) int=grid=fine
 ---------------------------------------------------------------
 1/5=1,10=4,11=1,18=20,26=3,38=1/1,3;
 2/9=110,12=2,17=6,18=5,40=1/2;
 3/5=4,6=6,7=111,11=2,25=1,30=1,71=2,74=-5,75=-4,140=1/1,2,3;
 4//1;
 5/5=2,38=5/2;
 8/6=4,10=90,11=11/1;
 11/6=1,8=1,9=11,15=111,16=1/1,2,10;
 10/6=1,13=1/2;
 6/7=2,8=2,9=2,10=2,28=1/1;
 7/10=1,18=20,25=1/1,2,3,16;
 1/5=1,10=4,11=1,18=20,26=3/3(2);
 2/9=110/2;
 99//99;
 2/9=110/2;
 3/5=4,6=6,7=111,11=2,25=1,30=1,71=1,74=-5,75=-4/1,2,3;
 4/5=5,16=3,69=1/1;
 5/5=2,38=5/2;
 7//1,2,3,16;
 1/5=1,11=1,18=20,26=3/3(-5);
 2/9=110/2;
 6/7=2,8=2,9=2,10=2,19=2,28=1/1;
 99/9=1/99;
 ---------------------
 7-memb-carbTSguess-1b
 ---------------------
 Symbolic Z-matrix:
 Charge =  0 Multiplicity = 1
 C                     1.81579   2.85666  -0.07335 
 C                     3.09045   2.33868   0.24982 
 C                     3.27555   0.95821   0.35733 
 C                     2.10616   0.19231   0.24307 
 C                     0.78394   0.62059   0.00963 
 C                     0.64277   2.00425  -0.26466 
 C                    -0.04306  -0.64584  -0.08312 
 C                     2.18346  -1.20556   0.1905 
 C                     0.90126  -1.70406  -0.04863 
 C                     4.50388   0.20169   0.50595 
 C                     3.33609  -1.95328   0.26469 
 C                     4.54012  -1.1755    0.46072 
 C                     0.6961   -3.07536  -0.21925 
 C                     3.13799  -3.37344   0.09286 
 C                     1.88318  -3.89948  -0.13973 
 C                    -1.39183  -1.05851  -0.12391 
 C                    -1.64729  -2.46279  -0.4335 
 C                    -0.63346  -3.43568  -0.48232 
 C                    -2.54608  -0.2403    0.21707 
 C                    -3.00363  -2.87395  -0.68584 
 C                    -3.86628  -0.71008  -0.02127 
 C                    -4.05804  -2.03483  -0.53826 
 C                    -0.52576   2.61064  -0.8087 
 C                     1.67706   4.26101  -0.30013 
 C                     0.51141   4.80259  -0.768 
 C                    -0.59167   3.95729  -1.05555 
 C                    -2.45076   0.97517   0.90055 
 C                    -3.51499   1.72818   1.28201 
 C                    -4.98657   0.09626   0.3223 
 C                    -4.84391   1.30575   0.96168 
 H                     5.49594  -1.68028   0.55671 
 H                     3.98987  -4.04431   0.13553 
 H                     1.7812   -4.97161  -0.27337 
 H                    -0.90599  -4.46163  -0.70884 
 H                     5.43402   0.74576   0.63514 
 H                     3.9221    3.02908   0.35129 
 H                     2.53996   4.89411  -0.12096 
 H                     0.43669   5.86879  -0.94929 
 H                    -1.49307   4.38174  -1.48415 
 H                    -2.35091   1.88909   1.4097 
 H                    -3.44888   2.66851   1.84721 
 H                    -5.71378   1.89804   1.22884 
 H                    -5.97628  -0.28567   0.09269 
 H                    -5.06781  -2.37528  -0.74188 
 H                    -3.16658  -3.90099  -0.99587 
 H                    -1.36764   1.98103  -1.05429 
 

 GradGradGradGradGradGradGradGradGradGradGradGradGradGradGradGradGradGrad
 Berny optimization.
 Initialization pass.
                           ----------------------------
                           !    Initial Parameters    !
                           ! (Angstroms and Degrees)  !
 --------------------------                            --------------------------
 ! Name  Definition              Value          Derivative Info.                !
 --------------------------------------------------------------------------------
 ! R1    R(1,2)                  1.4133         calculate D2E/DX2 analytically  !
 ! R2    R(1,6)                  1.4626         calculate D2E/DX2 analytically  !
 ! R3    R(1,24)                 1.4293         calculate D2E/DX2 analytically  !
 ! R4    R(2,3)                  1.397          calculate D2E/DX2 analytically  !
 ! R5    R(2,36)                 1.0856         calculate D2E/DX2 analytically  !
 ! R6    R(3,4)                  1.4025         calculate D2E/DX2 analytically  !
 ! R7    R(3,10)                 1.4502         calculate D2E/DX2 analytically  !
 ! R8    R(4,5)                  1.4093         calculate D2E/DX2 analytically  !
 ! R9    R(4,8)                  1.401          calculate D2E/DX2 analytically  !
 ! R10   R(5,6)                  1.4176         calculate D2E/DX2 analytically  !
 ! R11   R(5,7)                  1.5154         calculate D2E/DX2 analytically  !
 ! R12   R(6,23)                 1.4245         calculate D2E/DX2 analytically  !
 ! R13   R(7,9)                  1.4187         calculate D2E/DX2 analytically  !
 ! R14   R(7,16)                 1.4111         calculate D2E/DX2 analytically  !
 ! R15   R(8,9)                  1.3963         calculate D2E/DX2 analytically  !
 ! R16   R(8,11)                 1.3759         calculate D2E/DX2 analytically  !
 ! R17   R(9,13)                 1.397          calculate D2E/DX2 analytically  !
 ! R18   R(10,12)                1.3784         calculate D2E/DX2 analytically  !
 ! R19   R(10,35)                1.0853         calculate D2E/DX2 analytically  !
 ! R20   R(11,12)                1.4467         calculate D2E/DX2 analytically  !
 ! R21   R(11,14)                1.4442         calculate D2E/DX2 analytically  !
 ! R22   R(12,31)                1.0852         calculate D2E/DX2 analytically  !
 ! R23   R(13,15)                1.4473         calculate D2E/DX2 analytically  !
 ! R24   R(13,18)                1.4024         calculate D2E/DX2 analytically  !
 ! R25   R(14,15)                1.3803         calculate D2E/DX2 analytically  !
 ! R26   R(14,32)                1.0852         calculate D2E/DX2 analytically  !
 ! R27   R(15,33)                1.0852         calculate D2E/DX2 analytically  !
 ! R28   R(16,17)                1.4605         calculate D2E/DX2 analytically  !
 ! R29   R(16,19)                1.4553         calculate D2E/DX2 analytically  !
 ! R30   R(17,18)                1.406          calculate D2E/DX2 analytically  !
 ! R31   R(17,20)                1.4396         calculate D2E/DX2 analytically  !
 ! R32   R(18,34)                1.0854         calculate D2E/DX2 analytically  !
 ! R33   R(19,21)                1.4214         calculate D2E/DX2 analytically  !
 ! R34   R(19,27)                1.3977         calculate D2E/DX2 analytically  !
 ! R35   R(20,22)                1.3556         calculate D2E/DX2 analytically  !
 ! R36   R(20,45)                1.0851         calculate D2E/DX2 analytically  !
 ! R37   R(21,22)                1.4349         calculate D2E/DX2 analytically  !
 ! R38   R(21,29)                1.4224         calculate D2E/DX2 analytically  !
 ! R39   R(22,44)                1.0849         calculate D2E/DX2 analytically  !
 ! R40   R(23,26)                1.3707         calculate D2E/DX2 analytically  !
 ! R41   R(23,46)                1.0796         calculate D2E/DX2 analytically  !
 ! R42   R(24,25)                1.3678         calculate D2E/DX2 analytically  !
 ! R43   R(24,37)                1.0851         calculate D2E/DX2 analytically  !
 ! R44   R(25,26)                1.4192         calculate D2E/DX2 analytically  !
 ! R45   R(25,38)                1.0841         calculate D2E/DX2 analytically  !
 ! R46   R(26,39)                1.0846         calculate D2E/DX2 analytically  !
 ! R47   R(27,28)                1.3584         calculate D2E/DX2 analytically  !
 ! R48   R(27,40)                1.0509         calculate D2E/DX2 analytically  !
 ! R49   R(28,30)                1.4308         calculate D2E/DX2 analytically  !
 ! R50   R(28,40)                1.1821         calculate D2E/DX2 analytically  !
 ! R51   R(28,41)                1.0991         calculate D2E/DX2 analytically  !
 ! R52   R(29,30)                1.3755         calculate D2E/DX2 analytically  !
 ! R53   R(29,43)                1.0854         calculate D2E/DX2 analytically  !
 ! R54   R(30,42)                1.0857         calculate D2E/DX2 analytically  !
 ! A1    A(2,1,6)              122.6588         calculate D2E/DX2 analytically  !
 ! A2    A(2,1,24)             118.9418         calculate D2E/DX2 analytically  !
 ! A3    A(6,1,24)             118.2968         calculate D2E/DX2 analytically  !
 ! A4    A(1,2,3)              119.9516         calculate D2E/DX2 analytically  !
 ! A5    A(1,2,36)             118.6324         calculate D2E/DX2 analytically  !
 ! A6    A(3,2,36)             121.3149         calculate D2E/DX2 analytically  !
 ! A7    A(2,3,4)              115.0171         calculate D2E/DX2 analytically  !
 ! A8    A(2,3,10)             129.4645         calculate D2E/DX2 analytically  !
 ! A9    A(4,3,10)             115.4466         calculate D2E/DX2 analytically  !
 ! A10   A(3,4,5)              129.0336         calculate D2E/DX2 analytically  !
 ! A11   A(3,4,8)              120.1272         calculate D2E/DX2 analytically  !
 ! A12   A(5,4,8)              110.4116         calculate D2E/DX2 analytically  !
 ! A13   A(4,5,6)              114.9665         calculate D2E/DX2 analytically  !
 ! A14   A(4,5,7)              105.5557         calculate D2E/DX2 analytically  !
 ! A15   A(6,5,7)              138.5473         calculate D2E/DX2 analytically  !
 ! A16   A(1,6,5)              117.6238         calculate D2E/DX2 analytically  !
 ! A17   A(1,6,23)             117.372          calculate D2E/DX2 analytically  !
 ! A18   A(5,6,23)             124.8254         calculate D2E/DX2 analytically  !
 ! A19   A(5,7,9)              104.9882         calculate D2E/DX2 analytically  !
 ! A20   A(5,7,16)             140.1579         calculate D2E/DX2 analytically  !
 ! A21   A(9,7,16)             114.7583         calculate D2E/DX2 analytically  !
 ! A22   A(4,8,9)              108.1784         calculate D2E/DX2 analytically  !
 ! A23   A(4,8,11)             125.9028         calculate D2E/DX2 analytically  !
 ! A24   A(9,8,11)             125.7662         calculate D2E/DX2 analytically  !
 ! A25   A(7,9,8)              110.4315         calculate D2E/DX2 analytically  !
 ! A26   A(7,9,13)             129.1565         calculate D2E/DX2 analytically  !
 ! A27   A(8,9,13)             120.4117         calculate D2E/DX2 analytically  !
 ! A28   A(3,10,12)            122.6896         calculate D2E/DX2 analytically  !
 ! A29   A(3,10,35)            118.4624         calculate D2E/DX2 analytically  !
 ! A30   A(12,10,35)           118.8327         calculate D2E/DX2 analytically  !
 ! A31   A(8,11,12)            114.3516         calculate D2E/DX2 analytically  !
 ! A32   A(8,11,14)            114.3974         calculate D2E/DX2 analytically  !
 ! A33   A(12,11,14)           131.2205         calculate D2E/DX2 analytically  !
 ! A34   A(10,12,11)           121.3125         calculate D2E/DX2 analytically  !
 ! A35   A(10,12,31)           119.0122         calculate D2E/DX2 analytically  !
 ! A36   A(11,12,31)           119.666          calculate D2E/DX2 analytically  !
 ! A37   A(9,13,15)            115.58           calculate D2E/DX2 analytically  !
 ! A38   A(9,13,18)            114.4779         calculate D2E/DX2 analytically  !
 ! A39   A(15,13,18)           129.9114         calculate D2E/DX2 analytically  !
 ! A40   A(11,14,15)           121.2992         calculate D2E/DX2 analytically  !
 ! A41   A(11,14,32)           119.7077         calculate D2E/DX2 analytically  !
 ! A42   A(15,14,32)           118.9897         calculate D2E/DX2 analytically  !
 ! A43   A(13,15,14)           122.5385         calculate D2E/DX2 analytically  !
 ! A44   A(13,15,33)           118.6013         calculate D2E/DX2 analytically  !
 ! A45   A(14,15,33)           118.8595         calculate D2E/DX2 analytically  !
 ! A46   A(7,16,17)            117.033          calculate D2E/DX2 analytically  !
 ! A47   A(7,16,19)            125.9373         calculate D2E/DX2 analytically  !
 ! A48   A(17,16,19)           116.8403         calculate D2E/DX2 analytically  !
 ! A49   A(16,17,18)           123.1312         calculate D2E/DX2 analytically  !
 ! A50   A(16,17,20)           118.4615         calculate D2E/DX2 analytically  !
 ! A51   A(18,17,20)           118.4034         calculate D2E/DX2 analytically  !
 ! A52   A(13,18,17)           119.9558         calculate D2E/DX2 analytically  !
 ! A53   A(13,18,34)           121.3347         calculate D2E/DX2 analytically  !
 ! A54   A(17,18,34)           118.7012         calculate D2E/DX2 analytically  !
 ! A55   A(16,19,21)           120.7663         calculate D2E/DX2 analytically  !
 ! A56   A(16,19,27)           123.3249         calculate D2E/DX2 analytically  !
 ! A57   A(21,19,27)           115.642          calculate D2E/DX2 analytically  !
 ! A58   A(17,20,22)           122.4768         calculate D2E/DX2 analytically  !
 ! A59   A(17,20,45)           117.5093         calculate D2E/DX2 analytically  !
 ! A60   A(22,20,45)           120.0113         calculate D2E/DX2 analytically  !
 ! A61   A(19,21,22)           119.3183         calculate D2E/DX2 analytically  !
 ! A62   A(19,21,29)           120.2425         calculate D2E/DX2 analytically  !
 ! A63   A(22,21,29)           120.3393         calculate D2E/DX2 analytically  !
 ! A64   A(20,22,21)           120.4474         calculate D2E/DX2 analytically  !
 ! A65   A(20,22,44)           120.6152         calculate D2E/DX2 analytically  !
 ! A66   A(21,22,44)           118.7977         calculate D2E/DX2 analytically  !
 ! A67   A(6,23,26)            121.7663         calculate D2E/DX2 analytically  !
 ! A68   A(6,23,46)            118.5758         calculate D2E/DX2 analytically  !
 ! A69   A(26,23,46)           119.6378         calculate D2E/DX2 analytically  !
 ! A70   A(1,24,25)            121.7368         calculate D2E/DX2 analytically  !
 ! A71   A(1,24,37)            118.0259         calculate D2E/DX2 analytically  !
 ! A72   A(25,24,37)           120.2077         calculate D2E/DX2 analytically  !
 ! A73   A(24,25,26)           119.7268         calculate D2E/DX2 analytically  !
 ! A74   A(24,25,38)           120.3545         calculate D2E/DX2 analytically  !
 ! A75   A(26,25,38)           119.8909         calculate D2E/DX2 analytically  !
 ! A76   A(23,26,25)           120.7523         calculate D2E/DX2 analytically  !
 ! A77   A(23,26,39)           119.7096         calculate D2E/DX2 analytically  !
 ! A78   A(25,26,39)           119.5356         calculate D2E/DX2 analytically  !
 ! A79   A(19,27,28)           124.4694         calculate D2E/DX2 analytically  !
 ! A80   A(27,28,30)           120.0766         calculate D2E/DX2 analytically  !
 ! A81   A(27,28,41)           124.859          calculate D2E/DX2 analytically  !
 ! A82   A(30,28,41)           115.0615         calculate D2E/DX2 analytically  !
 ! A83   A(40,28,41)            76.6297         calculate D2E/DX2 analytically  !
 ! A84   A(21,29,30)           121.9411         calculate D2E/DX2 analytically  !
 ! A85   A(21,29,43)           117.8782         calculate D2E/DX2 analytically  !
 ! A86   A(30,29,43)           120.1525         calculate D2E/DX2 analytically  !
 ! A87   A(28,30,29)           117.388          calculate D2E/DX2 analytically  !
 ! A88   A(28,30,42)           121.8698         calculate D2E/DX2 analytically  !
 ! A89   A(29,30,42)           120.7273         calculate D2E/DX2 analytically  !
 ! A90   L(19,27,40,1,-1)      178.4931         calculate D2E/DX2 analytically  !
 ! A91   L(30,28,40,41,-1)     191.6912         calculate D2E/DX2 analytically  !
 ! A92   L(19,27,40,1,-2)      180.4168         calculate D2E/DX2 analytically  !
 ! A93   L(30,28,40,41,-2)     181.1944         calculate D2E/DX2 analytically  !
 ! D1    D(6,1,2,3)              2.01           calculate D2E/DX2 analytically  !
 ! D2    D(6,1,2,36)           178.4029         calculate D2E/DX2 analytically  !
 ! D3    D(24,1,2,3)          -174.2416         calculate D2E/DX2 analytically  !
 ! D4    D(24,1,2,36)            2.1513         calculate D2E/DX2 analytically  !
 ! D5    D(2,1,6,5)              5.8997         calculate D2E/DX2 analytically  !
 ! D6    D(2,1,6,23)          -169.4787         calculate D2E/DX2 analytically  !
 ! D7    D(24,1,6,5)          -177.8257         calculate D2E/DX2 analytically  !
 ! D8    D(24,1,6,23)            6.7959         calculate D2E/DX2 analytically  !
 ! D9    D(2,1,24,25)          172.1877         calculate D2E/DX2 analytically  !
 ! D10   D(2,1,24,37)           -5.8374         calculate D2E/DX2 analytically  !
 ! D11   D(6,1,24,25)           -4.2284         calculate D2E/DX2 analytically  !
 ! D12   D(6,1,24,37)          177.7465         calculate D2E/DX2 analytically  !
 ! D13   D(1,2,3,4)             -5.4716         calculate D2E/DX2 analytically  !
 ! D14   D(1,2,3,10)           171.2688         calculate D2E/DX2 analytically  !
 ! D15   D(36,2,3,4)           178.2343         calculate D2E/DX2 analytically  !
 ! D16   D(36,2,3,10)           -5.0253         calculate D2E/DX2 analytically  !
 ! D17   D(2,3,4,5)              1.4061         calculate D2E/DX2 analytically  !
 ! D18   D(2,3,4,8)            173.1379         calculate D2E/DX2 analytically  !
 ! D19   D(10,3,4,5)          -175.8074         calculate D2E/DX2 analytically  !
 ! D20   D(10,3,4,8)            -4.0757         calculate D2E/DX2 analytically  !
 ! D21   D(2,3,10,12)         -173.0729         calculate D2E/DX2 analytically  !
 ! D22   D(2,3,10,35)            5.4871         calculate D2E/DX2 analytically  !
 ! D23   D(4,3,10,12)            3.656          calculate D2E/DX2 analytically  !
 ! D24   D(4,3,10,35)         -177.784          calculate D2E/DX2 analytically  !
 ! D25   D(3,4,5,6)              6.2359         calculate D2E/DX2 analytically  !
 ! D26   D(3,4,5,7)            177.2786         calculate D2E/DX2 analytically  !
 ! D27   D(8,4,5,6)           -166.1376         calculate D2E/DX2 analytically  !
 ! D28   D(8,4,5,7)              4.905          calculate D2E/DX2 analytically  !
 ! D29   D(3,4,8,9)           -174.4814         calculate D2E/DX2 analytically  !
 ! D30   D(3,4,8,11)             1.2262         calculate D2E/DX2 analytically  !
 ! D31   D(5,4,8,9)             -1.3268         calculate D2E/DX2 analytically  !
 ! D32   D(5,4,8,11)           174.3808         calculate D2E/DX2 analytically  !
 ! D33   D(4,5,6,1)             -9.2778         calculate D2E/DX2 analytically  !
 ! D34   D(4,5,6,23)           165.7217         calculate D2E/DX2 analytically  !
 ! D35   D(7,5,6,1)           -176.182          calculate D2E/DX2 analytically  !
 ! D36   D(7,5,6,23)            -1.1826         calculate D2E/DX2 analytically  !
 ! D37   D(4,5,7,9)             -6.5414         calculate D2E/DX2 analytically  !
 ! D38   D(4,5,7,16)           169.4516         calculate D2E/DX2 analytically  !
 ! D39   D(6,5,7,9)            161.1477         calculate D2E/DX2 analytically  !
 ! D40   D(6,5,7,16)           -22.8593         calculate D2E/DX2 analytically  !
 ! D41   D(1,6,23,26)           -4.6589         calculate D2E/DX2 analytically  !
 ! D42   D(1,6,23,46)          173.7062         calculate D2E/DX2 analytically  !
 ! D43   D(5,6,23,26)         -179.6699         calculate D2E/DX2 analytically  !
 ! D44   D(5,6,23,46)           -1.3048         calculate D2E/DX2 analytically  !
 ! D45   D(5,7,9,8)              5.9978         calculate D2E/DX2 analytically  !
 ! D46   D(5,7,9,13)          -173.7923         calculate D2E/DX2 analytically  !
 ! D47   D(16,7,9,8)          -171.1763         calculate D2E/DX2 analytically  !
 ! D48   D(16,7,9,13)            9.0336         calculate D2E/DX2 analytically  !
 ! D49   D(5,7,16,17)          170.5885         calculate D2E/DX2 analytically  !
 ! D50   D(5,7,16,19)          -14.5945         calculate D2E/DX2 analytically  !
 ! D51   D(9,7,16,17)          -13.6744         calculate D2E/DX2 analytically  !
 ! D52   D(9,7,16,19)          161.1425         calculate D2E/DX2 analytically  !
 ! D53   D(4,8,9,7)             -3.1754         calculate D2E/DX2 analytically  !
 ! D54   D(4,8,9,13)           176.6358         calculate D2E/DX2 analytically  !
 ! D55   D(11,8,9,7)          -178.8904         calculate D2E/DX2 analytically  !
 ! D56   D(11,8,9,13)            0.9208         calculate D2E/DX2 analytically  !
 ! D57   D(4,8,11,12)            2.2488         calculate D2E/DX2 analytically  !
 ! D58   D(4,8,11,14)         -175.968          calculate D2E/DX2 analytically  !
 ! D59   D(9,8,11,12)          177.221          calculate D2E/DX2 analytically  !
 ! D60   D(9,8,11,14)           -0.9957         calculate D2E/DX2 analytically  !
 ! D61   D(7,9,13,15)          179.3349         calculate D2E/DX2 analytically  !
 ! D62   D(7,9,13,18)            1.1491         calculate D2E/DX2 analytically  !
 ! D63   D(8,9,13,15)           -0.437          calculate D2E/DX2 analytically  !
 ! D64   D(8,9,13,18)         -178.6227         calculate D2E/DX2 analytically  !
 ! D65   D(3,10,12,11)          -0.2419         calculate D2E/DX2 analytically  !
 ! D66   D(3,10,12,31)         178.6426         calculate D2E/DX2 analytically  !
 ! D67   D(35,10,12,11)       -178.7968         calculate D2E/DX2 analytically  !
 ! D68   D(35,10,12,31)          0.0877         calculate D2E/DX2 analytically  !
 ! D69   D(8,11,12,10)          -2.6705         calculate D2E/DX2 analytically  !
 ! D70   D(8,11,12,31)         178.4522         calculate D2E/DX2 analytically  !
 ! D71   D(14,11,12,10)        175.1702         calculate D2E/DX2 analytically  !
 ! D72   D(14,11,12,31)         -3.707          calculate D2E/DX2 analytically  !
 ! D73   D(8,11,14,15)           0.6794         calculate D2E/DX2 analytically  !
 ! D74   D(8,11,14,32)         179.9994         calculate D2E/DX2 analytically  !
 ! D75   D(12,11,14,15)       -177.1606         calculate D2E/DX2 analytically  !
 ! D76   D(12,11,14,32)          2.1594         calculate D2E/DX2 analytically  !
 ! D77   D(9,13,15,14)           0.181          calculate D2E/DX2 analytically  !
 ! D78   D(9,13,15,33)        -179.5044         calculate D2E/DX2 analytically  !
 ! D79   D(18,13,15,14)        178.0282         calculate D2E/DX2 analytically  !
 ! D80   D(18,13,15,33)         -1.6572         calculate D2E/DX2 analytically  !
 ! D81   D(9,13,18,17)          -5.8298         calculate D2E/DX2 analytically  !
 ! D82   D(9,13,18,34)         175.2349         calculate D2E/DX2 analytically  !
 ! D83   D(15,13,18,17)        176.3037         calculate D2E/DX2 analytically  !
 ! D84   D(15,13,18,34)         -2.6316         calculate D2E/DX2 analytically  !
 ! D85   D(11,14,15,13)         -0.3217         calculate D2E/DX2 analytically  !
 ! D86   D(11,14,15,33)        179.3629         calculate D2E/DX2 analytically  !
 ! D87   D(32,14,15,13)       -179.6465         calculate D2E/DX2 analytically  !
 ! D88   D(32,14,15,33)          0.0381         calculate D2E/DX2 analytically  !
 ! D89   D(7,16,17,18)          10.1326         calculate D2E/DX2 analytically  !
 ! D90   D(7,16,17,20)        -170.5983         calculate D2E/DX2 analytically  !
 ! D91   D(19,16,17,18)       -165.1654         calculate D2E/DX2 analytically  !
 ! D92   D(19,16,17,20)         14.1037         calculate D2E/DX2 analytically  !
 ! D93   D(7,16,19,21)         172.0726         calculate D2E/DX2 analytically  !
 ! D94   D(7,16,19,27)         -14.1231         calculate D2E/DX2 analytically  !
 ! D95   D(17,16,19,21)        -13.1015         calculate D2E/DX2 analytically  !
 ! D96   D(17,16,19,27)        160.7028         calculate D2E/DX2 analytically  !
 ! D97   D(16,17,18,13)          0.3571         calculate D2E/DX2 analytically  !
 ! D98   D(16,17,18,34)        179.3203         calculate D2E/DX2 analytically  !
 ! D99   D(20,17,18,13)       -178.9124         calculate D2E/DX2 analytically  !
 ! D100  D(20,17,18,34)          0.0508         calculate D2E/DX2 analytically  !
 ! D101  D(16,17,20,22)         -5.6125         calculate D2E/DX2 analytically  !
 ! D102  D(16,17,20,45)        174.9729         calculate D2E/DX2 analytically  !
 ! D103  D(18,17,20,22)        173.6917         calculate D2E/DX2 analytically  !
 ! D104  D(18,17,20,45)         -5.7229         calculate D2E/DX2 analytically  !
 ! D105  D(16,19,21,22)          3.3171         calculate D2E/DX2 analytically  !
 ! D106  D(16,19,21,29)        179.6951         calculate D2E/DX2 analytically  !
 ! D107  D(27,19,21,22)       -170.942          calculate D2E/DX2 analytically  !
 ! D108  D(27,19,21,29)          5.436          calculate D2E/DX2 analytically  !
 ! D109  D(16,19,27,28)       -176.9744         calculate D2E/DX2 analytically  !
 ! D110  D(21,19,27,28)         -2.8786         calculate D2E/DX2 analytically  !
 ! D111  D(17,20,22,21)         -4.6735         calculate D2E/DX2 analytically  !
 ! D112  D(17,20,22,44)        179.674          calculate D2E/DX2 analytically  !
 ! D113  D(45,20,22,21)        174.727          calculate D2E/DX2 analytically  !
 ! D114  D(45,20,22,44)         -0.9255         calculate D2E/DX2 analytically  !
 ! D115  D(19,21,22,20)          5.8751         calculate D2E/DX2 analytically  !
 ! D116  D(19,21,22,44)       -178.3943         calculate D2E/DX2 analytically  !
 ! D117  D(29,21,22,20)       -170.4993         calculate D2E/DX2 analytically  !
 ! D118  D(29,21,22,44)          5.2313         calculate D2E/DX2 analytically  !
 ! D119  D(19,21,29,30)         -3.9713         calculate D2E/DX2 analytically  !
 ! D120  D(19,21,29,43)        177.9619         calculate D2E/DX2 analytically  !
 ! D121  D(22,21,29,30)        172.3695         calculate D2E/DX2 analytically  !
 ! D122  D(22,21,29,43)         -5.6974         calculate D2E/DX2 analytically  !
 ! D123  D(6,23,26,25)          -0.3241         calculate D2E/DX2 analytically  !
 ! D124  D(6,23,26,39)         179.0977         calculate D2E/DX2 analytically  !
 ! D125  D(46,23,26,25)       -178.6723         calculate D2E/DX2 analytically  !
 ! D126  D(46,23,26,39)          0.7496         calculate D2E/DX2 analytically  !
 ! D127  D(1,24,25,26)          -0.7938         calculate D2E/DX2 analytically  !
 ! D128  D(1,24,25,38)        -178.8733         calculate D2E/DX2 analytically  !
 ! D129  D(37,24,25,26)        177.189          calculate D2E/DX2 analytically  !
 ! D130  D(37,24,25,38)         -0.8905         calculate D2E/DX2 analytically  !
 ! D131  D(24,25,26,23)          3.1966         calculate D2E/DX2 analytically  !
 ! D132  D(24,25,26,39)       -176.2262         calculate D2E/DX2 analytically  !
 ! D133  D(38,25,26,23)       -178.7149         calculate D2E/DX2 analytically  !
 ! D134  D(38,25,26,39)          1.8623         calculate D2E/DX2 analytically  !
 ! D135  D(19,27,28,30)         -1.3876         calculate D2E/DX2 analytically  !
 ! D136  D(19,27,28,41)        177.9642         calculate D2E/DX2 analytically  !
 ! D137  D(27,28,30,29)          3.0589         calculate D2E/DX2 analytically  !
 ! D138  D(27,28,30,42)       -178.335          calculate D2E/DX2 analytically  !
 ! D139  D(41,28,30,29)       -176.354          calculate D2E/DX2 analytically  !
 ! D140  D(41,28,30,42)          2.2521         calculate D2E/DX2 analytically  !
 ! D141  D(21,29,30,28)         -0.3991         calculate D2E/DX2 analytically  !
 ! D142  D(21,29,30,42)       -179.022          calculate D2E/DX2 analytically  !
 ! D143  D(43,29,30,28)        177.6247         calculate D2E/DX2 analytically  !
 ! D144  D(43,29,30,42)         -0.9982         calculate D2E/DX2 analytically  !
 --------------------------------------------------------------------------------
 Trust Radius=3.00D-01 FncErr=1.00D-07 GrdErr=1.00D-06 EigMax=2.50D+02 EigMin=1.00D-04
 Number of steps in this run=    276 maximum allowed number of steps=    276.
 Search for a saddle point of order  1.
 GradGradGradGradGradGradGradGradGradGradGradGradGradGradGradGradGradGrad

                          Input orientation:                          
 ---------------------------------------------------------------------
 Center     Atomic      Atomic             Coordinates (Angstroms)
 Number     Number       Type             X           Y           Z
 ---------------------------------------------------------------------
      1          6           0        1.815790    2.856660   -0.073354
      2          6           0        3.090452    2.338675    0.249815
      3          6           0        3.275549    0.958206    0.357328
      4          6           0        2.106164    0.192306    0.243066
      5          6           0        0.783938    0.620592    0.009633
      6          6           0        0.642765    2.004250   -0.264657
      7          6           0       -0.043060   -0.645841   -0.083120
      8          6           0        2.183457   -1.205563    0.190498
      9          6           0        0.901264   -1.704059   -0.048627
     10          6           0        4.503884    0.201687    0.505945
     11          6           0        3.336093   -1.953276    0.264685
     12          6           0        4.540115   -1.175497    0.460718
     13          6           0        0.696095   -3.075355   -0.219246
     14          6           0        3.137985   -3.373439    0.092859
     15          6           0        1.883178   -3.899479   -0.139725
     16          6           0       -1.391833   -1.058511   -0.123912
     17          6           0       -1.647291   -2.462789   -0.433504
     18          6           0       -0.633457   -3.435675   -0.482321
     19          6           0       -2.546082   -0.240302    0.217069
     20          6           0       -3.003634   -2.873954   -0.685841
     21          6           0       -3.866275   -0.710080   -0.021268
     22          6           0       -4.058040   -2.034832   -0.538262
     23          6           0       -0.525764    2.610640   -0.808704
     24          6           0        1.677062    4.261006   -0.300131
     25          6           0        0.511409    4.802586   -0.768000
     26          6           0       -0.591673    3.957293   -1.055548
     27          6           0       -2.450758    0.975169    0.900546
     28          6           0       -3.514991    1.728181    1.282005
     29          6           0       -4.986571    0.096258    0.322299
     30          6           0       -4.843912    1.305749    0.961676
     31          1           0        5.495943   -1.680279    0.556710
     32          1           0        3.989867   -4.044313    0.135531
     33          1           0        1.781203   -4.971611   -0.273367
     34          1           0       -0.905991   -4.461634   -0.708843
     35          1           0        5.434019    0.745764    0.635142
     36          1           0        3.922102    3.029080    0.351293
     37          1           0        2.539957    4.894106   -0.120960
     38          1           0        0.436688    5.868791   -0.949288
     39          1           0       -1.493071    4.381736   -1.484145
     40          1           0       -2.350907    1.889092    1.409702
     41          1           0       -3.448884    2.668509    1.847209
     42          1           0       -5.713782    1.898035    1.228836
     43          1           0       -5.976279   -0.285665    0.092687
     44          1           0       -5.067814   -2.375282   -0.741875
     45          1           0       -3.166582   -3.900985   -0.995870
     46          1           0       -1.367636    1.981032   -1.054295
 ---------------------------------------------------------------------
                    Distance matrix (angstroms):
                    1          2          3          4          5
     1  C    0.000000
     2  C    1.413333   0.000000
     3  C    2.433210   1.396966   0.000000
     4  C    2.698744   2.361306   1.402541   0.000000
     5  C    2.464063   2.886088   2.538307   1.409327   0.000000
     6  C    1.462596   2.523429   2.900453   2.383791   1.417630
     7  C    3.965215   4.340170   3.712159   2.329818   1.515382
     8  C    4.087353   3.658932   2.429484   1.400991   2.307858
     9  C    4.651573   4.607093   3.590221   2.265628   2.328339
    10  C    3.822345   2.574900   1.450246   2.412106   3.776216
    11  C    5.055796   4.299000   2.913585   2.473199   3.633640
    12  C    4.895454   3.807284   2.482439   2.800424   4.187873
    13  C    6.038527   5.938408   4.822410   3.588821   3.704069
    14  C    6.371025   5.714468   4.341891   3.715071   4.636890
    15  C    6.756801   6.365832   5.077683   4.115696   4.654211
    16  C    5.061617   5.636615   5.107171   3.732988   2.751581
    17  C    6.357608   6.779911   6.046733   4.647117   3.951517
    18  C    6.764580   6.909894   5.940667   4.603689   4.324850
    19  C    5.357373   6.198606   5.945375   4.672389   3.445751
    20  C    7.512784   8.073713   7.429791   6.031157   5.200119
    21  C    6.708965   7.600292   7.343852   6.046007   4.836954
    22  C    7.657984   8.417218   7.971316   6.600608   5.549434
    23  C    2.466605   3.777757   4.305827   3.725803   2.518985
    24  C    1.429287   2.448565   3.727721   4.127167   3.761149
    25  C    2.443475   3.709214   4.866836   4.981986   4.262401
    26  C    2.823469   4.228704   5.093736   4.810390   3.763043
    27  C    4.763604   5.743484   5.752040   4.670192   3.373827
    28  C    5.614952   6.713419   6.896327   5.919095   4.618060
    29  C    7.351767   8.382839   8.307034   7.093828   5.802711
    30  C    6.915797   8.032921   8.149336   7.075289   5.748784
    31  H    5.875740   4.693886   3.454201   3.885299   5.272219
    32  H    7.238347   6.447057   5.058126   4.637763   5.661729
    33  H    7.830902   7.445007   6.147648   5.199841   5.687474
    34  H    7.833860   7.945740   6.927962   5.624799   5.403803
    35  H    4.248462   2.859746   2.186620   3.396271   4.693632
    36  H    2.155598   1.085633   2.169467   3.369960   3.970594
    37  H    2.162839   2.640217   4.032513   4.735780   4.622075
    38  H    3.426677   4.576246   5.820672   6.035838   5.346373
    39  H    3.907013   5.309369   6.152342   5.786975   4.643527
    40  H    4.527362   5.581743   5.799228   4.909746   3.660128
    41  H    5.607206   6.739686   7.096681   6.289945   5.048508
    42  H    7.701241   8.869452   9.080247   8.064292   6.733400
    43  H    8.403459   9.440204   9.338821   8.097960   6.821197
    44  H    8.672032   9.474289   9.051635   7.683006   6.616874
    45  H    8.446350   8.923876   8.181927   6.789097   6.087882
    46  H    3.444295   4.658665   4.959639   4.117034   2.758987
                    6          7          8          9         10
     6  C    0.000000
     7  C    2.743409   0.000000
     8  C    3.589401   2.312041   0.000000
     9  C    3.723580   1.418719   1.396316   0.000000
    10  C    4.330277   4.662617   2.732076   4.113185   0.000000
    11  C    4.816247   3.639922   1.375917   2.467522   2.462886
    12  C    5.081958   4.645620   2.372290   3.712149   1.378403
    13  C    5.080088   2.543112   2.424099   1.397017   5.075841
    14  C    5.939148   4.194020   2.370726   2.794596   3.849396
    15  C    6.033925   3.781502   2.730641   2.406725   4.909639
    16  C    3.679661   1.411081   3.592099   2.383421   6.061707
    17  C    5.022679   2.449005   4.079783   2.686807   6.768970
    18  C    5.591861   2.879428   3.655282   2.354135   6.371761
    19  C    3.929226   2.553369   4.827108   3.754647   7.069712
    20  C    6.104957   3.754032   5.518823   4.125885   8.200168
    21  C    5.268612   3.824255   6.073681   4.870130   8.436162
    22  C    6.203758   4.272764   6.338380   4.994382   8.910608
    23  C    1.424484   3.371075   4.785571   4.607684   5.729635
    24  C    2.482736   5.204139   5.511854   6.020558   5.011861
    25  C    2.846277   5.519226   6.309700   6.557889   6.223429
    26  C    2.442073   4.736606   5.992417   5.940847   6.519781
    27  C    3.462166   3.064683   5.170658   4.394911   7.008640
    28  C    4.444695   4.421974   6.501581   5.749275   8.199683
    29  C    5.972803   5.015314   7.288444   6.168090   9.492817
    30  C    5.665282   5.286632   7.502354   6.564046   9.423796
    31  H    6.148474   5.670979   3.366308   4.634444   2.128040
    32  H    6.924475   5.278439   3.365210   3.879455   4.293010
    33  H    7.068151   4.698555   3.815769   3.391415   5.897740
    34  H    6.663603   3.961875   4.577718   3.362481   7.244931
    35  H    5.034833   5.696566   3.817268   5.197600   1.085294
    36  H    3.490519   5.423677   4.580496   5.629210   2.890768
    37  H    3.459950   6.112644   6.118011   6.798995   5.125311
    38  H    3.930123   6.589449   7.375419   7.640359   7.125718
    39  H    3.420729   5.416819   6.894867   6.695555   7.576063
    40  H    3.432027   3.739059   5.623505   5.061035   7.117041
    41  H    4.652183   5.129398   7.033946   6.452700   8.433903
    42  H    6.530505   6.352135   8.548500   7.639753  10.382720
    43  H    7.013070   5.946740   8.212008   7.023703  10.499624
    44  H    7.212403   5.354725   7.403951   6.046571   9.990757
    45  H    7.065239   4.602767   6.107019   4.719229   8.827424
    46  H    2.160042   3.098087   4.930939   4.442879   6.330495
                   11         12         13         14         15
    11  C    0.000000
    12  C    1.446734   0.000000
    13  C    2.909096   4.341463   0.000000
    14  C    1.444172   2.632914   2.479736   0.000000
    15  C    2.462157   3.852262   1.447297   1.380346   0.000000
    16  C    4.827515   5.961836   2.904512   5.091673   4.335556
    17  C    5.057785   6.382848   2.431584   4.899511   3.822904
    18  C    4.302656   5.723947   1.402408   3.815558   2.581848
    19  C    6.126706   7.151793   4.328927   6.491579   5.756320
    20  C    6.476364   7.817129   3.734470   6.210905   5.023035
    21  C    7.314466   8.433049   5.142853   7.494409   6.575904
    22  C    7.438049   8.698545   4.877116   7.346629   6.239696
    23  C    6.074161   6.450535   5.845591   7.074254   6.973678
    24  C    6.456679   6.191246   7.402096   7.782897   8.164663
    25  C    7.395062   7.312845   7.899189   8.630606   8.831898
    26  C    7.218392   7.414839   7.198325   8.304747   8.288093
    27  C    6.516729   7.327422   5.250082   7.127187   6.605101
    28  C    7.843814   8.601778   6.562085   8.467744   7.926670
    29  C    8.571502   9.612194   6.530321   8.837412   7.960705
    30  C    8.832866   9.719439   7.161028   9.293026   8.576784
    31  H    2.196533   1.085185   5.058348   2.939713   4.296736
    32  H    2.194661   2.939154   3.451620   1.085171   2.129526
    33  H    3.437663   4.749838   2.185446   2.128176   1.085231
    34  H    5.023434   6.467352   2.174432   4.263876   2.901616
    35  H    3.438510   2.126201   6.146450   4.746965   5.898065
    36  H    5.017447   4.251162   6.927970   6.455531   7.239008
    37  H    6.904288   6.417091   8.180574   8.291903   8.818098
    38  H    8.430007   8.273344   8.977639   9.685138   9.907917
    39  H    8.155465   8.429986   7.874047   9.169316   9.043508
    40  H    6.958220   7.601214   6.048423   7.717269   7.337285
    41  H    8.360693   8.973452   7.378554   9.108772   8.690067
    42  H    9.882430  10.732148   8.241242  10.364973   9.653907
    43  H    9.462071  10.560388   7.238802   9.623105   8.653596
    44  H    8.474486   9.756947   5.829742   8.308323   7.141572
    45  H    6.904155   8.303199   4.025554   6.419595   5.121822
    46  H    6.272444   6.867347   5.524793   7.091329   6.781198
                   16         17         18         19         20
    16  C    0.000000
    17  C    1.460515   0.000000
    18  C    2.520813   1.405969   0.000000
    19  C    1.455344   2.484053   3.789154   0.000000
    20  C    2.491887   1.439582   2.444318   2.821475   0.000000
    21  C    2.500960   2.857589   4.253534   1.421410   2.422428
    22  C    2.869416   2.450680   3.700440   2.465133   1.355610
    23  C    3.831669   5.209441   6.056075   3.641671   6.019610
    24  C    6.143812   7.501902   8.038071   6.193885   8.541975
    25  C    6.195937   7.586669   8.322336   5.979074   8.443432
    26  C    5.163961   6.535956   7.415276   4.801986   7.253976
    27  C    2.511313   3.774229   4.966936   1.397711   4.199767
    28  C    3.774924   4.898521   6.171020   2.438811   5.031257
    29  C    3.801939   4.274430   5.663176   2.465833   3.710868
    30  C    4.322624   5.134860   6.503396   2.867880   4.854982
    31  H    6.949194   7.253871   6.459918   8.176983   8.672462
    32  H    6.159953   5.882395   4.703967   7.562789   7.138168
    33  H    5.040124   4.251400   2.869380   6.430490   5.240703
    34  H    3.487038   2.149586   1.085439   4.622430   2.630848
    35  H    7.100974   7.847405   7.453014   8.051653   9.275847
    36  H    6.721021   7.860959   7.952427   7.248743   9.159000
    37  H    7.133907   8.470811   8.921120   7.234929   9.559982
    38  H    7.211952   8.603733   9.377439   6.897704   9.398979
    39  H    5.608634   6.926410   7.928083   5.036487   7.454135
    40  H    3.458346   4.778216   5.906143   2.448425   5.244422
    41  H    4.691210   5.897254   7.114380   3.454503   6.110113
    42  H    5.408358   6.190033   7.562157   3.953540   5.812295
    43  H    4.654176   4.874103   6.228880   3.432751   4.017706
    44  H    3.953302   3.435510   4.566763   3.440472   2.124301
    45  H    3.462615   2.166312   2.626208   3.906001   1.085110
    46  H    3.178839   4.495679   5.496079   2.817699   5.136452
                   21         22         23         24         25
    21  C    0.000000
    22  C    1.434930   0.000000
    23  C    4.775589   5.842133   0.000000
    24  C    7.451043   8.519723   2.799071   0.000000
    25  C    7.078927   8.226964   2.425286   1.367829   0.000000
    26  C    5.794577   6.941819   1.370675   2.410406   1.419153
    27  C    2.386104   3.703192   3.049902   5.410845   5.119336
    28  C    2.786941   4.215275   3.753036   5.989639   5.465015
    29  C    1.422421   2.478766   5.244052   7.882674   7.318884
    30  C    2.446532   3.745249   4.845966   7.269718   6.625640
    31  H    9.430083   9.623059   7.519129   7.114555   8.284200
    32  H    8.535846   8.322308   8.097586   8.632334   9.549014
    33  H    7.079421   6.541529   7.943501   9.233243   9.868737
    34  H    4.828064   3.981693   7.083192   9.106243   9.372209
    35  H    9.436410   9.960310   6.409483   5.229377   6.531363
    36  H    8.647481   9.493007   4.615647   2.642385   4.003869
    37  H    8.512147   9.576946   3.884051   1.085129   2.131207
    38  H    7.915697   9.101581   3.400239   2.131878   1.084086
    39  H    5.805058   6.974676   2.128071   3.386179   2.169774
    40  H    3.331623   4.701707   2.961943   4.977353   4.628573
    41  H    3.883334   5.308763   3.949918   5.781214   5.203607
    42  H    3.431954   4.618610   5.619155   7.908600   7.153794
    43  H    2.155280   2.671577   6.237724   8.910676   8.289824
    44  H    2.176205   1.084900   6.744932   9.472529   9.091216
    45  H    3.409002   2.118167   7.029240   9.516461   9.451544
    46  H    3.814764   4.861248   1.079569   3.877787   3.402050
                   26         27         28         29         30
    26  C    0.000000
    27  C    4.021886   0.000000
    28  C    4.356476   1.358356   0.000000
    29  C    6.010090   2.745396   2.397865   0.000000
    30  C    5.401982   2.416652   1.430766   1.375508   0.000000
    31  H    8.452258   8.385683   9.661293  10.634572  10.770003
    32  H    9.297036   8.201347   9.537242   9.887146  10.360566
    33  H    9.271875   7.392683   8.680787   8.475900   9.209926
    34  H    8.431923   5.876671   7.006009   6.203932   7.180568
    35  H    7.034296   7.892577   9.025982  10.445498  10.298353
    36  H    4.818189   6.718153   7.607162   9.379059   8.954632
    37  H    3.399732   6.427191   6.975227   8.936691   8.280696
    38  H    2.173164   5.975514   6.143215   8.021896   7.235874
    39  H    1.084604   4.267155   4.333717   5.816623   5.164482
    40  H    3.667399   1.050935   1.182070   3.368000   2.599248
    41  H    4.272074   2.181703   1.099110   3.362485   2.141819
    42  H    5.974525   3.406873   2.205983   2.144072   1.085749
    43  H    6.950908   3.830357   3.395290   1.085407   2.137755
    44  H    7.761168   4.557637   4.831745   2.692132   4.062291
    45  H    8.269598   5.280689   6.082566   4.585617   5.809948
    46  H    2.123141   2.450779   3.183295   4.306283   4.074879
                   31         32         33         34         35
    31  H    0.000000
    32  H    2.834486   0.000000
    33  H    5.032016   2.430077   0.000000
    34  H    7.093823   4.985634   2.769608   0.000000
    35  H    2.428100   5.027924   6.845205   8.313785   0.000000
    36  H    4.969631   7.077007   8.305703   8.974696   2.753179
    37  H    7.240140   9.058883   9.896025   9.987494   5.114296
    38  H    9.211544  10.586385  10.944355  10.420090   7.330016
    39  H    9.474145  10.182547   9.983584   8.896682   8.105322
    40  H    8.662624   8.776914   8.183905   6.848922   7.906467
    41  H   10.029321  10.164981   9.498531   7.989909   9.169080
    42  H   11.786179  11.430994  10.277327   8.204562  11.222908
    43  H   11.565991  10.651448   9.070315   6.617325  11.469656
    44  H   10.665942   9.251870   7.339582   4.655612  11.041993
    45  H    9.076419   7.246749   5.113592   2.346696   9.910742
    46  H    7.944133   8.150049   7.672306   6.468415   7.116361
                   36         37         38         39         40
    36  H    0.000000
    37  H    2.368896   0.000000
    38  H    4.680126   2.461682   0.000000
    39  H    5.875594   4.287903   2.494268   0.000000
    40  H    6.463006   5.940841   5.401252   3.914525   0.000000
    41  H    7.529888   6.685296   5.758461   4.225905   1.415788
    42  H    9.741643   8.883839   7.638024   5.598521   3.367747
    43  H   10.441856   9.970053   8.949256   6.661095   4.428026
    44  H   10.546124  10.540765   9.915004   7.680302   5.495066
    45  H   10.004503  10.520631  10.413177   8.464190   6.322744
    46  H    5.572738   4.962499   4.287340   2.442107   2.654535
                   41         42         43         44         45
    41  H    0.000000
    42  H    2.470987   0.000000
    43  H    4.265351   2.475537   0.000000
    44  H    5.896110   4.749970   2.426582   0.000000
    45  H    7.163871   6.713135   4.706367   2.450911   0.000000
    46  H    3.636337   4.910047   5.262421   5.724194   6.151239
                   46
    46  H    0.000000
 Stoichiometry    C30H16
 Framework group  C1[X(C30H16)]
 Deg. of freedom   132
 Full point group                 C1      NOp   1
 Largest Abelian subgroup         C1      NOp   1
 Largest concise Abelian subgroup C1      NOp   1
                         Standard orientation:                         
 ---------------------------------------------------------------------
 Center     Atomic      Atomic             Coordinates (Angstroms)
 Number     Number       Type             X           Y           Z
 ---------------------------------------------------------------------
      1          6           0        1.815789    2.856660   -0.073354
      2          6           0        3.090452    2.338676    0.249815
      3          6           0        3.275549    0.958207    0.357328
      4          6           0        2.106164    0.192306    0.243066
      5          6           0        0.783938    0.620592    0.009633
      6          6           0        0.642765    2.004250   -0.264657
      7          6           0       -0.043060   -0.645841   -0.083120
      8          6           0        2.183457   -1.205563    0.190498
      9          6           0        0.901264   -1.704059   -0.048627
     10          6           0        4.503884    0.201688    0.505945
     11          6           0        3.336093   -1.953275    0.264685
     12          6           0        4.540115   -1.175496    0.460718
     13          6           0        0.696096   -3.075355   -0.219246
     14          6           0        3.137986   -3.373438    0.092859
     15          6           0        1.883179   -3.899479   -0.139725
     16          6           0       -1.391833   -1.058511   -0.123912
     17          6           0       -1.647290   -2.462789   -0.433504
     18          6           0       -0.633456   -3.435675   -0.482321
     19          6           0       -2.546082   -0.240303    0.217069
     20          6           0       -3.003633   -2.873955   -0.685841
     21          6           0       -3.866275   -0.710081   -0.021268
     22          6           0       -4.058039   -2.034833   -0.538262
     23          6           0       -0.525765    2.610640   -0.808704
     24          6           0        1.677061    4.261006   -0.300131
     25          6           0        0.511408    4.802586   -0.768000
     26          6           0       -0.591674    3.957293   -1.055548
     27          6           0       -2.450758    0.975168    0.900546
     28          6           0       -3.514991    1.728180    1.282005
     29          6           0       -4.986571    0.096257    0.322299
     30          6           0       -4.843912    1.305748    0.961676
     31          1           0        5.495943   -1.680278    0.556710
     32          1           0        3.989868   -4.044312    0.135531
     33          1           0        1.781204   -4.971611   -0.273367
     34          1           0       -0.905990   -4.461634   -0.708843
     35          1           0        5.434019    0.745765    0.635142
     36          1           0        3.922101    3.029081    0.351293
     37          1           0        2.539956    4.894106   -0.120960
     38          1           0        0.436687    5.868791   -0.949288
     39          1           0       -1.493072    4.381736   -1.484145
     40          1           0       -2.350907    1.889091    1.409702
     41          1           0       -3.448885    2.668508    1.847209
     42          1           0       -5.713782    1.898034    1.228836
     43          1           0       -5.976279   -0.285666    0.092687
     44          1           0       -5.067813   -2.375283   -0.741875
     45          1           0       -3.166581   -3.900986   -0.995870
     46          1           0       -1.367636    1.981032   -1.054295
 ---------------------------------------------------------------------
 Rotational constants (GHZ):           0.2197402           0.1675745           0.0992599
 Standard basis: 6-311+G(d,p) (5D, 7F)
 There are   786 symmetry adapted cartesian basis functions of A   symmetry.
 There are   756 symmetry adapted basis functions of A   symmetry.
   756 basis functions,  1208 primitive gaussians,   786 cartesian basis functions
    98 alpha electrons       98 beta electrons
       nuclear repulsion energy      2580.3767309372 Hartrees.
 NAtoms=   46 NActive=   46 NUniq=   46 SFac= 1.00D+00 NAtFMM=   60 NAOKFM=F Big=F
 Integral buffers will be    131072 words long.
 Raffenetti 2 integral format.
 Two-electron integral symmetry is turned on.
 One-electron integrals computed using PRISM.
 NBasis=   756 RedAO= T EigKep=  1.26D-06  NBF=   756
 NBsUse=   735 1.00D-06 EigRej=  9.87D-07 NBFU=   735
 ExpMin= 4.38D-02 ExpMax= 4.56D+03 ExpMxC= 6.82D+02 IAcc=2 IRadAn=         4 AccDes= 0.00D+00
 Harris functional with IExCor=  402 and IRadAn=       4 diagonalized for initial guess.
 HarFok:  IExCor=  402 AccDes= 0.00D+00 IRadAn=         4 IDoV= 1 UseB2=F ITyADJ=14
 ICtDFT=  3500011 ScaDFX=  1.000000  1.000000  1.000000  1.000000
 FoFCou: FMM=F IPFlag=           0 FMFlag=      100000 FMFlg1=           0
         NFxFlg=           0 DoJE=T BraDBF=F KetDBF=T FulRan=T
         wScrn=  0.000000 ICntrl=       500 IOpCl=  0 I1Cent=   200000004 NGrid=           0
         NMat0=    1 NMatS0=      1 NMatT0=    0 NMatD0=    1 NMtDS0=    0 NMtDT0=    0
 Petite list used in FoFCou.
 Requested convergence on RMS density matrix=1.00D-08 within 128 cycles.
 Requested convergence on MAX density matrix=1.00D-06.
 Requested convergence on             energy=1.00D-06.
 No special actions if energy rises.
 SCF Done:  E(RB3LYP) =  -1152.97188777     A.U. after   16 cycles
            NFock= 16  Conv=0.70D-08     -V/T= 2.0042
 DoSCS=F DFT=T ScalE2(SS,OS)=  1.000000  1.000000
 Range of M.O.s used for correlation:     1   735
 NBasis=   756 NAE=    98 NBE=    98 NFC=     0 NFV=     0
 NROrb=    735 NOA=    98 NOB=    98 NVA=   637 NVB=   637

 **** Warning!!: The largest alpha MO coefficient is  0.14875970D+03

 Symmetrizing basis deriv contribution to polar:
 IMax=3 JMax=2 DiffMx= 0.00D+00
 G2DrvN: will do    47 centers at a time, making    1 passes.
 Calling FoFCou, ICntrl=  3107 FMM=F I1Cent=   0 AccDes= 0.00D+00.
 End of G2Drv F.D. properties file   721 does not exist.
 End of G2Drv F.D. properties file   722 does not exist.
 End of G2Drv F.D. properties file   788 does not exist.
          IDoAtm=1111111111111111111111111111111111111111111111
          Differentiating once with respect to nuclear coordinates.
 CalDSu exits because no D1Ps are significant.
          There are   141 degrees of freedom in the 1st order CPHF.  IDoFFX=6 NUNeed=     0.
    135 vectors produced by pass  0 Test12= 6.24D-14 1.00D-09 XBig12= 2.89D-01 1.15D-01.
 AX will form   135 AO Fock derivatives at one time.
    135 vectors produced by pass  1 Test12= 6.24D-14 1.00D-09 XBig12= 4.62D-02 3.99D-02.
    135 vectors produced by pass  2 Test12= 6.24D-14 1.00D-09 XBig12= 6.88D-04 3.95D-03.
    135 vectors produced by pass  3 Test12= 6.24D-14 1.00D-09 XBig12= 3.64D-06 1.70D-04.
    135 vectors produced by pass  4 Test12= 6.24D-14 1.00D-09 XBig12= 1.05D-08 8.18D-06.
    135 vectors produced by pass  5 Test12= 6.24D-14 1.00D-09 XBig12= 5.04D-11 4.06D-07.
    111 vectors produced by pass  6 Test12= 6.24D-14 1.00D-09 XBig12= 9.08D-12 2.14D-07.
     79 vectors produced by pass  7 Test12= 6.24D-14 1.00D-09 XBig12= 1.28D-12 6.69D-08.
     28 vectors produced by pass  8 Test12= 6.24D-14 1.00D-09 XBig12= 3.21D-14 1.52D-08.
      2 vectors produced by pass  9 Test12= 6.24D-14 1.00D-09 XBig12= 2.61D-16 1.29D-09.
      2 vectors produced by pass 10 Test12= 6.24D-14 1.00D-09 XBig12= 3.74D-16 1.24D-09.
 InvSVY:  IOpt=1 It=  1 EMax= 8.88D-16
 Solved reduced A of dimension  1032 with   141 vectors.
 End of Minotr F.D. properties file   721 does not exist.
 End of Minotr F.D. properties file   722 does not exist.
 End of Minotr F.D. properties file   788 does not exist.

 **********************************************************************

            Population analysis using the SCF Density.

 **********************************************************************

 Orbital symmetries:
       Occupied  (A) (A) (A) (A) (A) (A) (A) (A) (A) (A) (A) (A)
                 (A) (A) (A) (A) (A) (A) (A) (A) (A) (A) (A) (A)
                 (A) (A) (A) (A) (A) (A) (A) (A) (A) (A) (A) (A)
                 (A) (A) (A) (A) (A) (A) (A) (A) (A) (A) (A) (A)
                 (A) (A) (A) (A) (A) (A) (A) (A) (A) (A) (A) (A)
                 (A) (A) (A) (A) (A) (A) (A) (A) (A) (A) (A) (A)
                 (A) (A) (A) (A) (A) (A) (A) (A) (A) (A) (A) (A)
                 (A) (A) (A) (A) (A) (A) (A) (A) (A) (A) (A) (A)
                 (A) (A)
       Virtual   (A) (A) (A) (A) (A) (A) (A) (A) (A) (A) (A) (A)
                 (A) (A) (A) (A) (A) (A) (A) (A) (A) (A) (A) (A)
                 (A) (A) (A) (A) (A) (A) (A) (A) (A) (A) (A) (A)
                 (A) (A) (A) (A) (A) (A) (A) (A) (A) (A) (A) (A)
                 (A) (A) (A) (A) (A) (A) (A) (A) (A) (A) (A) (A)
                 (A) (A) (A) (A) (A) (A) (A) (A) (A) (A) (A) (A)
                 (A) (A) (A) (A) (A) (A) (A) (A) (A) (A) (A) (A)
                 (A) (A) (A) (A) (A) (A) (A) (A) (A) (A) (A) (A)
                 (A) (A) (A) (A) (A) (A) (A) (A) (A) (A) (A) (A)
                 (A) (A) (A) (A) (A) (A) (A) (A) (A) (A) (A) (A)
                 (A) (A) (A) (A) (A) (A) (A) (A) (A) (A) (A) (A)
                 (A) (A) (A) (A) (A) (A) (A) (A) (A) (A) (A) (A)
                 (A) (A) (A) (A) (A) (A) (A) (A) (A) (A) (A) (A)
                 (A) (A) (A) (A) (A) (A) (A) (A) (A) (A) (A) (A)
                 (A) (A) (A) (A) (A) (A) (A) (A) (A) (A) (A) (A)
                 (A) (A) (A) (A) (A) (A) (A) (A) (A) (A) (A) (A)
                 (A) (A) (A) (A) (A) (A) (A) (A) (A) (A) (A) (A)
                 (A) (A) (A) (A) (A) (A) (A) (A) (A) (A) (A) (A)
                 (A) (A) (A) (A) (A) (A) (A) (A) (A) (A) (A) (A)
                 (A) (A) (A) (A) (A) (A) (A) (A) (A) (A) (A) (A)
                 (A) (A) (A) (A) (A) (A) (A) (A) (A) (A) (A) (A)
                 (A) (A) (A) (A) (A) (A) (A) (A) (A) (A) (A) (A)
                 (A) (A) (A) (A) (A) (A) (A) (A) (A) (A) (A) (A)
                 (A) (A) (A) (A) (A) (A) (A) (A) (A) (A) (A) (A)
                 (A) (A) (A) (A) (A) (A) (A) (A) (A) (A) (A) (A)
                 (A) (A) (A) (A) (A) (A) (A) (A) (A) (A) (A) (A)
                 (A) (A) (A) (A) (A) (A) (A) (A) (A) (A) (A) (A)
                 (A) (A) (A) (A) (A) (A) (A) (A) (A) (A) (A) (A)
                 (A) (A) (A) (A) (A) (A) (A) (A) (A) (A) (A) (A)
                 (A) (A) (A) (A) (A) (A) (A) (A) (A) (A) (A) (A)
                 (A) (A) (A) (A) (A) (A) (A) (A) (A) (A) (A) (A)
                 (A) (A) (A) (A) (A) (A) (A) (A) (A) (A) (A) (A)
                 (A) (A) (A) (A) (A) (A) (A) (A) (A) (A) (A) (A)
                 (A) (A) (A) (A) (A) (A) (A) (A) (A) (A) (A) (A)
                 (A) (A) (A) (A) (A) (A) (A) (A) (A) (A) (A) (A)
                 (A) (A) (A) (A) (A) (A) (A) (A) (A) (A) (A) (A)
                 (A) (A) (A) (A) (A) (A) (A) (A) (A) (A) (A) (A)
                 (A) (A) (A) (A) (A) (A) (A) (A) (A) (A) (A) (A)
                 (A) (A) (A) (A) (A) (A) (A) (A) (A) (A) (A) (A)
                 (A) (A) (A) (A) (A) (A) (A) (A) (A) (A) (A) (A)
                 (A) (A) (A) (A) (A) (A) (A) (A) (A) (A) (A) (A)
                 (A) (A) (A) (A) (A) (A) (A) (A) (A) (A) (A) (A)
                 (A) (A) (A) (A) (A) (A) (A) (A) (A) (A) (A) (A)
                 (A) (A) (A) (A) (A) (A) (A) (A) (A) (A) (A) (A)
                 (A) (A) (A) (A) (A) (A) (A) (A) (A) (A) (A) (A)
                 (A) (A) (A) (A) (A) (A) (A) (A) (A) (A) (A) (A)
                 (A) (A) (A) (A) (A) (A) (A) (A) (A) (A) (A) (A)
                 (A) (A) (A) (A) (A) (A) (A) (A) (A) (A) (A) (A)
                 (A) (A) (A) (A) (A) (A) (A) (A) (A) (A) (A) (A)
                 (A) (A) (A) (A) (A) (A) (A) (A) (A) (A) (A) (A)
                 (A) (A) (A) (A) (A) (A) (A) (A) (A) (A) (A) (A)
                 (A) (A) (A) (A) (A) (A) (A) (A) (A) (A) (A) (A)
                 (A) (A) (A) (A) (A) (A) (A) (A) (A) (A) (A) (A)
                 (A)
 The electronic state is 1-A.
 Alpha  occ. eigenvalues --  -10.20484 -10.20399 -10.19715 -10.19672 -10.19662
 Alpha  occ. eigenvalues --  -10.19613 -10.19545 -10.19424 -10.19354 -10.19216
 Alpha  occ. eigenvalues --  -10.19019 -10.18971 -10.18969 -10.18934 -10.18892
 Alpha  occ. eigenvalues --  -10.18864 -10.18863 -10.18792 -10.18632 -10.18585
 Alpha  occ. eigenvalues --  -10.18348 -10.18179 -10.18004 -10.17898 -10.17718
 Alpha  occ. eigenvalues --  -10.17425 -10.16826 -10.16774 -10.16533 -10.16462
 Alpha  occ. eigenvalues --   -0.91735  -0.90017  -0.87748  -0.86404  -0.84262
 Alpha  occ. eigenvalues --   -0.83418  -0.81290  -0.79835  -0.77842  -0.77628
 Alpha  occ. eigenvalues --   -0.76611  -0.74879  -0.72813  -0.71871  -0.71150
 Alpha  occ. eigenvalues --   -0.67303  -0.64995  -0.64653  -0.63039  -0.62042
 Alpha  occ. eigenvalues --   -0.61175  -0.59530  -0.58521  -0.56718  -0.55496
 Alpha  occ. eigenvalues --   -0.54209  -0.52620  -0.51740  -0.50981  -0.49979
 Alpha  occ. eigenvalues --   -0.48597  -0.48227  -0.47557  -0.46249  -0.45656
 Alpha  occ. eigenvalues --   -0.44961  -0.44388  -0.43691  -0.43213  -0.42933
 Alpha  occ. eigenvalues --   -0.42451  -0.42007  -0.40820  -0.40696  -0.40323
 Alpha  occ. eigenvalues --   -0.40165  -0.39982  -0.39202  -0.38669  -0.37311
 Alpha  occ. eigenvalues --   -0.36891  -0.35482  -0.35087  -0.34641  -0.34211
 Alpha  occ. eigenvalues --   -0.33614  -0.33508  -0.32953  -0.31281  -0.29798
 Alpha  occ. eigenvalues --   -0.28131  -0.27622  -0.26140  -0.24960  -0.24763
 Alpha  occ. eigenvalues --   -0.22361  -0.21365  -0.20431
 Alpha virt. eigenvalues --   -0.09905  -0.05494  -0.05121  -0.02975  -0.01626
 Alpha virt. eigenvalues --   -0.00295  -0.00161   0.00414   0.00568   0.00618
 Alpha virt. eigenvalues --    0.01422   0.01605   0.01694   0.02485   0.02659
 Alpha virt. eigenvalues --    0.03043   0.03357   0.03900   0.03979   0.04239
 Alpha virt. eigenvalues --    0.04483   0.05119   0.05436   0.05593   0.05964
 Alpha virt. eigenvalues --    0.06575   0.06692   0.07202   0.07298   0.07726
 Alpha virt. eigenvalues --    0.08182   0.08365   0.08506   0.08882   0.09151
 Alpha virt. eigenvalues --    0.09840   0.09942   0.10110   0.10602   0.11008
 Alpha virt. eigenvalues --    0.11137   0.11389   0.11984   0.12206   0.12522
 Alpha virt. eigenvalues --    0.12872   0.13038   0.13442   0.13575   0.14139
 Alpha virt. eigenvalues --    0.14223   0.14880   0.14931   0.15150   0.15604
 Alpha virt. eigenvalues --    0.15636   0.16095   0.16317   0.16407   0.16548
 Alpha virt. eigenvalues --    0.16825   0.17080   0.17160   0.17407   0.17564
 Alpha virt. eigenvalues --    0.17805   0.18303   0.18396   0.18550   0.18646
 Alpha virt. eigenvalues --    0.19360   0.19625   0.19667   0.19857   0.19904
 Alpha virt. eigenvalues --    0.20025   0.20352   0.20529   0.20592   0.20829
 Alpha virt. eigenvalues --    0.20981   0.21217   0.21569   0.21925   0.22081
 Alpha virt. eigenvalues --    0.22260   0.22311   0.22787   0.22937   0.23206
 Alpha virt. eigenvalues --    0.23336   0.23671   0.23739   0.23921   0.24065
 Alpha virt. eigenvalues --    0.24405   0.24748   0.24861   0.25137   0.25284
 Alpha virt. eigenvalues --    0.25391   0.25702   0.25875   0.26133   0.26369
 Alpha virt. eigenvalues --    0.26743   0.26879   0.27571   0.27801   0.27853
 Alpha virt. eigenvalues --    0.28018   0.28453   0.28719   0.28851   0.29116
 Alpha virt. eigenvalues --    0.29506   0.29667   0.30252   0.30280   0.30568
 Alpha virt. eigenvalues --    0.30685   0.31153   0.31408   0.31927   0.32130
 Alpha virt. eigenvalues --    0.32404   0.32669   0.32821   0.33040   0.33362
 Alpha virt. eigenvalues --    0.33555   0.34215   0.34680   0.35105   0.35615
 Alpha virt. eigenvalues --    0.36114   0.36490   0.36717   0.37633   0.37763
 Alpha virt. eigenvalues --    0.38433   0.39142   0.39497   0.40276   0.40469
 Alpha virt. eigenvalues --    0.41383   0.41961   0.42426   0.42647   0.43750
 Alpha virt. eigenvalues --    0.44587   0.44764   0.45175   0.45791   0.46094
 Alpha virt. eigenvalues --    0.47402   0.47653   0.48140   0.49091   0.50313
 Alpha virt. eigenvalues --    0.50703   0.51219   0.52057   0.52271   0.52726
 Alpha virt. eigenvalues --    0.52980   0.53280   0.53508   0.53781   0.54019
 Alpha virt. eigenvalues --    0.54379   0.54556   0.55294   0.55653   0.55989
 Alpha virt. eigenvalues --    0.56456   0.56901   0.57232   0.57652   0.58127
 Alpha virt. eigenvalues --    0.58259   0.58539   0.58935   0.59475   0.59698
 Alpha virt. eigenvalues --    0.60138   0.60493   0.60549   0.61012   0.61439
 Alpha virt. eigenvalues --    0.61946   0.62335   0.63272   0.63767   0.64089
 Alpha virt. eigenvalues --    0.64295   0.64854   0.64982   0.65621   0.65814
 Alpha virt. eigenvalues --    0.66158   0.66691   0.67032   0.68076   0.68358
 Alpha virt. eigenvalues --    0.68429   0.68991   0.69188   0.69739   0.70000
 Alpha virt. eigenvalues --    0.70461   0.71101   0.71417   0.71803   0.71922
 Alpha virt. eigenvalues --    0.72021   0.72288   0.72496   0.72908   0.72938
 Alpha virt. eigenvalues --    0.73363   0.73737   0.74386   0.74699   0.75082
 Alpha virt. eigenvalues --    0.75271   0.75748   0.75876   0.76325   0.76633
 Alpha virt. eigenvalues --    0.76763   0.77684   0.78149   0.78914   0.79121
 Alpha virt. eigenvalues --    0.79702   0.80841   0.81478   0.82227   0.82632
 Alpha virt. eigenvalues --    0.83290   0.83900   0.84414   0.84658   0.85379
 Alpha virt. eigenvalues --    0.85988   0.86822   0.87076   0.87433   0.88488
 Alpha virt. eigenvalues --    0.89160   0.89354   0.89948   0.90516   0.90913
 Alpha virt. eigenvalues --    0.91327   0.91700   0.92249   0.92614   0.92928
 Alpha virt. eigenvalues --    0.92941   0.93220   0.94411   0.95020   0.95236
 Alpha virt. eigenvalues --    0.95828   0.95978   0.96369   0.97067   0.97385
 Alpha virt. eigenvalues --    0.97571   0.97866   0.98243   0.98392   0.99279
 Alpha virt. eigenvalues --    0.99406   1.00385   1.00439   1.01414   1.01740
 Alpha virt. eigenvalues --    1.01925   1.02541   1.03757   1.03782   1.03881
 Alpha virt. eigenvalues --    1.04574   1.04995   1.05816   1.06005   1.06464
 Alpha virt. eigenvalues --    1.07421   1.07677   1.08479   1.08846   1.09270
 Alpha virt. eigenvalues --    1.10087   1.11339   1.11719   1.12592   1.12780
 Alpha virt. eigenvalues --    1.14475   1.14759   1.16115   1.16578   1.17229
 Alpha virt. eigenvalues --    1.17319   1.17984   1.18925   1.20650   1.21756
 Alpha virt. eigenvalues --    1.24149   1.24492   1.25056   1.27279   1.27689
 Alpha virt. eigenvalues --    1.29394   1.30818   1.32026   1.33424   1.34053
 Alpha virt. eigenvalues --    1.35987   1.36396   1.37077   1.37748   1.39811
 Alpha virt. eigenvalues --    1.41098   1.41996   1.42550   1.43835   1.44443
 Alpha virt. eigenvalues --    1.46342   1.46943   1.47419   1.48182   1.48749
 Alpha virt. eigenvalues --    1.49445   1.49583   1.50338   1.50430   1.51015
 Alpha virt. eigenvalues --    1.51829   1.52073   1.52747   1.53152   1.54162
 Alpha virt. eigenvalues --    1.54962   1.55322   1.56054   1.56827   1.57066
 Alpha virt. eigenvalues --    1.57544   1.58267   1.59290   1.59516   1.60180
 Alpha virt. eigenvalues --    1.61546   1.62384   1.62590   1.63465   1.64497
 Alpha virt. eigenvalues --    1.65165   1.66372   1.66845   1.67693   1.68478
 Alpha virt. eigenvalues --    1.68961   1.69929   1.70393   1.70789   1.71664
 Alpha virt. eigenvalues --    1.72293   1.73484   1.73786   1.74272   1.74497
 Alpha virt. eigenvalues --    1.75317   1.75410   1.75553   1.77221   1.77619
 Alpha virt. eigenvalues --    1.78436   1.79152   1.79814   1.81361   1.82638
 Alpha virt. eigenvalues --    1.82944   1.83367   1.83689   1.84462   1.85040
 Alpha virt. eigenvalues --    1.85582   1.85769   1.87501   1.87962   1.88033
 Alpha virt. eigenvalues --    1.88944   1.89341   1.89626   1.90778   1.91555
 Alpha virt. eigenvalues --    1.91825   1.92387   1.93062   1.93542   1.94270
 Alpha virt. eigenvalues --    1.94797   1.95080   1.95709   1.96125   1.96286
 Alpha virt. eigenvalues --    1.97291   1.97632   1.98700   1.98995   1.99849
 Alpha virt. eigenvalues --    2.00344   2.01727   2.02618   2.03490   2.03999
 Alpha virt. eigenvalues --    2.04483   2.05264   2.06549   2.06837   2.08060
 Alpha virt. eigenvalues --    2.08413   2.09150   2.09338   2.10584   2.11404
 Alpha virt. eigenvalues --    2.12109   2.13130   2.14402   2.15561   2.16937
 Alpha virt. eigenvalues --    2.17283   2.17630   2.18271   2.19781   2.20152
 Alpha virt. eigenvalues --    2.21560   2.23616   2.23664   2.24420   2.25221
 Alpha virt. eigenvalues --    2.26167   2.26501   2.27570   2.29676   2.31254
 Alpha virt. eigenvalues --    2.31802   2.32689   2.34945   2.35255   2.38328
 Alpha virt. eigenvalues --    2.39054   2.40530   2.41328   2.41528   2.42867
 Alpha virt. eigenvalues --    2.43453   2.43924   2.45411   2.46385   2.47637
 Alpha virt. eigenvalues --    2.48281   2.49348   2.51329   2.54853   2.55716
 Alpha virt. eigenvalues --    2.56155   2.57394   2.59000   2.60709   2.61125
 Alpha virt. eigenvalues --    2.63537   2.64310   2.64809   2.65996   2.66784
 Alpha virt. eigenvalues --    2.67821   2.69249   2.69796   2.70361   2.71273
 Alpha virt. eigenvalues --    2.71673   2.72139   2.72642   2.73003   2.73372
 Alpha virt. eigenvalues --    2.73983   2.74213   2.74625   2.74702   2.75219
 Alpha virt. eigenvalues --    2.75945   2.76053   2.76633   2.77094   2.77293
 Alpha virt. eigenvalues --    2.77854   2.78514   2.78828   2.79069   2.80107
 Alpha virt. eigenvalues --    2.80779   2.81472   2.81854   2.83316   2.83966
 Alpha virt. eigenvalues --    2.84235   2.84611   2.85357   2.86823   2.86989
 Alpha virt. eigenvalues --    2.88171   2.88480   2.88792   2.89728   2.91841
 Alpha virt. eigenvalues --    2.91980   2.92408   2.93152   2.93853   2.94766
 Alpha virt. eigenvalues --    2.96119   2.97820   2.98422   2.99915   3.00747
 Alpha virt. eigenvalues --    3.02224   3.04102   3.05965   3.08222   3.09498
 Alpha virt. eigenvalues --    3.10960   3.12642   3.13617   3.15240   3.15797
 Alpha virt. eigenvalues --    3.17039   3.18175   3.19039   3.20816   3.22232
 Alpha virt. eigenvalues --    3.22497   3.24537   3.25497   3.27007   3.28610
 Alpha virt. eigenvalues --    3.31337   3.32293   3.34572   3.35715   3.36642
 Alpha virt. eigenvalues --    3.38560   3.39021   3.40009   3.43318   3.43976
 Alpha virt. eigenvalues --    3.44223   3.45635   3.47312   3.48696   3.49554
 Alpha virt. eigenvalues --    3.50519   3.53355   3.53901   3.54647   3.56289
 Alpha virt. eigenvalues --    3.56494   3.59530   3.60160   3.62928   3.64211
 Alpha virt. eigenvalues --    3.65849   3.69011   3.70444   3.73271   3.82049
 Alpha virt. eigenvalues --    3.82723   3.85033   3.87475   3.94701   4.03802
 Alpha virt. eigenvalues --    4.04520   4.05479   4.06789   4.07335   4.08528
 Alpha virt. eigenvalues --    4.10963   4.13405   4.19518   4.21614   4.24889
 Alpha virt. eigenvalues --    4.29127   4.34805   4.48914   4.62788   4.73950
 Alpha virt. eigenvalues --    4.75746   4.76958   4.78209   4.81527   4.82857
 Alpha virt. eigenvalues --    4.83580   4.87787  23.42477  23.59919  23.68379
 Alpha virt. eigenvalues --   23.78184  23.82890  23.85246  23.86129  23.87488
 Alpha virt. eigenvalues --   23.89436  23.93343  23.94518  23.95649  23.98865
 Alpha virt. eigenvalues --   23.99254  23.99830  24.00515  24.04711  24.06372
 Alpha virt. eigenvalues --   24.08032  24.11514  24.11812  24.13221  24.13855
 Alpha virt. eigenvalues --   24.14472  24.14481  24.17235  24.20514  24.20720
 Alpha virt. eigenvalues --   24.21313  24.40421
          Condensed to atoms (all electrons):
               1          2          3          4          5          6
     1  C   12.094273   0.792443  -0.239731  -0.367048  -0.674857  -0.511826
     2  C    0.792443   7.436559   0.840174   0.337476   0.792226   0.002046
     3  C   -0.239731   0.840174   9.940096   0.347834  -0.018936  -1.370589
     4  C   -0.367048   0.337476   0.347834   7.158926   0.477898   0.328655
     5  C   -0.674857   0.792226  -0.018936   0.477898   8.513457   2.337161
     6  C   -0.511826   0.002046  -1.370589   0.328655   2.337161  10.462173
     7  C   -0.757615   0.102382  -0.558452   0.085963  -0.115772   0.544618
     8  C   -0.287128  -0.702994  -0.079311  -0.087380  -0.527220  -0.286406
     9  C   -0.237437  -0.024582   0.455934  -0.386937   0.340351  -0.241219
    10  C   -0.293769  -1.481656  -1.110879   0.272901  -1.629058  -0.772573
    11  C   -0.364303  -0.291552   0.335235   0.673590   0.223846   0.014353
    12  C   -0.022432   0.204104  -1.665817   0.731348  -0.679246  -0.068063
    13  C    0.124833  -0.054431  -0.351363   0.270623  -0.507706  -0.069641
    14  C   -0.121053   0.206776   0.471313  -1.054571   0.122845  -0.202124
    15  C   -0.108689  -0.034946  -0.102144  -0.839078  -0.278498  -0.119474
    16  C   -0.499616   0.041341  -0.300439  -0.119383   0.504839   0.268517
    17  C   -0.119755  -0.018665   0.127211  -0.311700  -0.550025  -0.289429
    18  C   -0.034638   0.025183  -0.049052   0.041634  -0.031853   0.020529
    19  C   -0.038784  -0.032026   0.123431   0.306830   0.848670   0.577292
    20  C    0.026387  -0.001338   0.069173  -0.030268   0.250998  -0.030142
    21  C   -0.041700   0.007245  -0.072362  -0.125863  -0.433943  -0.213443
    22  C    0.001157   0.001863   0.008818  -0.059755   0.001919  -0.059856
    23  C   -1.511643  -0.657747  -0.687428  -0.730742  -1.471890  -0.840479
    24  C   -1.796431  -1.673956  -0.086467  -0.986221  -1.166185  -2.010667
    25  C   -1.193295  -0.581232  -0.418174  -0.144292   0.038804   0.809828
    26  C    1.453875   0.271531   0.196471   0.308731  -0.494752  -2.016654
    27  C    0.180500   0.004329  -0.081100  -0.056482   0.069429   0.027230
    28  C    0.156438   0.039583  -0.009703  -0.203275  -0.181601  -0.261609
    29  C    0.040040   0.004977  -0.003304  -0.026803   0.005195  -0.087538
    30  C   -0.010481  -0.003027   0.003139   0.014784  -0.010080  -0.003781
    31  H    0.001529  -0.005093  -0.017965  -0.001195  -0.000798  -0.000198
    32  H   -0.000299   0.000271   0.007212  -0.011849   0.001379  -0.000043
    33  H    0.000093   0.000311   0.002782  -0.001952   0.001910  -0.000431
    34  H    0.000090  -0.000024  -0.000026   0.003048  -0.000470  -0.000009
    35  H    0.032891   0.067477  -0.087571   0.015013  -0.007387   0.005132
    36  H   -0.066163   0.363161  -0.049786   0.023717  -0.016758  -0.009228
    37  H   -0.122564   0.073930   0.047666   0.002435  -0.008629  -0.018230
    38  H    0.039798   0.004973   0.002219   0.002191   0.003319   0.009957
    39  H   -0.005077   0.001452  -0.001568   0.002493  -0.000698   0.052877
    40  H   -0.019171  -0.002434  -0.008052  -0.002268  -0.036201  -0.013131
    41  H   -0.000022   0.000056   0.000585   0.000678   0.003397   0.004251
    42  H    0.000154   0.000009   0.000011  -0.000040   0.000232   0.000056
    43  H   -0.000021   0.000000  -0.000009  -0.000022  -0.000805  -0.000287
    44  H    0.000004   0.000000  -0.000002   0.000034   0.000064   0.000182
    45  H   -0.000015  -0.000000  -0.000015  -0.000484  -0.000811  -0.000363
    46  H    0.010005   0.005486   0.004975   0.002059   0.035562   0.047895
               7          8          9         10         11         12
     1  C   -0.757615  -0.287128  -0.237437  -0.293769  -0.364303  -0.022432
     2  C    0.102382  -0.702994  -0.024582  -1.481656  -0.291552   0.204104
     3  C   -0.558452  -0.079311   0.455934  -1.110879   0.335235  -1.665817
     4  C    0.085963  -0.087380  -0.386937   0.272901   0.673590   0.731348
     5  C   -0.115772  -0.527220   0.340351  -1.629058   0.223846  -0.679246
     6  C    0.544618  -0.286406  -0.241219  -0.772573   0.014353  -0.068063
     7  C    7.744261  -0.495832  -0.225858  -0.488251   0.402718   0.301271
     8  C   -0.495832   7.530462   0.335055   1.272055   0.719037  -1.225235
     9  C   -0.225858   0.335055   7.708580  -0.951250   0.248826  -1.185133
    10  C   -0.488251   1.272055  -0.951250  11.928992  -1.248675   1.938175
    11  C    0.402718   0.719037   0.248826  -1.248675  10.751252  -1.675450
    12  C    0.301271  -1.225235  -1.185133   1.938175  -1.675450  10.758207
    13  C    0.365362   0.119396   0.252081   0.068872   0.940283   0.361145
    14  C   -0.636669  -0.502441   1.213339  -0.692965  -1.771224  -0.788927
    15  C   -0.730446   0.778824   0.400602  -0.007649  -1.676267  -0.513314
    16  C    0.310469  -0.227615   0.487901  -0.292405  -0.266036  -0.100998
    17  C    0.401529   0.245454  -0.324412  -0.113861  -0.449897  -0.247087
    18  C    0.481494  -0.374492   0.125135  -0.066978  -0.104887   0.089689
    19  C    0.002075  -0.266622   0.033886   0.005281   0.006415   0.019500
    20  C   -0.629548   0.167474  -0.787543  -0.009685  -0.207688  -0.030080
    21  C    0.301409   0.080502  -0.474332  -0.023090  -0.099165  -0.013155
[...]
     24          6           0        1.999606    4.135468    0.029099
     25          6           0        1.002170    4.819963   -0.610847
     26          6           0       -0.045276    4.104122   -1.242920
     27          6           0       -2.284636    1.287566    0.542788
     28          6           0       -3.262241    2.139626    1.016772
     29          6           0       -4.914385    0.429305    0.672335
     30          6           0       -4.599029    1.711777    1.070823
     31          1           0        5.161271   -2.177561    0.947475
     32          1           0        3.538272   -4.379935    0.313423
     33          1           0        1.282100   -5.111378   -0.241151
     34          1           0       -1.324668   -4.408019   -0.587401
     35          1           0        5.292166    0.240520    1.149916
     36          1           0        3.988412    2.644098    0.951380
     37          1           0        2.839160    4.670612    0.460307
     38          1           0        1.031996    5.901765   -0.672081
     39          1           0       -0.790081    4.641104   -1.819325
     40          1           0       -1.286670    1.618392    0.440038
     41          1           0       -2.997691    3.156536    1.277939
     42          1           0       -5.380380    2.383990    1.406948
     43          1           0       -5.942096    0.083405    0.712707
     44          1           0       -5.291191   -2.133984   -0.066920
     45          1           0       -3.525612   -3.743650   -0.608494
     46          1           0       -0.909622    2.208803   -1.660665
 ---------------------------------------------------------------------
 Rotational constants (GHZ):           0.2121826           0.1720749           0.0998792
 Standard basis: 6-311+G(d,p) (5D, 7F)
 There are   786 symmetry adapted cartesian basis functions of A   symmetry.
 There are   756 symmetry adapted basis functions of A   symmetry.
   756 basis functions,  1208 primitive gaussians,   786 cartesian basis functions
    98 alpha electrons       98 beta electrons
       nuclear repulsion energy      2580.2450085786 Hartrees.
 NAtoms=   46 NActive=   46 NUniq=   46 SFac= 1.00D+00 NAtFMM=   60 NAOKFM=F Big=F
 Integral buffers will be    131072 words long.
 Raffenetti 2 integral format.
 Two-electron integral symmetry is turned on.
 One-electron integrals computed using PRISM.
 NBasis=   756 RedAO= T EigKep=  1.03D-06  NBF=   756
 NBsUse=   736 1.00D-06 EigRej=  7.66D-07 NBFU=   736
 Initial guess from the checkpoint file:  "7-memb-carbTSguess-1b.chk"
 B after Tr=    -0.000000   -0.000000   -0.000000
         Rot=    1.000000    0.000034   -0.000089   -0.000940 Ang=   0.11 deg.
 ExpMin= 4.38D-02 ExpMax= 4.56D+03 ExpMxC= 6.82D+02 IAcc=2 IRadAn=         4 AccDes= 0.00D+00
 Harris functional with IExCor=  402 and IRadAn=       4 diagonalized for initial guess.
 HarFok:  IExCor=  402 AccDes= 0.00D+00 IRadAn=         4 IDoV= 1 UseB2=F ITyADJ=14
 ICtDFT=  3500011 ScaDFX=  1.000000  1.000000  1.000000  1.000000
 FoFCou: FMM=F IPFlag=           0 FMFlag=      100000 FMFlg1=           0
         NFxFlg=           0 DoJE=T BraDBF=F KetDBF=T FulRan=T
         wScrn=  0.000000 ICntrl=       500 IOpCl=  0 I1Cent=   200000004 NGrid=           0
         NMat0=    1 NMatS0=      1 NMatT0=    0 NMatD0=    1 NMtDS0=    0 NMtDT0=    0
 Petite list used in FoFCou.
 Requested convergence on RMS density matrix=1.00D-08 within 128 cycles.
 Requested convergence on MAX density matrix=1.00D-06.
 Requested convergence on             energy=1.00D-06.
 No special actions if energy rises.
 SCF Done:  E(RB3LYP) =  -1153.12002291     A.U. after   12 cycles
            NFock= 12  Conv=0.50D-08     -V/T= 2.0045
 Calling FoFJK, ICntrl=      2127 FMM=F ISym2X=0 I1Cent= 0 IOpClX= 0 NMat=1 NMatS=1 NMatT=0.
 ***** Axes restored to original set *****
 -------------------------------------------------------------------
 Center     Atomic                   Forces (Hartrees/Bohr)
 Number     Number              X              Y              Z
 -------------------------------------------------------------------
      1        6           0.000912718   -0.002003687   -0.003668747
      2        6           0.000173889    0.000437154   -0.000419905
      3        6          -0.000016170   -0.000403846    0.000247225
      4        6          -0.000425715   -0.000165821    0.001209749
      5        6          -0.000295410    0.000307169   -0.000557318
      6        6          -0.000539411    0.000223755   -0.000515802
      7        6           0.000881386   -0.000726403    0.000362152
      8        6          -0.000304851    0.000200567    0.002233509
      9        6          -0.000151044   -0.000134448    0.002266204
     10        6           0.000289636    0.000404481   -0.000784447
     11        6          -0.000399667    0.000415535   -0.000024460
     12        6           0.000455113   -0.000240101   -0.000883849
     13        6          -0.000110772   -0.000135919    0.000157270
     14        6           0.000520952   -0.000016183   -0.000991181
     15        6           0.000010011   -0.000536985   -0.000933468
     16        6           0.000261409    0.000294282   -0.000073011
     17        6           0.000137619    0.000227897   -0.000700290
     18        6           0.000117264   -0.000189531   -0.000702574
     19        6           0.001698594    0.000419211    0.002102032
     20        6           0.000301152   -0.000683298   -0.000028765
     21        6           0.000968827    0.000337148   -0.002274592
     22        6          -0.000518510    0.000738556   -0.000402091
     23        6          -0.000782432   -0.000550273    0.000420898
     24        6           0.000066184    0.000134274    0.000153036
     25        6          -0.000041202    0.000175362   -0.000075749
     26        6           0.000019329   -0.000265861   -0.000015881
     27        6          -0.010970791   -0.007139062   -0.003075685
     28        6          -0.002510584    0.000887413   -0.004192680
     29        6          -0.000536529   -0.002144387    0.000058401
     30        6           0.001665622    0.001943225   -0.000344728
     31        1          -0.000119752    0.000001120    0.000204439
     32        1           0.000103830   -0.000029055    0.000305983
     33        1           0.000007364    0.000004487    0.000277533
     34        1          -0.000051382    0.000107720    0.000035726
     35        1          -0.000193861   -0.000065217    0.000199425
     36        1          -0.000031164   -0.000058027   -0.000029803
     37        1           0.000040784    0.000064317    0.000041541
     38        1          -0.000008520   -0.000029611   -0.000039657
     39        1          -0.000146570    0.000050094    0.000011370
     40        1           0.009819458    0.007846660    0.006314804
     41        1          -0.000118169    0.000287648    0.002858435
     42        1           0.000447658    0.000217866    0.000706466
     43        1           0.000018870   -0.000212649    0.000307974
     44        1          -0.000088212    0.000256326   -0.000169267
     45        1          -0.000014191   -0.000042942   -0.000221587
     46        1          -0.000542757   -0.000208963    0.000651362
 -------------------------------------------------------------------
 Cartesian Forces:  Max     0.010970791 RMS     0.001867388

 GradGradGradGradGradGradGradGradGradGradGradGradGradGradGradGradGradGrad
 Berny optimization.
 FormGI is forming the generalized inverse of G from B-inverse, IUseBI=4.
 Internal  Forces:  Max     0.008343951 RMS     0.000862455
 Search for a saddle point.
 Step number  14 out of a maximum of  276
 All quantities printed in internal units (Hartrees-Bohrs-Radians)
 Swapping is turned off.
 Update second derivatives using D2CorX and points   11   12   13   14
 ITU=  0  0  0  0  0  0  0  0  0  0  0  0  0  0
     Eigenvalues ---   -0.01691  -0.00308   0.00801   0.01137   0.01277
     Eigenvalues ---    0.01372   0.01416   0.01475   0.01495   0.01574
     Eigenvalues ---    0.01595   0.01642   0.01651   0.01728   0.01781
     Eigenvalues ---    0.01816   0.01843   0.01867   0.01915   0.01981
     Eigenvalues ---    0.02126   0.02142   0.02157   0.02190   0.02241
     Eigenvalues ---    0.02259   0.02296   0.02346   0.02355   0.02390
     Eigenvalues ---    0.02418   0.02459   0.02615   0.02633   0.02660
     Eigenvalues ---    0.02697   0.02751   0.02777   0.02831   0.02849
     Eigenvalues ---    0.02920   0.03248   0.06838   0.07493   0.10534
     Eigenvalues ---    0.10921   0.10960   0.11137   0.11209   0.11325
     Eigenvalues ---    0.11512   0.11628   0.11693   0.11933   0.12086
     Eigenvalues ---    0.12141   0.12268   0.12299   0.12398   0.14381
     Eigenvalues ---    0.14545   0.16321   0.16776   0.17070   0.17340
     Eigenvalues ---    0.17808   0.18583   0.18645   0.18863   0.18936
     Eigenvalues ---    0.19201   0.19273   0.19451   0.19580   0.19768
     Eigenvalues ---    0.19943   0.20646   0.21608   0.22182   0.22622
     Eigenvalues ---    0.23179   0.23875   0.24701   0.24977   0.25087
     Eigenvalues ---    0.27649   0.28606   0.29179   0.29812   0.31205
     Eigenvalues ---    0.32021   0.32511   0.32563   0.33434   0.33958
     Eigenvalues ---    0.34386   0.35094   0.35224   0.35387   0.35403
     Eigenvalues ---    0.35438   0.35472   0.35525   0.35540   0.35580
     Eigenvalues ---    0.35594   0.35616   0.35723   0.35761   0.36398
     Eigenvalues ---    0.36767   0.36922   0.37727   0.38512   0.39081
     Eigenvalues ---    0.39487   0.39847   0.41315   0.41699   0.42663
     Eigenvalues ---    0.43210   0.43552   0.45944   0.46226   0.46603
     Eigenvalues ---    0.47516   0.48941   0.49167   0.49795   0.50845
     Eigenvalues ---    0.51854   0.53961
 Eigenvectors required to have negative eigenvalues:
                          D93       D94       D95       D32       D96
   1                   -0.27492  -0.26378  -0.19337   0.18733  -0.18223
                         D139       D90       D55       D99       D19
   1                    0.18157   0.17413  -0.16912  -0.15518  -0.15493
 RFO step:  Lambda0=3.821370991D-04 Lambda=-4.81436973D-03.
 Linear search not attempted -- option 19 set.
 Maximum step size (   0.300) exceeded in Quadratic search.
    -- Step size scaled by   0.450
 Iteration  1 RMS(Cart)=  0.00252610 RMS(Int)=  0.01559805
 Iteration  2 RMS(Cart)=  0.03548512 RMS(Int)=  0.00599933
 SLEqS3 Cycle:   152 Max:0.128688E-01 RMS: 1193.61     Conv:0.788520E-02
 Iteration  3 RMS(Cart)=  0.00008745 RMS(Int)=  0.18379700
 New curvilinear step failed, DQL= 3.13D+00 SP=-9.32D-01.
 ITry= 1 IFail=1 DXMaxC= 1.64D-01 DCOld= 1.00D+10 DXMaxT= 3.00D-01 DXLimC= 3.00D+00 Rises=F
 Iteration  1 RMS(Cart)=  0.00042104 RMS(Int)=  0.01512663
 New curvilinear step failed, DQL= 3.10D+00 SP=-1.43D-01.
 ITry= 2 IFail=1 DXMaxC= 3.00D-03 DCOld= 1.00D+10 DXMaxT= 3.00D-01 DXLimC= 3.00D+00 Rises=F
 Iteration  1 RMS(Cart)=  0.00037455 RMS(Int)=  0.01324741
 SLEqS3 Cycle:   135 Max:0.284138E-01 RMS: 3431.75     Conv:0.223427E-01
 New curvilinear step failed, DQL= 3.11D+00 SP=-5.61D-02.
 ITry= 3 IFail=1 DXMaxC= 2.67D-03 DCOld= 1.00D+10 DXMaxT= 3.00D-01 DXLimC= 3.00D+00 Rises=F
 Iteration  1 RMS(Cart)=  0.00033231 RMS(Int)=  0.01152001
 SLEqS3 Cycle:   155 Max:0.219233E-01 RMS: 1125.41     Conv:0.739274E-02
 Iteration  2 RMS(Cart)=  0.00002305 RMS(Int)=  0.18401770
 Iteration  3 RMS(Cart)=  0.02362274 RMS(Int)=  0.18349780
 Iteration  4 RMS(Cart)=  0.00108840 RMS(Int)=  0.18214315
 Iteration  5 RMS(Cart)=  0.00100353 RMS(Int)=  0.17882576
 New curvilinear step failed, DQL= 3.14D+00 SP=-9.77D-01.
 ITry= 4 IFail=1 DXMaxC= 1.11D-01 DCOld= 1.00D+10 DXMaxT= 3.00D-01 DXLimC= 3.00D+00 Rises=F
 Iteration  1 RMS(Cart)=  0.00029431 RMS(Int)=  0.00986102
 SLEqS3 Cycle:   135 Max:0.206907E-01 RMS: 694.958     Conv:0.466894E-02
 Iteration  2 RMS(Cart)=  0.00001932 RMS(Int)=  0.18410339
 Iteration  3 RMS(Cart)=  0.01820541 RMS(Int)=  0.18331819
 Iteration  4 RMS(Cart)=  0.00088259 RMS(Int)=  0.17968926
 New curvilinear step failed, DQL= 3.14D+00 SP=-9.72D-01.
 ITry= 5 IFail=1 DXMaxC= 8.56D-02 DCOld= 1.00D+10 DXMaxT= 3.00D-01 DXLimC= 3.00D+00 Rises=F
 Iteration  1 RMS(Cart)=  0.00025340 RMS(Int)=  0.00820749
 SLEqS3 Cycle:   150 Max:0.157663E-01 RMS: 403.456     Conv:0.277119E-02
 Iteration  2 RMS(Cart)=  0.00001496 RMS(Int)=  0.18415592
 Iteration  3 RMS(Cart)=  0.00150302 RMS(Int)=  0.00769625
 SLEqS3 Cycle:  1381 Max:0.407762E-02 RMS:0.620083E-03 Conv:0.565404E-05
 SLEqS3 Cycle:  1381 Max:0.191822E-02 RMS:0.222250E-03 Conv:0.565404E-05
 Iteration  4 RMS(Cart)=  0.00001327 RMS(Int)=  0.00769083
 Iteration  5 RMS(Cart)=  0.00001360 RMS(Int)=  0.00768544
 Iteration  6 RMS(Cart)=  0.00001354 RMS(Int)=  0.00768008
 Iteration  7 RMS(Cart)=  0.00001346 RMS(Int)=  0.00767475
 Iteration  8 RMS(Cart)=  0.00001334 RMS(Int)=  0.18420196
 Iteration  9 RMS(Cart)=  0.00147888 RMS(Int)=  0.00724009
 Iteration 10 RMS(Cart)=  0.00001429 RMS(Int)=  0.00723442
 Iteration 11 RMS(Cart)=  0.00001424 RMS(Int)=  0.00722876
 Iteration 12 RMS(Cart)=  0.00001420 RMS(Int)=  0.00722313
 Iteration 13 RMS(Cart)=  0.00001415 RMS(Int)=  0.00721751
 Iteration 14 RMS(Cart)=  0.00001411 RMS(Int)=  0.00721191
 Iteration 15 RMS(Cart)=  0.00001406 RMS(Int)=  0.00720633
 Iteration 16 RMS(Cart)=  0.00001402 RMS(Int)=  0.00720076
 Iteration 17 RMS(Cart)=  0.00001397 RMS(Int)=  0.00719522
 Iteration 18 RMS(Cart)=  0.00001392 RMS(Int)=  0.00718969
 Iteration 19 RMS(Cart)=  0.00001388 RMS(Int)=  0.00718418
 Iteration 20 RMS(Cart)=  0.00001383 RMS(Int)=  0.00717869
 Iteration 21 RMS(Cart)=  0.00001379 RMS(Int)=  0.00717322
 Iteration 22 RMS(Cart)=  0.00001374 RMS(Int)=  0.00716776
 Iteration 23 RMS(Cart)=  0.00001370 RMS(Int)=  0.00716232
 Iteration 24 RMS(Cart)=  0.00001365 RMS(Int)=  0.00715690
 Iteration 25 RMS(Cart)=  0.00001361 RMS(Int)=  0.00715150
 Iteration 26 RMS(Cart)=  0.00001356 RMS(Int)=  0.00714612
 Iteration 27 RMS(Cart)=  0.00001352 RMS(Int)=  0.00714075
 Iteration 28 RMS(Cart)=  0.00001347 RMS(Int)=  0.00713541
 Iteration 29 RMS(Cart)=  0.00001342 RMS(Int)=  0.00713008
 Iteration 30 RMS(Cart)=  0.00001338 RMS(Int)=  0.00712477
 Iteration 31 RMS(Cart)=  0.00001333 RMS(Int)=  0.00711948
 Iteration 32 RMS(Cart)=  0.00001328 RMS(Int)=  0.00711421
 Iteration 33 RMS(Cart)=  0.00001323 RMS(Int)=  0.00710896
 Iteration 34 RMS(Cart)=  0.00001317 RMS(Int)=  0.00710373
 Iteration 35 RMS(Cart)=  0.00001310 RMS(Int)=  0.00709855
 Iteration 36 RMS(Cart)=  0.00001293 RMS(Int)=  0.18422981
 Iteration 37 RMS(Cart)=  0.00135810 RMS(Int)=  0.00670828
 Iteration 38 RMS(Cart)=  0.00001449 RMS(Int)=  0.00670254
 Iteration 39 RMS(Cart)=  0.00001444 RMS(Int)=  0.00669681
 Iteration 40 RMS(Cart)=  0.00001439 RMS(Int)=  0.00669110
 Iteration 41 RMS(Cart)=  0.00001435 RMS(Int)=  0.00668541
 Iteration 42 RMS(Cart)=  0.00001430 RMS(Int)=  0.00667974
 Iteration 43 RMS(Cart)=  0.00001426 RMS(Int)=  0.00667408
 Iteration 44 RMS(Cart)=  0.00001421 RMS(Int)=  0.00666844
 Iteration 45 RMS(Cart)=  0.00001417 RMS(Int)=  0.00666283
 Iteration 46 RMS(Cart)=  0.00001412 RMS(Int)=  0.00665723
 Iteration 47 RMS(Cart)=  0.00001408 RMS(Int)=  0.00665164
 Iteration 48 RMS(Cart)=  0.00001403 RMS(Int)=  0.00664608
 Iteration 49 RMS(Cart)=  0.00001399 RMS(Int)=  0.00664053
 Iteration 50 RMS(Cart)=  0.00001394 RMS(Int)=  0.00663500
 Iteration 51 RMS(Cart)=  0.00001389 RMS(Int)=  0.00662949
 Iteration 52 RMS(Cart)=  0.00001385 RMS(Int)=  0.00662400
 Iteration 53 RMS(Cart)=  0.00001380 RMS(Int)=  0.00661853
 Iteration 54 RMS(Cart)=  0.00001376 RMS(Int)=  0.00661307
 Iteration 55 RMS(Cart)=  0.00001371 RMS(Int)=  0.00660764
 Iteration 56 RMS(Cart)=  0.00001366 RMS(Int)=  0.00660222
 Iteration 57 RMS(Cart)=  0.00001361 RMS(Int)=  0.00659682
 Iteration 58 RMS(Cart)=  0.00001356 RMS(Int)=  0.00659145
 Iteration 59 RMS(Cart)=  0.00001350 RMS(Int)=  0.00658609
 Iteration 60 RMS(Cart)=  0.00001344 RMS(Int)=  0.00658076
 Iteration 61 RMS(Cart)=  0.00001334 RMS(Int)=  0.18426399
 Iteration 62 RMS(Cart)=  0.00123574 RMS(Int)=  0.00623364
 Iteration 63 RMS(Cart)=  0.00001401 RMS(Int)=  0.00622811
 Iteration 64 RMS(Cart)=  0.00001396 RMS(Int)=  0.00622259
 Iteration 65 RMS(Cart)=  0.00001392 RMS(Int)=  0.00621709
 Iteration 66 RMS(Cart)=  0.00001388 RMS(Int)=  0.00621161
 Iteration 67 RMS(Cart)=  0.00001384 RMS(Int)=  0.00620614
 Iteration 68 RMS(Cart)=  0.00001379 RMS(Int)=  0.00620069
 Iteration 69 RMS(Cart)=  0.00001375 RMS(Int)=  0.00619525
 Iteration 70 RMS(Cart)=  0.00001371 RMS(Int)=  0.00618984
 Iteration 71 RMS(Cart)=  0.00001367 RMS(Int)=  0.00618444
 Iteration 72 RMS(Cart)=  0.00001362 RMS(Int)=  0.00617905
 Iteration 73 RMS(Cart)=  0.00001358 RMS(Int)=  0.00617369
 Iteration 74 RMS(Cart)=  0.00001354 RMS(Int)=  0.00616834
 Iteration 75 RMS(Cart)=  0.00001350 RMS(Int)=  0.00616301
 Iteration 76 RMS(Cart)=  0.00001345 RMS(Int)=  0.00615769
 Iteration 77 RMS(Cart)=  0.00001341 RMS(Int)=  0.00615239
 Iteration 78 RMS(Cart)=  0.00001337 RMS(Int)=  0.00614711
 Iteration 79 RMS(Cart)=  0.00001332 RMS(Int)=  0.00614185
 Iteration 80 RMS(Cart)=  0.00001328 RMS(Int)=  0.00613660
 Iteration 81 RMS(Cart)=  0.00001323 RMS(Int)=  0.00613137
 Iteration 82 RMS(Cart)=  0.00001318 RMS(Int)=  0.00612617
 Iteration 83 RMS(Cart)=  0.00001313 RMS(Int)=  0.00612098
 Iteration 84 RMS(Cart)=  0.00001306 RMS(Int)=  0.00611581
 Iteration 85 RMS(Cart)=  0.00001296 RMS(Int)=  0.18424530
 New curvilinear step failed, DQL= 3.14D+00 SP=-8.84D-01.
 ITry= 6 IFail=1 DXMaxC= 2.75D-02 DCOld= 1.00D+10 DXMaxT= 3.00D-01 DXLimC= 3.00D+00 Rises=F
 Iteration  1 RMS(Cart)=  0.00020942 RMS(Int)=  0.00655857
 SLEqS3 Cycle:   135 Max:0.135084E-01 RMS: 203.941     Conv:0.143144E-02
 Iteration  2 RMS(Cart)=  0.00000959 RMS(Int)=  0.18418210
 Iteration  3 RMS(Cart)=  0.02644436 RMS(Int)=  0.18116091
 Iteration  4 RMS(Cart)=  0.00192159 RMS(Int)=  0.18008648
 Iteration  5 RMS(Cart)=  0.00176684 RMS(Int)=  0.17899963
 Iteration  6 RMS(Cart)=  0.00162809 RMS(Int)=  0.17788399
 Iteration  7 RMS(Cart)=  0.00150314 RMS(Int)=  0.17671000
 Iteration  8 RMS(Cart)=  0.00139029 RMS(Int)=  0.17541023
 Iteration  9 RMS(Cart)=  0.00128797 RMS(Int)=  0.17375200
 Iteration 10 RMS(Cart)=  0.00119542 RMS(Int)=  0.16797044
 Iteration 11 RMS(Cart)=  0.00111244 RMS(Int)=  0.01645441
 New curvilinear step failed, DQL= 3.12D+00 SP=-9.31D-01.
 ITry= 7 IFail=1 DXMaxC= 8.21D-02 DCOld= 1.00D+10 DXMaxT= 3.00D-01 DXLimC= 3.00D+00 Rises=F
 Iteration  1 RMS(Cart)=  0.00016221 RMS(Int)=  0.00491366
 SLEqS3 Cycle:   135 Max:0.102700E-01 RMS: 84.9028     Conv:0.608579E-03
 Iteration  2 RMS(Cart)=  0.00000490 RMS(Int)=  0.18418816
 Iteration  3 RMS(Cart)=  0.00235181 RMS(Int)=  0.18405297
 Iteration  4 RMS(Cart)=  0.00089759 RMS(Int)=  0.18238790
 Iteration  5 RMS(Cart)=  0.00083709 RMS(Int)=  0.03529632
 Iteration  6 RMS(Cart)=  0.00077549 RMS(Int)=  0.14914622
 Iteration  7 RMS(Cart)=  0.00066058 RMS(Int)=  0.14670422
 Iteration  8 RMS(Cart)=  0.00060735 RMS(Int)=  0.03710648
 Iteration  9 RMS(Cart)=  0.00062014 RMS(Int)=  0.14683401
 Iteration 10 RMS(Cart)=  0.00053564 RMS(Int)=  0.01865930
 New curvilinear step failed, DQL= 3.14D+00 SP=-9.61D-01.
 ITry= 8 IFail=1 DXMaxC= 2.02D-02 DCOld= 1.00D+10 DXMaxT= 3.00D-01 DXLimC= 3.00D+00 Rises=F
 Iteration  1 RMS(Cart)=  0.00011165 RMS(Int)=  0.00327236
 SLEqS3 Cycle:   150 Max:0.682778E-02 RMS: 24.6942     Conv:0.180628E-03
 Iteration  2 RMS(Cart)=  0.00000167 RMS(Int)=  0.00327173
 SLEqS3 Cycle:    34 Max:0.696370E-02 RMS: 45.6328     Conv:0.333791E-03
 Linear angle in Tors.
 Error termination via Lnk1e in /share/apps/gaussian16/g16/l103.exe at Tue Jun 18 17:49:56 2019.
 Job cpu time:       1 days 19 hours 21 minutes 13.9 seconds.
 Elapsed time:       0 days  2 hours 10 minutes 36.5 seconds.
 File lengths (MBytes):  RWF=   2276 Int=      0 D2E=      0 Chk=     57 Scr=      1
