 Entering Gaussian System, Link 0=/share/apps/gaussian16/g16/g16
 Initial command:
 /share/apps/gaussian16/g16/l1.exe "/home/amen01//scratch/641/Gau-30065.inp" -scrdir="/home/amen01//scratch/641/"
 Entering Link 1 = /share/apps/gaussian16/g16/l1.exe PID=     30066.
  
 Copyright (c) 1988-2017, Gaussian, Inc.  All Rights Reserved.
  
 This is part of the Gaussian(R) 16 program.  It is based on
 the Gaussian(R) 09 system (copyright 2009, Gaussian, Inc.),
 the Gaussian(R) 03 system (copyright 2003, Gaussian, Inc.),
 the Gaussian(R) 98 system (copyright 1998, Gaussian, Inc.),
 the Gaussian(R) 94 system (copyright 1995, Gaussian, Inc.),
 the Gaussian 92(TM) system (copyright 1992, Gaussian, Inc.),
 the Gaussian 90(TM) system (copyright 1990, Gaussian, Inc.),
 the Gaussian 88(TM) system (copyright 1988, Gaussian, Inc.),
 the Gaussian 86(TM) system (copyright 1986, Carnegie Mellon
 University), and the Gaussian 82(TM) system (copyright 1983,
 Carnegie Mellon University). Gaussian is a federally registered
 trademark of Gaussian, Inc.
  
 This software contains proprietary and confidential information,
 including trade secrets, belonging to Gaussian, Inc.
  
 This software is provided under written license and may be
 used, copied, transmitted, or stored only in accord with that
 written license.
  
 The following legend is applicable only to US Government
 contracts under FAR:
  
                    RESTRICTED RIGHTS LEGEND
  
 Use, reproduction and disclosure by the US Government is
 subject to restrictions as set forth in subparagraphs (a)
 and (c) of the Commercial Computer Software - Restricted
 Rights clause in FAR 52.227-19.
  
 Gaussian, Inc.
 340 Quinnipiac St., Bldg. 40, Wallingford CT 06492
  
  
 ---------------------------------------------------------------
 Warning -- This program may not be used in any manner that
 competes with the business of Gaussian, Inc. or will provide
 assistance to any competitor of Gaussian, Inc.  The licensee
 of this program is prohibited from giving any competitor of
 Gaussian, Inc. access to this program.  By using this program,
 the user acknowledges that Gaussian, Inc. is engaged in the
 business of creating and licensing software in the field of
 computational chemistry and represents and warrants to the
 licensee that it is not a competitor of Gaussian, Inc. and that
 it will not use this program in any manner prohibited above.
 ---------------------------------------------------------------
  

 Cite this work as:
 Gaussian 16, Revision B.01,
 M. J. Frisch, G. W. Trucks, H. B. Schlegel, G. E. Scuseria, 
 M. A. Robb, J. R. Cheeseman, G. Scalmani, V. Barone, 
 G. A. Petersson, H. Nakatsuji, X. Li, M. Caricato, A. V. Marenich, 
 J. Bloino, B. G. Janesko, R. Gomperts, B. Mennucci, H. P. Hratchian, 
 J. V. Ortiz, A. F. Izmaylov, J. L. Sonnenberg, D. Williams-Young, 
 F. Ding, F. Lipparini, F. Egidi, J. Goings, B. Peng, A. Petrone, 
 T. Henderson, D. Ranasinghe, V. G. Zakrzewski, J. Gao, N. Rega, 
 G. Zheng, W. Liang, M. Hada, M. Ehara, K. Toyota, R. Fukuda, 
 J. Hasegawa, M. Ishida, T. Nakajima, Y. Honda, O. Kitao, H. Nakai, 
 T. Vreven, K. Throssell, J. A. Montgomery, Jr., J. E. Peralta, 
 F. Ogliaro, M. J. Bearpark, J. J. Heyd, E. N. Brothers, K. N. Kudin, 
 V. N. Staroverov, T. A. Keith, R. Kobayashi, J. Normand, 
 K. Raghavachari, A. P. Rendell, J. C. Burant, S. S. Iyengar, 
 J. Tomasi, M. Cossi, J. M. Millam, M. Klene, C. Adamo, R. Cammi, 
 J. W. Ochterski, R. L. Martin, K. Morokuma, O. Farkas, 
 J. B. Foresman, and D. J. Fox, Gaussian, Inc., Wallingford CT, 2016.
 
 ******************************************
 Gaussian 16:  ES64L-G16RevB.01 20-Dec-2017
                28-Jun-2019 
 ******************************************
 %nprocshared=20
 Will use up to   20 processors via shared memory.
 %mem=100GB
 %chk=7-memb-haddTSguess-1b.chk
 ---------------------------------------------------------------
 # opt=(ts,calcfc,noeigen) freq b3lyp/6-311+g(d,p) int=grid=fine
 ---------------------------------------------------------------
 1/5=1,10=4,11=1,18=20,26=3,38=1/1,3;
 2/9=110,12=2,17=6,18=5,40=1/2;
 3/5=4,6=6,7=111,11=2,25=1,30=1,71=2,74=-5,75=-4,140=1/1,2,3;
 4//1;
 5/5=2,38=5/2;
 8/6=4,10=90,11=11/1;
 11/6=1,8=1,9=11,15=111,16=1/1,2,10;
 10/6=1,13=1/2;
 6/7=2,8=2,9=2,10=2,28=1/1;
 7/10=1,18=20,25=1/1,2,3,16;
 1/5=1,10=4,11=1,18=20,26=3/3(2);
 2/9=110/2;
 99//99;
 2/9=110/2;
 3/5=4,6=6,7=111,11=2,25=1,30=1,71=1,74=-5,75=-4/1,2,3;
 4/5=5,16=3,69=1/1;
 5/5=2,38=5/2;
 7//1,2,3,16;
 1/5=1,11=1,18=20,26=3/3(-5);
 2/9=110/2;
 6/7=2,8=2,9=2,10=2,19=2,28=1/1;
 99/9=1/99;
 ---------------------
 7-memb-haddTSguess-1b
 ---------------------
 Symbolic Z-matrix:
 Charge =  0 Multiplicity = 2
 C                     0.74437  -3.07148  -0.20136 
 C                     0.93259  -1.70017  -0.01852 
 C                     2.20997  -1.18849   0.21403 
 C                     3.37197  -1.92419   0.27632 
 C                     1.93892  -3.8836   -0.12672 
 C                     3.18908  -3.34523   0.10391 
 C                     2.12106   0.20915   0.25385 
 C                     3.28567   0.9859    0.34505 
 C                     4.5226    0.24243   0.488 
 C                     4.57082  -1.13425   0.45418 
 C                     0.79422   0.62413   0.02326 
 C                     0.63841   2.00563  -0.26353 
 C                     1.80826   2.86824  -0.09717 
 C                     3.08987   2.36266   0.21757 
 C                    -0.57778  -3.44093  -0.48994 
 C                    -1.60138  -2.48003  -0.44803 
 C                    -1.37068  -1.07779  -0.10786 
 C                    -0.02522  -0.65134  -0.05754 
 C                     1.65818   4.26792  -0.33992 
 C                    -0.54603   2.60066  -0.78378 
 C                    -0.62552   3.94557  -1.03871 
 C                     0.47996   4.79805  -0.7899 
 C                    -2.94235  -2.89905  -0.76291 
 C                    -4.00663  -2.06922  -0.63821 
 C                    -3.85067  -0.7643   -0.06755 
 C                    -2.54485  -0.27791   0.23982 
 C                    -2.44559   0.89954   1.00231 
 C                    -3.57473   1.6531    1.33949 
 C                    -4.98667  -0.00623   0.30253 
 C                    -4.86354   1.17008   1.00127 
 H                    -5.74286   1.73092   1.29575 
 H                    -3.47468   2.46572   2.04854 
 H                    -1.47653   1.22625   1.35194 
 H                    -5.96976  -0.39562   0.05939 
 H                    -5.00465  -2.40943  -0.89257 
 H                    -3.08263  -3.91847  -1.10641 
 H                    -0.83526  -4.4649   -0.74144 
 H                     1.84765  -4.95586  -0.26663 
 H                     4.04861  -4.00658   0.13998 
 H                     5.53208  -1.62998   0.54229 
 H                     5.44881   0.79657   0.6012 
 H                     3.91834   3.05966   0.29744 
 H                     2.52105   4.90738  -0.18496 
 H                     0.39504   5.86175  -0.98051 
 H                    -1.3967    1.97026  -0.99794 
 H                    -1.54446   4.35993  -1.43704 
 H                    -3.54983   3.08929   0.0913 
 
 Add virtual bond connecting atoms H47        and C28        Dist= 3.60D+00.
 Add virtual bond connecting atoms H47        and H32        Dist= 3.88D+00.

 GradGradGradGradGradGradGradGradGradGradGradGradGradGradGradGradGradGrad
 Berny optimization.
 Initialization pass.
                           ----------------------------
                           !    Initial Parameters    !
                           ! (Angstroms and Degrees)  !
 --------------------------                            --------------------------
 ! Name  Definition              Value          Derivative Info.                !
 --------------------------------------------------------------------------------
 ! R1    R(1,2)                  1.3962         calculate D2E/DX2 analytically  !
 ! R2    R(1,5)                  1.4464         calculate D2E/DX2 analytically  !
 ! R3    R(1,15)                 1.4028         calculate D2E/DX2 analytically  !
 ! R4    R(2,3)                  1.3956         calculate D2E/DX2 analytically  !
 ! R5    R(2,18)                 1.4209         calculate D2E/DX2 analytically  !
 ! R6    R(3,4)                  1.3767         calculate D2E/DX2 analytically  !
 ! R7    R(3,7)                  1.401          calculate D2E/DX2 analytically  !
 ! R8    R(4,6)                  1.4431         calculate D2E/DX2 analytically  !
 ! R9    R(4,10)                 1.4467         calculate D2E/DX2 analytically  !
 ! R10   R(5,6)                  1.3806         calculate D2E/DX2 analytically  !
 ! R11   R(5,38)                 1.0852         calculate D2E/DX2 analytically  !
 ! R12   R(6,39)                 1.0851         calculate D2E/DX2 analytically  !
 ! R13   R(7,8)                  1.4028         calculate D2E/DX2 analytically  !
 ! R14   R(7,11)                 1.4092         calculate D2E/DX2 analytically  !
 ! R15   R(8,9)                  1.4502         calculate D2E/DX2 analytically  !
 ! R16   R(8,14)                 1.3964         calculate D2E/DX2 analytically  !
 ! R17   R(9,10)                 1.3779         calculate D2E/DX2 analytically  !
 ! R18   R(9,41)                 1.0852         calculate D2E/DX2 analytically  !
 ! R19   R(10,40)                1.0851         calculate D2E/DX2 analytically  !
 ! R20   R(11,12)                1.4195         calculate D2E/DX2 analytically  !
 ! R21   R(11,18)                1.5182         calculate D2E/DX2 analytically  !
 ! R22   R(12,13)                1.463          calculate D2E/DX2 analytically  !
 ! R23   R(12,20)                1.4239         calculate D2E/DX2 analytically  !
 ! R24   R(13,14)                1.4132         calculate D2E/DX2 analytically  !
 ! R25   R(13,19)                1.4285         calculate D2E/DX2 analytically  !
 ! R26   R(14,42)                1.0856         calculate D2E/DX2 analytically  !
 ! R27   R(15,16)                1.4046         calculate D2E/DX2 analytically  !
 ! R28   R(15,37)                1.0854         calculate D2E/DX2 analytically  !
 ! R29   R(16,17)                1.4612         calculate D2E/DX2 analytically  !
 ! R30   R(16,23)                1.4398         calculate D2E/DX2 analytically  !
 ! R31   R(17,18)                1.4123         calculate D2E/DX2 analytically  !
 ! R32   R(17,26)                1.4627         calculate D2E/DX2 analytically  !
 ! R33   R(19,22)                1.3681         calculate D2E/DX2 analytically  !
 ! R34   R(19,43)                1.0851         calculate D2E/DX2 analytically  !
 ! R35   R(20,21)                1.3712         calculate D2E/DX2 analytically  !
 ! R36   R(20,45)                1.0802         calculate D2E/DX2 analytically  !
 ! R37   R(21,22)                1.418          calculate D2E/DX2 analytically  !
 ! R38   R(21,46)                1.0839         calculate D2E/DX2 analytically  !
 ! R39   R(22,44)                1.084          calculate D2E/DX2 analytically  !
 ! R40   R(23,24)                1.3553         calculate D2E/DX2 analytically  !
 ! R41   R(23,36)                1.0848         calculate D2E/DX2 analytically  !
 ! R42   R(24,25)                1.4328         calculate D2E/DX2 analytically  !
 ! R43   R(24,35)                1.0847         calculate D2E/DX2 analytically  !
 ! R44   R(25,26)                1.427          calculate D2E/DX2 analytically  !
 ! R45   R(25,29)                1.415          calculate D2E/DX2 analytically  !
 ! R46   R(26,27)                1.4063         calculate D2E/DX2 analytically  !
 ! R47   R(27,28)                1.3988         calculate D2E/DX2 analytically  !
 ! R48   R(27,33)                1.0808         calculate D2E/DX2 analytically  !
 ! R49   R(28,30)                1.4173         calculate D2E/DX2 analytically  !
 ! R50   R(28,32)                1.0831         calculate D2E/DX2 analytically  !
 ! R51   R(28,47)                1.903          calculate D2E/DX2 analytically  !
 ! R52   R(29,30)                1.3737         calculate D2E/DX2 analytically  !
 ! R53   R(29,34)                1.085          calculate D2E/DX2 analytically  !
 ! R54   R(30,31)                1.0837         calculate D2E/DX2 analytically  !
 ! R55   R(32,47)                2.0555         calculate D2E/DX2 analytically  !
 ! A1    A(2,1,5)              115.6821         calculate D2E/DX2 analytically  !
 ! A2    A(2,1,15)             114.3726         calculate D2E/DX2 analytically  !
 ! A3    A(5,1,15)             129.877          calculate D2E/DX2 analytically  !
 ! A4    A(1,2,3)              120.3534         calculate D2E/DX2 analytically  !
 ! A5    A(1,2,18)             129.0884         calculate D2E/DX2 analytically  !
 ! A6    A(3,2,18)             110.5446         calculate D2E/DX2 analytically  !
 ! A7    A(2,3,4)              125.7437         calculate D2E/DX2 analytically  !
 ! A8    A(2,3,7)              108.205          calculate D2E/DX2 analytically  !
 ! A9    A(4,3,7)              125.8287         calculate D2E/DX2 analytically  !
 ! A10   A(3,4,6)              114.4466         calculate D2E/DX2 analytically  !
 ! A11   A(3,4,10)             114.4067         calculate D2E/DX2 analytically  !
 ! A12   A(6,4,10)             131.1019         calculate D2E/DX2 analytically  !
 ! A13   A(1,5,6)              122.5166         calculate D2E/DX2 analytically  !
 ! A14   A(1,5,38)             118.599          calculate D2E/DX2 analytically  !
 ! A15   A(6,5,38)             118.8821         calculate D2E/DX2 analytically  !
 ! A16   A(4,6,5)              121.2466         calculate D2E/DX2 analytically  !
 ! A17   A(4,6,39)             119.7225         calculate D2E/DX2 analytically  !
 ! A18   A(5,6,39)             119.0241         calculate D2E/DX2 analytically  !
 ! A19   A(3,7,8)              120.101          calculate D2E/DX2 analytically  !
 ! A20   A(3,7,11)             110.4177         calculate D2E/DX2 analytically  !
 ! A21   A(8,7,11)             128.9937         calculate D2E/DX2 analytically  !
 ! A22   A(7,8,9)              115.5072         calculate D2E/DX2 analytically  !
 ! A23   A(7,8,14)             115.0594         calculate D2E/DX2 analytically  !
 ! A24   A(9,8,14)             129.347          calculate D2E/DX2 analytically  !
 ! A25   A(8,9,10)             122.657          calculate D2E/DX2 analytically  !
 ! A26   A(8,9,41)             118.4536         calculate D2E/DX2 analytically  !
 ! A27   A(10,9,41)            118.8714         calculate D2E/DX2 analytically  !
 ! A28   A(4,10,9)             121.3028         calculate D2E/DX2 analytically  !
 ! A29   A(4,10,40)            119.6449         calculate D2E/DX2 analytically  !
 ! A30   A(9,10,40)            119.0397         calculate D2E/DX2 analytically  !
 ! A31   A(7,11,12)            115.0238         calculate D2E/DX2 analytically  !
 ! A32   A(7,11,18)            105.6354         calculate D2E/DX2 analytically  !
 ! A33   A(12,11,18)           138.3854         calculate D2E/DX2 analytically  !
 ! A34   A(11,12,13)           117.5861         calculate D2E/DX2 analytically  !
 ! A35   A(11,12,20)           124.8757         calculate D2E/DX2 analytically  !
 ! A36   A(13,12,20)           117.406          calculate D2E/DX2 analytically  !
 ! A37   A(12,13,14)           122.6534         calculate D2E/DX2 analytically  !
 ! A38   A(12,13,19)           118.3204         calculate D2E/DX2 analytically  !
 ! A39   A(14,13,19)           118.9245         calculate D2E/DX2 analytically  !
 ! A40   A(8,14,13)            120.0125         calculate D2E/DX2 analytically  !
 ! A41   A(8,14,42)            121.2826         calculate D2E/DX2 analytically  !
 ! A42   A(13,14,42)           118.6055         calculate D2E/DX2 analytically  !
 ! A43   A(1,15,16)            120.0366         calculate D2E/DX2 analytically  !
 ! A44   A(1,15,37)            121.3135         calculate D2E/DX2 analytically  !
 ! A45   A(16,15,37)           118.6485         calculate D2E/DX2 analytically  !
 ! A46   A(15,16,17)           123.2563         calculate D2E/DX2 analytically  !
 ! A47   A(15,16,23)           118.2374         calculate D2E/DX2 analytically  !
 ! A48   A(17,16,23)           118.5056         calculate D2E/DX2 analytically  !
 ! A49   A(16,17,18)           116.6447         calculate D2E/DX2 analytically  !
 ! A50   A(16,17,26)           116.9608         calculate D2E/DX2 analytically  !
 ! A51   A(18,17,26)           126.24           calculate D2E/DX2 analytically  !
 ! A52   A(2,18,11)            104.7638         calculate D2E/DX2 analytically  !
 ! A53   A(2,18,17)            114.8518         calculate D2E/DX2 analytically  !
 ! A54   A(11,18,17)           140.334          calculate D2E/DX2 analytically  !
 ! A55   A(13,19,22)           121.7389         calculate D2E/DX2 analytically  !
 ! A56   A(13,19,43)           118.0088         calculate D2E/DX2 analytically  !
 ! A57   A(22,19,43)           120.2283         calculate D2E/DX2 analytically  !
 ! A58   A(12,20,21)           121.7376         calculate D2E/DX2 analytically  !
 ! A59   A(12,20,45)           118.9212         calculate D2E/DX2 analytically  !
 ! A60   A(21,20,45)           119.3328         calculate D2E/DX2 analytically  !
 ! A61   A(20,21,22)           120.7873         calculate D2E/DX2 analytically  !
 ! A62   A(20,21,46)           119.5018         calculate D2E/DX2 analytically  !
 ! A63   A(22,21,46)           119.7108         calculate D2E/DX2 analytically  !
 ! A64   A(19,22,21)           119.7463         calculate D2E/DX2 analytically  !
 ! A65   A(19,22,44)           120.3674         calculate D2E/DX2 analytically  !
 ! A66   A(21,22,44)           119.8686         calculate D2E/DX2 analytically  !
 ! A67   A(16,23,24)           122.2125         calculate D2E/DX2 analytically  !
 ! A68   A(16,23,36)           117.5916         calculate D2E/DX2 analytically  !
 ! A69   A(24,23,36)           120.1956         calculate D2E/DX2 analytically  !
 ! A70   A(23,24,25)           120.5857         calculate D2E/DX2 analytically  !
 ! A71   A(23,24,35)           120.5916         calculate D2E/DX2 analytically  !
 ! A72   A(25,24,35)           118.6351         calculate D2E/DX2 analytically  !
 ! A73   A(24,25,26)           119.7253         calculate D2E/DX2 analytically  !
 ! A74   A(24,25,29)           120.3136         calculate D2E/DX2 analytically  !
 ! A75   A(26,25,29)           119.7187         calculate D2E/DX2 analytically  !
 ! A76   A(17,26,25)           119.8028         calculate D2E/DX2 analytically  !
 ! A77   A(17,26,27)           122.012          calculate D2E/DX2 analytically  !
 ! A78   A(25,26,27)           117.8251         calculate D2E/DX2 analytically  !
 ! A79   A(26,27,28)           121.6546         calculate D2E/DX2 analytically  !
 ! A80   A(26,27,33)           119.459          calculate D2E/DX2 analytically  !
 ! A81   A(28,27,33)           118.8795         calculate D2E/DX2 analytically  !
 ! A82   A(27,28,30)           119.5338         calculate D2E/DX2 analytically  !
 ! A83   A(27,28,32)           119.1728         calculate D2E/DX2 analytically  !
 ! A84   A(27,28,47)           103.7633         calculate D2E/DX2 analytically  !
 ! A85   A(30,28,32)           119.73           calculate D2E/DX2 analytically  !
 ! A86   A(30,28,47)            96.4637         calculate D2E/DX2 analytically  !
 ! A87   A(25,29,30)           121.3211         calculate D2E/DX2 analytically  !
 ! A88   A(25,29,34)           118.4611         calculate D2E/DX2 analytically  !
 ! A89   A(30,29,34)           120.1663         calculate D2E/DX2 analytically  !
 ! A90   A(28,30,29)           119.6512         calculate D2E/DX2 analytically  !
 ! A91   A(28,30,31)           119.7764         calculate D2E/DX2 analytically  !
 ! A92   A(29,30,31)           120.5724         calculate D2E/DX2 analytically  !
 ! D1    D(5,1,2,3)              0.2223         calculate D2E/DX2 analytically  !
 ! D2    D(5,1,2,18)           178.7448         calculate D2E/DX2 analytically  !
 ! D3    D(15,1,2,3)          -177.0741         calculate D2E/DX2 analytically  !
 ! D4    D(15,1,2,18)            1.4484         calculate D2E/DX2 analytically  !
 ! D5    D(2,1,5,6)             -0.2856         calculate D2E/DX2 analytically  !
 ! D6    D(2,1,5,38)          -179.7172         calculate D2E/DX2 analytically  !
 ! D7    D(15,1,5,6)           176.5049         calculate D2E/DX2 analytically  !
 ! D8    D(15,1,5,38)           -2.9267         calculate D2E/DX2 analytically  !
 ! D9    D(2,1,15,16)           -6.0571         calculate D2E/DX2 analytically  !
 ! D10   D(2,1,15,37)          174.3772         calculate D2E/DX2 analytically  !
 ! D11   D(5,1,15,16)          177.1183         calculate D2E/DX2 analytically  !
 ! D12   D(5,1,15,37)           -2.4474         calculate D2E/DX2 analytically  !
 ! D13   D(1,2,3,4)              0.5824         calculate D2E/DX2 analytically  !
 ! D14   D(1,2,3,7)            175.4044         calculate D2E/DX2 analytically  !
 ! D15   D(18,2,3,4)          -178.193          calculate D2E/DX2 analytically  !
 ! D16   D(18,2,3,7)            -3.371          calculate D2E/DX2 analytically  !
 ! D17   D(1,2,18,11)         -172.5547         calculate D2E/DX2 analytically  !
 ! D18   D(1,2,18,17)            9.495          calculate D2E/DX2 analytically  !
 ! D19   D(3,2,18,11)            6.0838         calculate D2E/DX2 analytically  !
 ! D20   D(3,2,18,17)         -171.8665         calculate D2E/DX2 analytically  !
 ! D21   D(2,3,4,6)             -1.2165         calculate D2E/DX2 analytically  !
 ! D22   D(2,3,4,10)           176.623          calculate D2E/DX2 analytically  !
 ! D23   D(7,3,4,6)           -175.1466         calculate D2E/DX2 analytically  !
 ! D24   D(7,3,4,10)             2.6929         calculate D2E/DX2 analytically  !
 ! D25   D(2,3,7,8)           -173.8016         calculate D2E/DX2 analytically  !
 ! D26   D(2,3,7,11)            -1.1132         calculate D2E/DX2 analytically  !
 ! D27   D(4,3,7,8)              1.0149         calculate D2E/DX2 analytically  !
 ! D28   D(4,3,7,11)           173.7033         calculate D2E/DX2 analytically  !
 ! D29   D(3,4,6,5)              1.0975         calculate D2E/DX2 analytically  !
 ! D30   D(3,4,6,39)          -179.8568         calculate D2E/DX2 analytically  !
 ! D31   D(10,4,6,5)          -176.2912         calculate D2E/DX2 analytically  !
 ! D32   D(10,4,6,39)            2.7545         calculate D2E/DX2 analytically  !
 ! D33   D(3,4,10,9)            -3.0111         calculate D2E/DX2 analytically  !
 ! D34   D(3,4,10,40)          178.294          calculate D2E/DX2 analytically  !
 ! D35   D(6,4,10,9)           174.3785         calculate D2E/DX2 analytically  !
 ! D36   D(6,4,10,40)           -4.3164         calculate D2E/DX2 analytically  !
 ! D37   D(1,5,6,4)             -0.402          calculate D2E/DX2 analytically  !
 ! D38   D(1,5,6,39)          -179.4542         calculate D2E/DX2 analytically  !
 ! D39   D(38,5,6,4)           179.028          calculate D2E/DX2 analytically  !
 ! D40   D(38,5,6,39)           -0.0242         calculate D2E/DX2 analytically  !
 ! D41   D(3,7,8,9)             -4.2171         calculate D2E/DX2 analytically  !
 ! D42   D(3,7,8,14)           172.7242         calculate D2E/DX2 analytically  !
 ! D43   D(11,7,8,9)          -175.3897         calculate D2E/DX2 analytically  !
 ! D44   D(11,7,8,14)            1.5516         calculate D2E/DX2 analytically  !
 ! D45   D(3,7,11,12)         -166.1488         calculate D2E/DX2 analytically  !
 ! D46   D(3,7,11,18)            4.7569         calculate D2E/DX2 analytically  !
 ! D47   D(8,7,11,12)            5.7071         calculate D2E/DX2 analytically  !
 ! D48   D(8,7,11,18)          176.6128         calculate D2E/DX2 analytically  !
 ! D49   D(7,8,9,10)             3.8838         calculate D2E/DX2 analytically  !
 ! D50   D(7,8,9,41)          -177.6812         calculate D2E/DX2 analytically  !
 ! D51   D(14,8,9,10)         -172.5326         calculate D2E/DX2 analytically  !
 ! D52   D(14,8,9,41)            5.9024         calculate D2E/DX2 analytically  !
 ! D53   D(7,8,14,13)           -5.2488         calculate D2E/DX2 analytically  !
 ! D54   D(7,8,14,42)          178.4274         calculate D2E/DX2 analytically  !
 ! D55   D(9,8,14,13)          171.1808         calculate D2E/DX2 analytically  !
 ! D56   D(9,8,14,42)           -5.1429         calculate D2E/DX2 analytically  !
 ! D57   D(8,9,10,4)            -0.2218         calculate D2E/DX2 analytically  !
 ! D58   D(8,9,10,40)          178.4808         calculate D2E/DX2 analytically  !
 ! D59   D(41,9,10,4)         -178.6507         calculate D2E/DX2 analytically  !
 ! D60   D(41,9,10,40)           0.052          calculate D2E/DX2 analytically  !
 ! D61   D(7,11,12,13)          -8.7613         calculate D2E/DX2 analytically  !
 ! D62   D(7,11,12,20)         166.9376         calculate D2E/DX2 analytically  !
 ! D63   D(18,11,12,13)       -175.5116         calculate D2E/DX2 analytically  !
 ! D64   D(18,11,12,20)          0.1872         calculate D2E/DX2 analytically  !
 ! D65   D(7,11,18,2)           -6.4962         calculate D2E/DX2 analytically  !
 ! D66   D(7,11,18,17)         170.5894         calculate D2E/DX2 analytically  !
 ! D67   D(12,11,18,2)         161.0495         calculate D2E/DX2 analytically  !
 ! D68   D(12,11,18,17)        -21.8649         calculate D2E/DX2 analytically  !
 ! D69   D(11,12,13,14)          5.6908         calculate D2E/DX2 analytically  !
 ! D70   D(11,12,13,19)       -178.0197         calculate D2E/DX2 analytically  !
 ! D71   D(20,12,13,14)       -170.335          calculate D2E/DX2 analytically  !
 ! D72   D(20,12,13,19)          5.9545         calculate D2E/DX2 analytically  !
 ! D73   D(11,12,20,21)       -179.9375         calculate D2E/DX2 analytically  !
 ! D74   D(11,12,20,45)         -1.0005         calculate D2E/DX2 analytically  !
 ! D75   D(13,12,20,21)         -4.2316         calculate D2E/DX2 analytically  !
 ! D76   D(13,12,20,45)        174.7054         calculate D2E/DX2 analytically  !
 ! D77   D(12,13,14,8)           1.8149         calculate D2E/DX2 analytically  !
 ! D78   D(12,13,14,42)        178.2364         calculate D2E/DX2 analytically  !
 ! D79   D(19,13,14,8)        -174.4532         calculate D2E/DX2 analytically  !
 ! D80   D(19,13,14,42)          1.9683         calculate D2E/DX2 analytically  !
 ! D81   D(12,13,19,22)         -3.6607         calculate D2E/DX2 analytically  !
 ! D82   D(12,13,19,43)        178.1204         calculate D2E/DX2 analytically  !
 ! D83   D(14,13,19,22)        172.7702         calculate D2E/DX2 analytically  !
 ! D84   D(14,13,19,43)         -5.4487         calculate D2E/DX2 analytically  !
 ! D85   D(1,15,16,17)          -0.2338         calculate D2E/DX2 analytically  !
 ! D86   D(1,15,16,23)         179.4429         calculate D2E/DX2 analytically  !
 ! D87   D(37,15,16,17)        179.3434         calculate D2E/DX2 analytically  !
 ! D88   D(37,15,16,23)         -0.9799         calculate D2E/DX2 analytically  !
 ! D89   D(15,16,17,18)         11.4463         calculate D2E/DX2 analytically  !
 ! D90   D(15,16,17,26)       -164.3215         calculate D2E/DX2 analytically  !
 ! D91   D(23,16,17,18)       -168.2295         calculate D2E/DX2 analytically  !
 ! D92   D(23,16,17,26)         16.0027         calculate D2E/DX2 analytically  !
 ! D93   D(15,16,23,24)        174.2861         calculate D2E/DX2 analytically  !
 ! D94   D(15,16,23,36)         -5.4977         calculate D2E/DX2 analytically  !
 ! D95   D(17,16,23,24)         -6.0216         calculate D2E/DX2 analytically  !
 ! D96   D(17,16,23,36)        174.1946         calculate D2E/DX2 analytically  !
 ! D97   D(16,17,18,2)         -14.8367         calculate D2E/DX2 analytically  !
 ! D98   D(16,17,18,11)        168.2693         calculate D2E/DX2 analytically  !
 ! D99   D(26,17,18,2)         160.4853         calculate D2E/DX2 analytically  !
 ! D100  D(26,17,18,11)        -16.4087         calculate D2E/DX2 analytically  !
 ! D101  D(16,17,26,25)        -15.0079         calculate D2E/DX2 analytically  !
 ! D102  D(16,17,26,27)        157.9507         calculate D2E/DX2 analytically  !
 ! D103  D(18,17,26,25)        169.6832         calculate D2E/DX2 analytically  !
 ! D104  D(18,17,26,27)        -17.3582         calculate D2E/DX2 analytically  !
 ! D105  D(13,19,22,21)         -0.6379         calculate D2E/DX2 analytically  !
 ! D106  D(13,19,22,44)       -179.107          calculate D2E/DX2 analytically  !
 ! D107  D(43,19,22,21)        177.5422         calculate D2E/DX2 analytically  !
 ! D108  D(43,19,22,44)         -0.9269         calculate D2E/DX2 analytically  !
 ! D109  D(12,20,21,22)         -0.0264         calculate D2E/DX2 analytically  !
 ! D110  D(12,20,21,46)        179.8492         calculate D2E/DX2 analytically  !
 ! D111  D(45,20,21,22)       -178.9591         calculate D2E/DX2 analytically  !
 ! D112  D(45,20,21,46)          0.9165         calculate D2E/DX2 analytically  !
 ! D113  D(20,21,22,19)          2.592          calculate D2E/DX2 analytically  !
 ! D114  D(20,21,22,44)       -178.9312         calculate D2E/DX2 analytically  !
 ! D115  D(46,21,22,19)       -177.2833         calculate D2E/DX2 analytically  !
 ! D116  D(46,21,22,44)          1.1935         calculate D2E/DX2 analytically  !
 ! D117  D(16,23,24,25)         -5.6758         calculate D2E/DX2 analytically  !
 ! D118  D(16,23,24,35)        179.3699         calculate D2E/DX2 analytically  !
 ! D119  D(36,23,24,25)        174.1025         calculate D2E/DX2 analytically  !
 ! D120  D(36,23,24,35)         -0.8518         calculate D2E/DX2 analytically  !
 ! D121  D(23,24,25,26)          6.7673         calculate D2E/DX2 analytically  !
 ! D122  D(23,24,25,29)       -167.5617         calculate D2E/DX2 analytically  !
 ! D123  D(35,24,25,26)       -178.1812         calculate D2E/DX2 analytically  !
 ! D124  D(35,24,25,29)          7.4899         calculate D2E/DX2 analytically  !
 ! D125  D(24,25,26,17)          3.9034         calculate D2E/DX2 analytically  !
 ! D126  D(24,25,26,27)       -169.3467         calculate D2E/DX2 analytically  !
 ! D127  D(29,25,26,17)        178.2664         calculate D2E/DX2 analytically  !
 ! D128  D(29,25,26,27)          5.0162         calculate D2E/DX2 analytically  !
 ! D129  D(24,25,29,30)        171.7661         calculate D2E/DX2 analytically  !
 ! D130  D(24,25,29,34)         -5.6293         calculate D2E/DX2 analytically  !
 ! D131  D(26,25,29,30)         -2.5632         calculate D2E/DX2 analytically  !
 ! D132  D(26,25,29,34)       -179.9587         calculate D2E/DX2 analytically  !
 ! D133  D(17,26,27,28)       -179.4841         calculate D2E/DX2 analytically  !
 ! D134  D(17,26,27,33)         -0.4554         calculate D2E/DX2 analytically  !
 ! D135  D(25,26,27,28)         -6.3924         calculate D2E/DX2 analytically  !
 ! D136  D(25,26,27,33)        172.6363         calculate D2E/DX2 analytically  !
 ! D137  D(26,27,28,30)          5.165          calculate D2E/DX2 analytically  !
 ! D138  D(26,27,28,32)        170.8749         calculate D2E/DX2 analytically  !
 ! D139  D(26,27,28,47)       -100.6174         calculate D2E/DX2 analytically  !
 ! D140  D(33,27,28,30)       -173.8692         calculate D2E/DX2 analytically  !
 ! D141  D(33,27,28,32)         -8.1593         calculate D2E/DX2 analytically  !
 ! D142  D(33,27,28,47)         80.3484         calculate D2E/DX2 analytically  !
 ! D143  D(27,28,30,29)         -2.447          calculate D2E/DX2 analytically  !
 ! D144  D(27,28,30,31)        177.5412         calculate D2E/DX2 analytically  !
 ! D145  D(32,28,30,29)       -168.0766         calculate D2E/DX2 analytically  !
 ! D146  D(32,28,30,31)         11.9117         calculate D2E/DX2 analytically  !
 ! D147  D(47,28,30,29)        107.392          calculate D2E/DX2 analytically  !
 ! D148  D(47,28,30,31)        -72.6198         calculate D2E/DX2 analytically  !
 ! D149  D(25,29,30,28)          1.2178         calculate D2E/DX2 analytically  !
 ! D150  D(25,29,30,31)       -178.7703         calculate D2E/DX2 analytically  !
 ! D151  D(34,29,30,28)        178.5693         calculate D2E/DX2 analytically  !
 ! D152  D(34,29,30,31)         -1.4188         calculate D2E/DX2 analytically  !
 --------------------------------------------------------------------------------
 Trust Radius=3.00D-01 FncErr=1.00D-07 GrdErr=1.00D-06 EigMax=2.50D+02 EigMin=1.00D-04
 Number of steps in this run=    282 maximum allowed number of steps=    282.
 Search for a saddle point of order  1.
 GradGradGradGradGradGradGradGradGradGradGradGradGradGradGradGradGradGrad

                          Input orientation:                          
 ---------------------------------------------------------------------
 Center     Atomic      Atomic             Coordinates (Angstroms)
 Number     Number       Type             X           Y           Z
 ---------------------------------------------------------------------
      1          6           0        0.744372   -3.071483   -0.201356
      2          6           0        0.932592   -1.700171   -0.018518
      3          6           0        2.209966   -1.188487    0.214027
      4          6           0        3.371965   -1.924186    0.276322
      5          6           0        1.938915   -3.883595   -0.126719
      6          6           0        3.189079   -3.345230    0.103910
      7          6           0        2.121060    0.209151    0.253849
      8          6           0        3.285667    0.985904    0.345046
      9          6           0        4.522604    0.242432    0.487996
     10          6           0        4.570815   -1.134247    0.454183
     11          6           0        0.794224    0.624130    0.023256
     12          6           0        0.638409    2.005625   -0.263534
     13          6           0        1.808258    2.868236   -0.097165
     14          6           0        3.089868    2.362663    0.217570
     15          6           0       -0.577777   -3.440930   -0.489937
     16          6           0       -1.601383   -2.480031   -0.448031
     17          6           0       -1.370683   -1.077787   -0.107861
     18          6           0       -0.025222   -0.651340   -0.057538
     19          6           0        1.658179    4.267921   -0.339916
     20          6           0       -0.546026    2.600657   -0.783781
     21          6           0       -0.625523    3.945567   -1.038711
     22          6           0        0.479957    4.798048   -0.789897
     23          6           0       -2.942348   -2.899054   -0.762910
     24          6           0       -4.006626   -2.069219   -0.638207
     25          6           0       -3.850672   -0.764299   -0.067547
     26          6           0       -2.544852   -0.277914    0.239817
     27          6           0       -2.445587    0.899539    1.002306
     28          6           0       -3.574728    1.653098    1.339494
     29          6           0       -4.986671   -0.006232    0.302533
     30          6           0       -4.863538    1.170084    1.001265
     31          1           0       -5.742860    1.730919    1.295750
     32          1           0       -3.474684    2.465716    2.048539
     33          1           0       -1.476527    1.226251    1.351939
     34          1           0       -5.969760   -0.395616    0.059391
     35          1           0       -5.004652   -2.409432   -0.892571
     36          1           0       -3.082625   -3.918474   -1.106413
     37          1           0       -0.835263   -4.464897   -0.741439
     38          1           0        1.847651   -4.955856   -0.266633
     39          1           0        4.048615   -4.006581    0.139980
     40          1           0        5.532082   -1.629976    0.542287
     41          1           0        5.448810    0.796567    0.601200
     42          1           0        3.918344    3.059656    0.297439
     43          1           0        2.521048    4.907375   -0.184955
     44          1           0        0.395040    5.861750   -0.980510
     45          1           0       -1.396697    1.970263   -0.997940
     46          1           0       -1.544464    4.359927   -1.437038
     47          1           0       -3.549828    3.089292    0.091304
 ---------------------------------------------------------------------
                    Distance matrix (angstroms):
                    1          2          3          4          5
     1  C    0.000000
     2  C    1.396192   0.000000
     3  C    2.422020   1.395558   0.000000
     4  C    2.906667   2.467317   1.376726   0.000000
     5  C    1.446385   2.406602   2.730052   2.460764   0.000000
     6  C    2.478854   2.795164   2.371145   1.443101   1.380557
     7  C    3.586787   2.265425   1.401029   2.473135   4.114435
     8  C    4.818623   3.589448   2.429460   2.912180   5.074281
     9  C    5.072699   4.113204   2.733292   2.462318   4.906875
    10  C    4.338696   3.712194   2.373652   1.446679   3.850099
    11  C    3.702768   2.328791   2.307878   3.633553   4.653213
    12  C    5.078594   3.725520   3.591686   4.817384   6.032657
    13  C    6.035145   4.652238   4.088424   5.054897   6.753160
    14  C    5.933531   4.606104   3.658539   4.296522   6.360736
    15  C    1.402800   2.352380   3.652475   4.299782   2.581011
    16  C    2.431713   2.685832   4.078332   5.056465   3.821903
    17  C    2.908096   2.387555   3.596792   4.832877   4.338935
    18  C    2.543629   1.420907   2.314809   3.643141   3.782868
    19  C    7.397371   6.020623   5.512142   6.454378   8.159135
    20  C    5.846154   4.611839   4.790483   6.078542   6.975112
    21  C    7.198386   5.944987   5.997321   7.222411   8.288779
    22  C    7.895937   6.559478   6.311846   7.395199   8.828323
    23  C    3.733226   4.123906   5.516048   6.473092   5.020039
    24  C    4.875177   4.991601   6.336246   7.436464   6.237230
    25  C    5.143484   4.874205   6.081986   7.323255   6.576688
    26  C    4.337932   3.765922   4.841291   6.141683   5.765366
    27  C    5.233895   4.383226   5.162888   6.507256   6.586116
    28  C    6.584110   5.779666   6.542474   7.885673   7.950158
    29  C    6.518782   6.165239   7.293637   8.575898   7.948707
    30  C    7.133431   6.547782   7.497804   8.827432   8.548999
    31  H    8.209054   7.619799   8.540521   9.873148   9.620595
    32  H    7.315944   6.407138   7.002420   8.323977   8.622793
    33  H    5.080909   4.030627   4.551487   5.881333   6.321566
    34  H    7.232415   7.024984   8.219518   9.468443   8.645680
    35  H    5.828153   6.043003   7.400404   8.471687   7.139524
    36  H    4.022739   4.714483   6.099829   6.895714   5.116335
    37  H    2.174520   3.360303   4.573970   5.019145   2.900320
    38  H    2.184570   3.390926   3.815151   3.436474   1.085195
    39  H    3.450933   3.879980   3.365675   2.193813   2.130044
    40  H    5.055009   4.634084   3.367361   2.196225   4.293858
    41  H    6.143097   5.197497   3.818436   3.438216   5.895180
    42  H    6.921977   5.627655   4.579545   5.013747   7.232343
    43  H    8.174290   6.797835   6.116820   6.899787   8.810416
    44  H    8.973949   7.641796   7.377446   8.429858   9.903750
    45  H    5.535154   4.456113   4.945158   6.287338   6.793599
    46  H    7.873470   6.698716   6.899758   8.160696   9.044696
    47  H    7.515381   6.560724   7.175631   8.548708   8.876654
                    6          7          8          9         10
     6  C    0.000000
     7  C    3.714400   0.000000
     8  C    4.338917   1.402844   0.000000
     9  C    3.846704   2.413161   1.450241   0.000000
    10  C    2.630652   2.801098   2.481644   1.377938   0.000000
    11  C    4.636556   1.409211   2.538054   3.776572   4.188105
    12  C    5.939072   2.386055   2.901409   4.331353   5.083083
    13  C    6.368222   2.700331   2.433405   3.821640   4.894443
    14  C    5.709887   2.361677   1.396443   2.573177   3.804940
    15  C    3.814580   4.600003   5.934666   6.366898   5.720153
    16  C    4.899156   4.645527   6.043586   6.766917   6.381313
    17  C    5.096820   3.738892   5.113271   6.068678   5.968290
    18  C    4.197004   2.333224   3.715458   4.666814   4.649582
    19  C    7.778220   4.128006   3.726865   5.009484   6.188494
    20  C    7.077611   3.729521   4.308544   5.733206   6.454775
    21  C    8.307376   4.814066   5.096253   6.522826   7.418569
    22  C    8.628511   4.984035   4.867499   6.223314   7.312659
    23  C    6.208450   6.027673   7.423519   8.195072   7.813033
    24  C    7.345551   6.598126   7.967314   8.908413   8.697125
    25  C    7.499913   6.059083   7.359401   8.451857   8.445739
    26  C    6.504219   4.691286   5.966847   7.090930   7.170214
    27  C    7.111585   4.678791   5.769465   7.017976   7.325751
    28  C    8.500531   5.975417   6.964129   8.263281   8.654648
    29  C    8.833530   7.111160   8.331730   9.514333   9.625017
    30  C    9.275664   7.089896   8.177658   9.445827   9.727089
    31  H   10.342500   8.077287   9.108962  10.404221  10.737286
    32  H    9.052868   6.294867   7.126996   8.445999   8.957218
    33  H    6.650105   3.896527   4.873407   6.140348   6.553492
    34  H    9.622190   8.115721   9.362325  10.520480  10.573796
    35  H    8.306980   7.677697   9.043749   9.985337   9.753431
    36  H    6.413093   6.779818   8.167913   8.814465   8.292317
    37  H    4.261877   5.619357   6.919086   7.237209   6.461302
    38  H    2.128579   5.198360   6.143822   5.894662   4.747620
    39  H    1.085121   4.636899   5.054607   4.289510   2.936276
    40  H    2.936653   3.885956   3.453710   2.127887   1.085147
    41  H    4.744277   3.397003   2.186470   1.085237   2.126154
    42  H    6.449174   3.370090   2.168639   2.887593   4.247247
    43  H    8.284636   4.735594   4.030320   5.120623   6.411805
    44  H    9.682515   6.037770   5.821228   7.125309   8.272812
    45  H    7.106186   4.128330   4.969618   6.342833   6.881703
    46  H    9.173352   5.790001   6.155487   7.580820   8.435597
    47  H    9.317516   6.362437   7.156299   8.568905   9.160502
                   11         12         13         14         15
    11  C    0.000000
    12  C    1.419526   0.000000
    13  C    2.465518   1.462984   0.000000
    14  C    2.886215   2.523606   1.413218   0.000000
    15  C    4.320934   5.585278   6.756701   6.901730   0.000000
    16  C    3.949286   5.017152   6.352379   6.775142   1.404583
    17  C    2.756907   3.683492   5.067236   5.642616   2.521731
    18  C    1.518171   2.746325   3.968707   4.343234   2.876473
    19  C    3.762383   2.482690   1.428485   2.447556   8.027975
    20  C    2.520761   1.423940   2.466920   3.778766   6.048812
    21  C    3.765023   2.441679   2.823197   4.229416   7.407008
    22  C    4.263986   2.846013   2.443038   3.709141   8.312012
    23  C    5.195465   6.093199   7.501540   8.064406   2.441176
    24  C    5.544351   6.190403   7.647487   8.410360   3.696022
    25  C    4.848818   5.278517   6.724558   7.617761   4.249071
    26  C    3.465546   3.949818   5.381578   6.222798   3.795602
    27  C    3.395698   3.512379   4.814541   5.779083   4.955318
    28  C    4.677499   4.521559   5.702376   6.795516   6.186894
    29  C    5.821864   6.000794   7.388734   8.417206   5.644777
    30  C    5.767568   5.706949   6.971595   8.080414   6.469380
    31  H    6.751125   6.574757   7.762286   8.920687   7.524280
    32  H    5.071172   4.740770   5.716253   6.815894   7.051553
    33  H    2.698937   2.773109   3.947889   4.840474   5.097336
    34  H    6.840517   7.038333   8.436516   9.471535   6.216846
    35  H    6.608192   7.192535   8.654605   9.461847   4.563258
    36  H    6.077941   7.046381   8.426076   8.905351   2.623424
    37  H    5.397979   6.653402   7.821645   7.933595   1.085385
    38  H    5.685947   7.065727   7.826026   7.438970   2.868373
    39  H    5.661110   6.923796   7.234538   6.441466   4.703218
    40  H    5.272351   6.149388   5.874494   4.691590   6.455650
    41  H    4.693498   5.034833   4.246545   2.857348   7.447598
    42  H    3.970779   3.490508   2.155184   1.085611   7.943090
    43  H    4.622928   3.459864   2.161912   2.638398   8.910103
    44  H    5.347855   3.929756   3.426165   4.576145   9.366263
    45  H    2.766776   2.163853   3.448114   4.664837   5.496336
    46  H    4.643070   3.418301   3.906552   5.310727   7.917377
    47  H    4.995242   4.340688   5.365955   6.680531   7.198245
                   16         17         18         19         20
    16  C    0.000000
    17  C    1.461241   0.000000
    18  C    2.445584   1.412322   0.000000
    19  C    7.494751   6.148532   5.206986   0.000000
    20  C    5.199990   3.829866   3.372558   2.799161   0.000000
    21  C    6.526064   5.162928   4.738630   2.409880   1.371164
    22  C    7.577551   6.198022   5.521538   1.368110   2.425120
    23  C    1.439763   2.493238   3.749586   8.526975   5.999135
    24  C    2.447474   2.865728   4.266044   8.505195   5.814180
    25  C    2.854436   2.500049   3.827130   7.466248   4.770388
    26  C    2.492506   1.462652   2.564450   6.218213   3.650922
    27  C    3.773281   2.509523   3.063766   5.476171   3.113236
    28  C    4.916512   3.796101   4.456582   6.086134   3.818272
    29  C    4.259484   3.793682   5.016153   7.926863   5.262630
    30  C    5.105434   4.299200   5.277116   7.343579   4.886086
    31  H    6.158304   5.382832   6.340184   7.992944   5.664625
    32  H    5.848293   4.651161   5.103958   5.941291   4.076430
    33  H    4.122136   2.729617   2.760119   4.684070   2.704833
    34  H    4.866722   4.652402   5.951185   8.949496   6.253438
    35  H    3.432905   3.949023   5.346297   9.449116   6.707621
    36  H    2.167179   3.463720   4.595869   9.491038   7.002678
    37  H    2.147725   3.487207   3.958169   9.090687   7.071598
    38  H    4.249524   5.042053   4.698961   9.226014   7.943426
    39  H    5.882057   6.165067   5.281364   8.626231   8.100596
    40  H    7.251872   6.955269   5.674605   7.111301   7.523304
    41  H    7.844884   7.107845   5.700473   5.225407   6.411784
    42  H    7.855650   6.727296   5.426713   2.640922   4.616310
    43  H    8.463889   7.139585   6.115475   1.085107   3.884132
    44  H    8.593867   7.213631   6.591573   2.132175   3.399858
    45  H    4.488810   3.175457   3.104529   3.878723   1.080232
    46  H    6.911324   5.600504   5.415156   3.386601   2.125713
    47  H    5.924920   4.706685   5.141724   5.357094   3.166601
                   21         22         23         24         25
    21  C    0.000000
    22  C    1.417998   0.000000
    23  C    7.231361   8.423674   0.000000
    24  C    6.911578   8.204376   1.355310   0.000000
    25  C    5.790301   7.086314   2.421933   1.432756   0.000000
    26  C    4.812094   5.997931   2.834403   2.473152   1.426958
    27  C    4.093491   5.193185   4.218064   3.733852   2.426357
    28  C    4.428214   5.555672   5.053919   4.237155   2.810644
    29  C    6.036163   7.359248   3.699033   2.470100   1.414962
    30  C    5.461280   6.702486   4.833339   3.730315   2.431069
    31  H    6.044958   7.244353   5.789439   4.603884   3.415416
    32  H    4.454076   5.397747   6.080163   5.297849   3.879714
    33  H    3.719421   4.601416   4.862032   4.606756   3.407902
    34  H    6.972271   8.324319   4.013553   2.672356   2.154663
    35  H    7.719076   9.057552   2.123591   1.084667   2.172279
    36  H    8.239240   9.421779   1.084845   2.119608   3.408513
    37  H    8.418329   9.355977   2.625287   3.975861   4.820918
    38  H    9.270816   9.863216   5.236489   6.537836   7.076699
    39  H    9.299115   9.545757   7.135502   8.321409   8.541323
    40  H    8.455905   8.283609   8.667760   9.621510   9.442318
    41  H    7.035839   6.529663   9.269841   9.957617   9.453248
    42  H    4.818388   4.003350   9.148752   9.486092   8.666802
    43  H    3.399247   2.131657   9.545840   9.564979   8.531148
    44  H    2.171795   1.083977   9.377483   9.077010   7.922380
    45  H    2.120895   3.400218   5.114149   4.822712   3.790179
    46  H    1.083887   2.170028   7.423027   6.930678   5.783753
    47  H    3.249877   4.464922   6.079392   5.229827   3.868579
                   26         27         28         29         30
    26  C    0.000000
    27  C    1.406285   0.000000
    28  C    2.449233   1.398752   0.000000
    29  C    2.457687   2.786972   2.412933   0.000000
    30  C    2.837747   2.433040   1.417298   1.373720   0.000000
    31  H    3.921436   3.413109   2.169969   2.139158   1.083727
    32  H    3.415197   2.146289   1.083098   3.383071   2.168954
    33  H    2.154216   1.080769   2.141215   3.865408   3.405579
    34  H    3.431676   3.871216   3.401775   1.084989   2.135947
    35  H    3.446199   4.592239   4.850871   2.684021   4.052094
    36  H    3.918573   5.297713   6.104674   4.573419   5.788556
    37  H    4.627784   5.866086   7.018890   6.180919   7.142620
    38  H    6.436903   7.370736   8.698282   8.457582   9.174681
    39  H    7.575403   8.184637   9.570066   9.882591  10.342444
    40  H    8.194902   8.381722   9.713295  10.646041  10.775895
    41  H    8.073645   7.905251   9.094117  10.470576  10.326862
    42  H    7.274311   6.757408   7.694830   9.418014   9.010400
    43  H    7.261611   6.491518   7.076210   8.985935   8.361015
    44  H    6.915753   6.051798   6.233316   8.064876   7.320642
    45  H    2.811512   2.499521   3.210609   4.299497   4.081188
    46  H    5.032116   4.328592   4.376988   5.825654   5.209287
    47  H    3.517117   2.616160   1.902959   3.419270   2.497443
                   31         32         33         34         35
    31  H    0.000000
    32  H    2.500248   0.000000
    33  H    4.296446   2.452378   0.000000
    34  H    2.470267   4.285946   4.948765   0.000000
    35  H    4.740908   5.895591   5.541090   2.427575   0.000000
    36  H    6.690507   7.131992   5.923786   4.701614   2.452983
    37  H    8.162278   7.923630   6.097755   6.600260   4.650976
    38  H   10.235715   9.421624   7.203359   9.056158   7.336902
    39  H   11.407353  10.106100   7.705749  10.649573   9.250875
    40  H   11.789302  10.008263   7.611450  11.577962  10.662511
    41  H   11.252062   9.192910   6.979150  11.493415  11.035608
    42  H    9.803113   7.620760   5.794651  10.477126  10.533134
    43  H    8.976332   6.848284   5.647417  10.013752  10.520102
    44  H    7.740733   5.973521   5.516424   8.985917   9.878100
    45  H    4.920105   3.720825   2.466142   5.256257   5.675400
    46  H    5.657415   4.411693   4.195585   6.666163   7.621914
    47  H    2.846973   2.055544   3.059199   4.242838   5.772390
                   36         37         38         39         40
    36  H    0.000000
    37  H    2.341457   0.000000
    38  H    5.107741   2.768485   0.000000
    39  H    7.239879   4.983896   2.431193   0.000000
    40  H    9.064690   7.087158   5.029002   2.830332   0.000000
    41  H    9.896107   8.305134   6.841919   5.024291   2.428686
    42  H    9.983920   8.960745   8.297854   7.069192   4.965556
    43  H   10.495039   9.970656   9.886529   9.049732   7.234097
    44  H   10.380886  10.402425  10.938021  10.582441   9.210541
    45  H    6.126283   6.464695   7.683211   8.165106   7.958769
    46  H    8.426576   8.880560   9.982991  10.186657   9.480199
    47  H    7.124717   8.070198   9.694602  10.396640  10.244802
                   41         42         43         44         45
    41  H    0.000000
    42  H    2.748849   0.000000
    43  H    5.107697   2.366264   0.000000
    44  H    7.327924   4.679589   2.462448   0.000000
    45  H    7.127116   5.578032   4.963496   4.284191   0.000000
    46  H    8.109120   5.877192   4.289032   2.495108   2.434160
    47  H    9.300111   7.471075   6.343286   4.939362   2.659822
                   46         47
    46  H    0.000000
    47  H    2.823442   0.000000
 Stoichiometry    C30H17(2)
 Framework group  C1[X(C30H17)]
 Deg. of freedom   135
 Full point group                 C1      NOp   1
 Largest Abelian subgroup         C1      NOp   1
 Largest concise Abelian subgroup C1      NOp   1
                         Standard orientation:                         
 ---------------------------------------------------------------------
 Center     Atomic      Atomic             Coordinates (Angstroms)
 Number     Number       Type             X           Y           Z
 ---------------------------------------------------------------------
      1          6           0        0.744372   -3.071483   -0.201356
      2          6           0        0.932592   -1.700171   -0.018518
      3          6           0        2.209966   -1.188487    0.214027
      4          6           0        3.371965   -1.924186    0.276322
      5          6           0        1.938915   -3.883595   -0.126719
      6          6           0        3.189079   -3.345230    0.103910
      7          6           0        2.121060    0.209151    0.253849
      8          6           0        3.285667    0.985904    0.345046
      9          6           0        4.522604    0.242432    0.487996
     10          6           0        4.570815   -1.134247    0.454183
     11          6           0        0.794224    0.624130    0.023256
     12          6           0        0.638409    2.005625   -0.263534
     13          6           0        1.808258    2.868236   -0.097165
     14          6           0        3.089868    2.362663    0.217570
     15          6           0       -0.577777   -3.440930   -0.489937
     16          6           0       -1.601383   -2.480031   -0.448031
     17          6           0       -1.370683   -1.077787   -0.107861
     18          6           0       -0.025222   -0.651340   -0.057538
     19          6           0        1.658179    4.267921   -0.339916
     20          6           0       -0.546026    2.600657   -0.783781
     21          6           0       -0.625523    3.945567   -1.038711
     22          6           0        0.479957    4.798048   -0.789897
     23          6           0       -2.942348   -2.899054   -0.762910
     24          6           0       -4.006626   -2.069219   -0.638207
     25          6           0       -3.850672   -0.764299   -0.067547
     26          6           0       -2.544852   -0.277914    0.239817
     27          6           0       -2.445587    0.899539    1.002306
     28          6           0       -3.574728    1.653098    1.339494
     29          6           0       -4.986671   -0.006232    0.302533
     30          6           0       -4.863538    1.170084    1.001265
     31          1           0       -5.742860    1.730920    1.295750
     32          1           0       -3.474684    2.465716    2.048539
     33          1           0       -1.476527    1.226251    1.351939
     34          1           0       -5.969760   -0.395615    0.059391
     35          1           0       -5.004652   -2.409432   -0.892571
     36          1           0       -3.082625   -3.918474   -1.106413
     37          1           0       -0.835263   -4.464897   -0.741439
     38          1           0        1.847651   -4.955856   -0.266633
     39          1           0        4.048615   -4.006581    0.139980
     40          1           0        5.532082   -1.629976    0.542287
     41          1           0        5.448810    0.796567    0.601200
     42          1           0        3.918344    3.059656    0.297439
     43          1           0        2.521048    4.907375   -0.184955
     44          1           0        0.395040    5.861750   -0.980510
     45          1           0       -1.396697    1.970263   -0.997940
     46          1           0       -1.544464    4.359927   -1.437038
     47          1           0       -3.549828    3.089292    0.091304
 ---------------------------------------------------------------------
 Rotational constants (GHZ):           0.2191512           0.1659312           0.0988890
 Standard basis: 6-311+G(d,p) (5D, 7F)
 There are   792 symmetry adapted cartesian basis functions of A   symmetry.
 There are   762 symmetry adapted basis functions of A   symmetry.
   762 basis functions,  1216 primitive gaussians,   792 cartesian basis functions
    99 alpha electrons       98 beta electrons
       nuclear repulsion energy      2600.8007722060 Hartrees.
 NAtoms=   47 NActive=   47 NUniq=   47 SFac= 1.00D+00 NAtFMM=   60 NAOKFM=F Big=F
 Integral buffers will be    131072 words long.
 Raffenetti 2 integral format.
 Two-electron integral symmetry is turned on.
 One-electron integrals computed using PRISM.
 NBasis=   762 RedAO= T EigKep=  1.20D-06  NBF=   762
 NBsUse=   741 1.00D-06 EigRej=  9.68D-07 NBFU=   741
 ExpMin= 4.38D-02 ExpMax= 4.56D+03 ExpMxC= 6.82D+02 IAcc=2 IRadAn=         4 AccDes= 0.00D+00
 Harris functional with IExCor=  402 and IRadAn=       4 diagonalized for initial guess.
 HarFok:  IExCor=  402 AccDes= 0.00D+00 IRadAn=         4 IDoV= 1 UseB2=F ITyADJ=14
 ICtDFT=  3500011 ScaDFX=  1.000000  1.000000  1.000000  1.000000
 FoFCou: FMM=F IPFlag=           0 FMFlag=      100000 FMFlg1=           0
         NFxFlg=           0 DoJE=T BraDBF=F KetDBF=T FulRan=T
         wScrn=  0.000000 ICntrl=       500 IOpCl=  0 I1Cent=   200000004 NGrid=           0
         NMat0=    1 NMatS0=      1 NMatT0=    0 NMatD0=    1 NMtDS0=    0 NMtDT0=    0
 Petite list used in FoFCou.
 Initial guess <Sx>= 0.0000 <Sy>= 0.0000 <Sz>= 0.5000 <S**2>= 0.7500 S= 0.5000
 Requested convergence on RMS density matrix=1.00D-08 within 128 cycles.
 Requested convergence on MAX density matrix=1.00D-06.
 Requested convergence on             energy=1.00D-06.
 No special actions if energy rises.
 Restarting incremental Fock formation.
 SCF Done:  E(UB3LYP) =  -1153.62881270     A.U. after   27 cycles
            NFock= 27  Conv=0.56D-08     -V/T= 2.0045
 <Sx>= 0.0000 <Sy>= 0.0000 <Sz>= 0.5000 <S**2>= 0.7732 S= 0.5115
 <L.S>=  0.00000000000    
 Annihilation of the first spin contaminant:
 S**2 before annihilation     0.7732,   after     0.7503
 DoSCS=F DFT=T ScalE2(SS,OS)=  1.000000  1.000000
 Range of M.O.s used for correlation:     1   741
 NBasis=   762 NAE=    99 NBE=    98 NFC=     0 NFV=     0
 NROrb=    741 NOA=    99 NOB=    98 NVA=   642 NVB=   643

 **** Warning!!: The largest alpha MO coefficient is  0.11957902D+03


 **** Warning!!: The smallest alpha delta epsilon is  0.95659043D-01


 **** Warning!!: The largest beta MO coefficient is  0.12950589D+03

 Symmetrizing basis deriv contribution to polar:
 IMax=3 JMax=2 DiffMx= 0.00D+00
 G2DrvN: will do    48 centers at a time, making    1 passes.
 Calling FoFCou, ICntrl=  3107 FMM=F I1Cent=   0 AccDes= 0.00D+00.
 End of G2Drv F.D. properties file   721 does not exist.
 End of G2Drv F.D. properties file   722 does not exist.
 End of G2Drv F.D. properties file   788 does not exist.
          IDoAtm=11111111111111111111111111111111111111111111111
          Differentiating once with respect to nuclear coordinates.
 CalDSu exits because no D1Ps are significant.
          There are   144 degrees of freedom in the 1st order CPHF.  IDoFFX=6 NUNeed=     0.
    138 vectors produced by pass  0 Test12= 1.27D-13 1.00D-09 XBig12= 5.60D-01 1.25D-01.
 AX will form   138 AO Fock derivatives at one time.
    138 vectors produced by pass  1 Test12= 1.27D-13 1.00D-09 XBig12= 1.47D-01 5.38D-02.
    138 vectors produced by pass  2 Test12= 1.27D-13 1.00D-09 XBig12= 1.97D-03 6.02D-03.
    138 vectors produced by pass  3 Test12= 1.27D-13 1.00D-09 XBig12= 2.10D-05 1.01D-03.
    138 vectors produced by pass  4 Test12= 1.27D-13 1.00D-09 XBig12= 2.38D-07 4.21D-05.
    138 vectors produced by pass  5 Test12= 1.27D-13 1.00D-09 XBig12= 1.34D-09 2.50D-06.
    132 vectors produced by pass  6 Test12= 1.27D-13 1.00D-09 XBig12= 5.76D-11 3.90D-07.
    109 vectors produced by pass  7 Test12= 1.27D-13 1.00D-09 XBig12= 1.27D-11 2.06D-07.
     81 vectors produced by pass  8 Test12= 1.27D-13 1.00D-09 XBig12= 1.17D-12 4.35D-08.
     13 vectors produced by pass  9 Test12= 1.27D-13 1.00D-09 XBig12= 1.13D-14 4.13D-09.
      1 vectors produced by pass 10 Test12= 1.27D-13 1.00D-09 XBig12= 5.95D-16 1.18D-09.
 InvSVY:  IOpt=1 It=  1 EMax= 8.88D-16
 Solved reduced A of dimension  1164 with   144 vectors.
 End of Minotr F.D. properties file   721 does not exist.
 End of Minotr F.D. properties file   722 does not exist.
 End of Minotr F.D. properties file   788 does not exist.

 **********************************************************************

            Population analysis using the SCF Density.

 **********************************************************************

 Orbital symmetries:
 Alpha Orbitals:
       Occupied  (A) (A) (A) (A) (A) (A) (A) (A) (A) (A) (A) (A)
                 (A) (A) (A) (A) (A) (A) (A) (A) (A) (A) (A) (A)
                 (A) (A) (A) (A) (A) (A) (A) (A) (A) (A) (A) (A)
                 (A) (A) (A) (A) (A) (A) (A) (A) (A) (A) (A) (A)
                 (A) (A) (A) (A) (A) (A) (A) (A) (A) (A) (A) (A)
                 (A) (A) (A) (A) (A) (A) (A) (A) (A) (A) (A) (A)
                 (A) (A) (A) (A) (A) (A) (A) (A) (A) (A) (A) (A)
                 (A) (A) (A) (A) (A) (A) (A) (A) (A) (A) (A) (A)
                 (A) (A) (A)
       Virtual   (A) (A) (A) (A) (A) (A) (A) (A) (A) (A) (A) (A)
                 (A) (A) (A) (A) (A) (A) (A) (A) (A) (A) (A) (A)
                 (A) (A) (A) (A) (A) (A) (A) (A) (A) (A) (A) (A)
                 (A) (A) (A) (A) (A) (A) (A) (A) (A) (A) (A) (A)
                 (A) (A) (A) (A) (A) (A) (A) (A) (A) (A) (A) (A)
                 (A) (A) (A) (A) (A) (A) (A) (A) (A) (A) (A) (A)
                 (A) (A) (A) (A) (A) (A) (A) (A) (A) (A) (A) (A)
                 (A) (A) (A) (A) (A) (A) (A) (A) (A) (A) (A) (A)
                 (A) (A) (A) (A) (A) (A) (A) (A) (A) (A) (A) (A)
                 (A) (A) (A) (A) (A) (A) (A) (A) (A) (A) (A) (A)
                 (A) (A) (A) (A) (A) (A) (A) (A) (A) (A) (A) (A)
                 (A) (A) (A) (A) (A) (A) (A) (A) (A) (A) (A) (A)
                 (A) (A) (A) (A) (A) (A) (A) (A) (A) (A) (A) (A)
                 (A) (A) (A) (A) (A) (A) (A) (A) (A) (A) (A) (A)
                 (A) (A) (A) (A) (A) (A) (A) (A) (A) (A) (A) (A)
                 (A) (A) (A) (A) (A) (A) (A) (A) (A) (A) (A) (A)
                 (A) (A) (A) (A) (A) (A) (A) (A) (A) (A) (A) (A)
                 (A) (A) (A) (A) (A) (A) (A) (A) (A) (A) (A) (A)
                 (A) (A) (A) (A) (A) (A) (A) (A) (A) (A) (A) (A)
                 (A) (A) (A) (A) (A) (A) (A) (A) (A) (A) (A) (A)
                 (A) (A) (A) (A) (A) (A) (A) (A) (A) (A) (A) (A)
                 (A) (A) (A) (A) (A) (A) (A) (A) (A) (A) (A) (A)
                 (A) (A) (A) (A) (A) (A) (A) (A) (A) (A) (A) (A)
                 (A) (A) (A) (A) (A) (A) (A) (A) (A) (A) (A) (A)
                 (A) (A) (A) (A) (A) (A) (A) (A) (A) (A) (A) (A)
                 (A) (A) (A) (A) (A) (A) (A) (A) (A) (A) (A) (A)
                 (A) (A) (A) (A) (A) (A) (A) (A) (A) (A) (A) (A)
                 (A) (A) (A) (A) (A) (A) (A) (A) (A) (A) (A) (A)
                 (A) (A) (A) (A) (A) (A) (A) (A) (A) (A) (A) (A)
                 (A) (A) (A) (A) (A) (A) (A) (A) (A) (A) (A) (A)
                 (A) (A) (A) (A) (A) (A) (A) (A) (A) (A) (A) (A)
                 (A) (A) (A) (A) (A) (A) (A) (A) (A) (A) (A) (A)
                 (A) (A) (A) (A) (A) (A) (A) (A) (A) (A) (A) (A)
                 (A) (A) (A) (A) (A) (A) (A) (A) (A) (A) (A) (A)
                 (A) (A) (A) (A) (A) (A) (A) (A) (A) (A) (A) (A)
                 (A) (A) (A) (A) (A) (A) (A) (A) (A) (A) (A) (A)
                 (A) (A) (A) (A) (A) (A) (A) (A) (A) (A) (A) (A)
                 (A) (A) (A) (A) (A) (A) (A) (A) (A) (A) (A) (A)
                 (A) (A) (A) (A) (A) (A) (A) (A) (A) (A) (A) (A)
                 (A) (A) (A) (A) (A) (A) (A) (A) (A) (A) (A) (A)
                 (A) (A) (A) (A) (A) (A) (A) (A) (A) (A) (A) (A)
                 (A) (A) (A) (A) (A) (A) (A) (A) (A) (A) (A) (A)
                 (A) (A) (A) (A) (A) (A) (A) (A) (A) (A) (A) (A)
                 (A) (A) (A) (A) (A) (A) (A) (A) (A) (A) (A) (A)
                 (A) (A) (A) (A) (A) (A) (A) (A) (A) (A) (A) (A)
                 (A) (A) (A) (A) (A) (A) (A) (A) (A) (A) (A) (A)
                 (A) (A) (A) (A) (A) (A) (A) (A) (A) (A) (A) (A)
                 (A) (A) (A) (A) (A) (A) (A) (A) (A) (A) (A) (A)
                 (A) (A) (A) (A) (A) (A) (A) (A) (A) (A) (A) (A)
                 (A) (A) (A) (A) (A) (A) (A) (A) (A) (A) (A) (A)
                 (A) (A) (A) (A) (A) (A) (A) (A) (A) (A) (A) (A)
                 (A) (A) (A) (A) (A) (A) (A) (A) (A) (A) (A) (A)
                 (A) (A) (A) (A) (A) (A) (A) (A) (A) (A) (A) (A)
                 (A) (A) (A) (A) (A) (A)
 Beta  Orbitals:
       Occupied  (A) (A) (A) (A) (A) (A) (A) (A) (A) (A) (A) (A)
                 (A) (A) (A) (A) (A) (A) (A) (A) (A) (A) (A) (A)
                 (A) (A) (A) (A) (A) (A) (A) (A) (A) (A) (A) (A)
                 (A) (A) (A) (A) (A) (A) (A) (A) (A) (A) (A) (A)
                 (A) (A) (A) (A) (A) (A) (A) (A) (A) (A) (A) (A)
                 (A) (A) (A) (A) (A) (A) (A) (A) (A) (A) (A) (A)
                 (A) (A) (A) (A) (A) (A) (A) (A) (A) (A) (A) (A)
                 (A) (A) (A) (A) (A) (A) (A) (A) (A) (A) (A) (A)
                 (A) (A)
       Virtual   (A) (A) (A) (A) (A) (A) (A) (A) (A) (A) (A) (A)
                 (A) (A) (A) (A) (A) (A) (A) (A) (A) (A) (A) (A)
                 (A) (A) (A) (A) (A) (A) (A) (A) (A) (A) (A) (A)
                 (A) (A) (A) (A) (A) (A) (A) (A) (A) (A) (A) (A)
                 (A) (A) (A) (A) (A) (A) (A) (A) (A) (A) (A) (A)
                 (A) (A) (A) (A) (A) (A) (A) (A) (A) (A) (A) (A)
                 (A) (A) (A) (A) (A) (A) (A) (A) (A) (A) (A) (A)
                 (A) (A) (A) (A) (A) (A) (A) (A) (A) (A) (A) (A)
                 (A) (A) (A) (A) (A) (A) (A) (A) (A) (A) (A) (A)
                 (A) (A) (A) (A) (A) (A) (A) (A) (A) (A) (A) (A)
                 (A) (A) (A) (A) (A) (A) (A) (A) (A) (A) (A) (A)
                 (A) (A) (A) (A) (A) (A) (A) (A) (A) (A) (A) (A)
                 (A) (A) (A) (A) (A) (A) (A) (A) (A) (A) (A) (A)
                 (A) (A) (A) (A) (A) (A) (A) (A) (A) (A) (A) (A)
                 (A) (A) (A) (A) (A) (A) (A) (A) (A) (A) (A) (A)
                 (A) (A) (A) (A) (A) (A) (A) (A) (A) (A) (A) (A)
                 (A) (A) (A) (A) (A) (A) (A) (A) (A) (A) (A) (A)
                 (A) (A) (A) (A) (A) (A) (A) (A) (A) (A) (A) (A)
                 (A) (A) (A) (A) (A) (A) (A) (A) (A) (A) (A) (A)
                 (A) (A) (A) (A) (A) (A) (A) (A) (A) (A) (A) (A)
                 (A) (A) (A) (A) (A) (A) (A) (A) (A) (A) (A) (A)
                 (A) (A) (A) (A) (A) (A) (A) (A) (A) (A) (A) (A)
                 (A) (A) (A) (A) (A) (A) (A) (A) (A) (A) (A) (A)
                 (A) (A) (A) (A) (A) (A) (A) (A) (A) (A) (A) (A)
                 (A) (A) (A) (A) (A) (A) (A) (A) (A) (A) (A) (A)
                 (A) (A) (A) (A) (A) (A) (A) (A) (A) (A) (A) (A)
                 (A) (A) (A) (A) (A) (A) (A) (A) (A) (A) (A) (A)
                 (A) (A) (A) (A) (A) (A) (A) (A) (A) (A) (A) (A)
                 (A) (A) (A) (A) (A) (A) (A) (A) (A) (A) (A) (A)
                 (A) (A) (A) (A) (A) (A) (A) (A) (A) (A) (A) (A)
                 (A) (A) (A) (A) (A) (A) (A) (A) (A) (A) (A) (A)
                 (A) (A) (A) (A) (A) (A) (A) (A) (A) (A) (A) (A)
                 (A) (A) (A) (A) (A) (A) (A) (A) (A) (A) (A) (A)
                 (A) (A) (A) (A) (A) (A) (A) (A) (A) (A) (A) (A)
                 (A) (A) (A) (A) (A) (A) (A) (A) (A) (A) (A) (A)
                 (A) (A) (A) (A) (A) (A) (A) (A) (A) (A) (A) (A)
                 (A) (A) (A) (A) (A) (A) (A) (A) (A) (A) (A) (A)
                 (A) (A) (A) (A) (A) (A) (A) (A) (A) (A) (A) (A)
                 (A) (A) (A) (A) (A) (A) (A) (A) (A) (A) (A) (A)
                 (A) (A) (A) (A) (A) (A) (A) (A) (A) (A) (A) (A)
                 (A) (A) (A) (A) (A) (A) (A) (A) (A) (A) (A) (A)
                 (A) (A) (A) (A) (A) (A) (A) (A) (A) (A) (A) (A)
                 (A) (A) (A) (A) (A) (A) (A) (A) (A) (A) (A) (A)
                 (A) (A) (A) (A) (A) (A) (A) (A) (A) (A) (A) (A)
                 (A) (A) (A) (A) (A) (A) (A) (A) (A) (A) (A) (A)
                 (A) (A) (A) (A) (A) (A) (A) (A) (A) (A) (A) (A)
                 (A) (A) (A) (A) (A) (A) (A) (A) (A) (A) (A) (A)
                 (A) (A) (A) (A) (A) (A) (A) (A) (A) (A) (A) (A)
                 (A) (A) (A) (A) (A) (A) (A) (A) (A) (A) (A) (A)
                 (A) (A) (A) (A) (A) (A) (A) (A) (A) (A) (A) (A)
                 (A) (A) (A) (A) (A) (A) (A) (A) (A) (A) (A) (A)
                 (A) (A) (A) (A) (A) (A) (A) (A) (A) (A) (A) (A)
                 (A) (A) (A) (A) (A) (A) (A) (A) (A) (A) (A) (A)
                 (A) (A) (A) (A) (A) (A) (A)
 The electronic state is 2-A.
 Alpha  occ. eigenvalues --  -10.20944 -10.20061 -10.19984 -10.19885 -10.19718
 Alpha  occ. eigenvalues --  -10.19703 -10.19667 -10.19662 -10.19642 -10.19433
 Alpha  occ. eigenvalues --  -10.19264 -10.19243 -10.19217 -10.19205 -10.19126
 Alpha  occ. eigenvalues --  -10.19120 -10.19113 -10.19073 -10.18732 -10.18616
 Alpha  occ. eigenvalues --  -10.18578 -10.18286 -10.18259 -10.18229 -10.18036
 Alpha  occ. eigenvalues --  -10.17882 -10.17584 -10.17174 -10.17150 -10.16770
 Alpha  occ. eigenvalues --   -0.92026  -0.89067  -0.87672  -0.85749  -0.83858
 Alpha  occ. eigenvalues --   -0.83289  -0.80684  -0.79577  -0.78105  -0.77181
 Alpha  occ. eigenvalues --   -0.75532  -0.74802  -0.72869  -0.71763  -0.71411
 Alpha  occ. eigenvalues --   -0.66883  -0.64963  -0.63945  -0.63296  -0.62461
 Alpha  occ. eigenvalues --   -0.60744  -0.59457  -0.58761  -0.57068  -0.55937
 Alpha  occ. eigenvalues --   -0.53404  -0.52488  -0.51854  -0.51422  -0.49715
 Alpha  occ. eigenvalues --   -0.48891  -0.48001  -0.47435  -0.46596  -0.45795
 Alpha  occ. eigenvalues --   -0.44848  -0.44293  -0.43923  -0.43814  -0.43252
 Alpha  occ. eigenvalues --   -0.42893  -0.42446  -0.41907  -0.40995  -0.40699
 Alpha  occ. eigenvalues --   -0.40492  -0.40178  -0.39566  -0.38961  -0.37596
 Alpha  occ. eigenvalues --   -0.37496  -0.36622  -0.35221  -0.35171  -0.34901
 Alpha  occ. eigenvalues --   -0.34443  -0.33963  -0.33560  -0.33146  -0.32094
 Alpha  occ. eigenvalues --   -0.30081  -0.29193  -0.27803  -0.27288  -0.25085
 Alpha  occ. eigenvalues --   -0.23046  -0.22693  -0.20938  -0.19778
 Alpha virt. eigenvalues --   -0.10212  -0.05724  -0.04996  -0.03167  -0.01742
 Alpha virt. eigenvalues --   -0.00671   0.00096   0.00271   0.00491   0.00941
 Alpha virt. eigenvalues --    0.01352   0.01500   0.01759   0.02319   0.02681
 Alpha virt. eigenvalues --    0.03050   0.03439   0.03711   0.03812   0.04404
 Alpha virt. eigenvalues --    0.04781   0.05116   0.05292   0.05487   0.05919
 Alpha virt. eigenvalues --    0.06417   0.06633   0.07033   0.07341   0.07776
 Alpha virt. eigenvalues --    0.08120   0.08361   0.08479   0.08892   0.09207
 Alpha virt. eigenvalues --    0.09631   0.10079   0.10140   0.10586   0.10862
 Alpha virt. eigenvalues --    0.11214   0.11425   0.11945   0.12119   0.12557
 Alpha virt. eigenvalues --    0.12825   0.13263   0.13375   0.13675   0.14238
 Alpha virt. eigenvalues --    0.14483   0.14774   0.15061   0.15368   0.15635
 Alpha virt. eigenvalues --    0.15787   0.15984   0.16162   0.16264   0.16436
 Alpha virt. eigenvalues --    0.16801   0.16906   0.17090   0.17345   0.17467
 Alpha virt. eigenvalues --    0.17747   0.18105   0.18256   0.18626   0.18975
 Alpha virt. eigenvalues --    0.19313   0.19418   0.19555   0.19752   0.19765
 Alpha virt. eigenvalues --    0.19853   0.20214   0.20491   0.20519   0.20651
 Alpha virt. eigenvalues --    0.21112   0.21389   0.21509   0.21646   0.21887
 Alpha virt. eigenvalues --    0.22139   0.22192   0.22588   0.22751   0.23155
 Alpha virt. eigenvalues --    0.23193   0.23336   0.23568   0.24051   0.24171
 Alpha virt. eigenvalues --    0.24307   0.24338   0.24929   0.25129   0.25346
 Alpha virt. eigenvalues --    0.25516   0.25645   0.25891   0.26048   0.26278
 Alpha virt. eigenvalues --    0.26873   0.27153   0.27160   0.27376   0.27665
 Alpha virt. eigenvalues --    0.27981   0.28377   0.28604   0.28891   0.29225
 Alpha virt. eigenvalues --    0.29297   0.29507   0.29889   0.30026   0.30186
 Alpha virt. eigenvalues --    0.30422   0.30803   0.30962   0.31687   0.31751
 Alpha virt. eigenvalues --    0.32241   0.32400   0.32581   0.32914   0.33114
 Alpha virt. eigenvalues --    0.33827   0.34139   0.34471   0.34805   0.35378
 Alpha virt. eigenvalues --    0.35748   0.36089   0.36322   0.36827   0.37889
 Alpha virt. eigenvalues --    0.38277   0.38770   0.39358   0.39650   0.40547
 Alpha virt. eigenvalues --    0.41101   0.41742   0.42081   0.42534   0.42941
 Alpha virt. eigenvalues --    0.43538   0.44234   0.44592   0.45079   0.45655
 Alpha virt. eigenvalues --    0.45773   0.46934   0.47391   0.47652   0.49086
 Alpha virt. eigenvalues --    0.50303   0.50616   0.51114   0.51694   0.51892
 Alpha virt. eigenvalues --    0.52404   0.52855   0.53344   0.53477   0.53683
 Alpha virt. eigenvalues --    0.53897   0.54237   0.54814   0.55151   0.55361
 Alpha virt. eigenvalues --    0.56031   0.56337   0.56669   0.57076   0.57435
 Alpha virt. eigenvalues --    0.58076   0.58127   0.58243   0.58649   0.59075
 Alpha virt. eigenvalues --    0.59462   0.59859   0.59897   0.60459   0.61113
 Alpha virt. eigenvalues --    0.61426   0.61775   0.62472   0.62753   0.63623
 Alpha virt. eigenvalues --    0.64010   0.64192   0.64726   0.64775   0.65158
 Alpha virt. eigenvalues --    0.65413   0.66002   0.66845   0.67302   0.67791
 Alpha virt. eigenvalues --    0.67989   0.68608   0.68713   0.69114   0.69585
 Alpha virt. eigenvalues --    0.69774   0.70149   0.70816   0.70994   0.71386
 Alpha virt. eigenvalues --    0.71647   0.71954   0.71965   0.72236   0.72403
 Alpha virt. eigenvalues --    0.72676   0.73080   0.73374   0.74181   0.74573
 Alpha virt. eigenvalues --    0.74688   0.75128   0.75429   0.75808   0.76211
 Alpha virt. eigenvalues --    0.77087   0.77449   0.77719   0.77847   0.78692
 Alpha virt. eigenvalues --    0.79227   0.80028   0.80187   0.81322   0.81894
 Alpha virt. eigenvalues --    0.82458   0.83102   0.83512   0.83800   0.85058
 Alpha virt. eigenvalues --    0.85439   0.85635   0.85959   0.86617   0.87110
 Alpha virt. eigenvalues --    0.88056   0.88838   0.89295   0.89665   0.90047
 Alpha virt. eigenvalues --    0.90498   0.90919   0.91314   0.91631   0.92058
 Alpha virt. eigenvalues --    0.92405   0.93138   0.93657   0.93813   0.94586
 Alpha virt. eigenvalues --    0.95292   0.95534   0.95690   0.96070   0.96779
 Alpha virt. eigenvalues --    0.96970   0.97135   0.97499   0.98005   0.98286
 Alpha virt. eigenvalues --    0.99014   0.99565   0.99827   1.00045   1.00274
 Alpha virt. eigenvalues --    1.01475   1.01907   1.02235   1.02930   1.03681
 Alpha virt. eigenvalues --    1.03950   1.04573   1.05084   1.05728   1.06126
 Alpha virt. eigenvalues --    1.07137   1.07262   1.08112   1.08504   1.09135
 Alpha virt. eigenvalues --    1.09702   1.09864   1.10893   1.11307   1.11988
 Alpha virt. eigenvalues --    1.12672   1.13485   1.14700   1.15382   1.16142
 Alpha virt. eigenvalues --    1.17009   1.18007   1.18494   1.19743   1.20472
 Alpha virt. eigenvalues --    1.21105   1.22629   1.23182   1.24360   1.25137
 Alpha virt. eigenvalues --    1.26727   1.28906   1.30243   1.31711   1.32367
 Alpha virt. eigenvalues --    1.33515   1.34988   1.35515   1.36530   1.37289
 Alpha virt. eigenvalues --    1.38839   1.40354   1.42221   1.42482   1.43265
 Alpha virt. eigenvalues --    1.45228   1.45852   1.46789   1.47025   1.47493
 Alpha virt. eigenvalues --    1.47885   1.48747   1.49174   1.49541   1.49888
 Alpha virt. eigenvalues --    1.50654   1.50817   1.51302   1.52318   1.52682
 Alpha virt. eigenvalues --    1.53091   1.53796   1.54191   1.55541   1.55926
 Alpha virt. eigenvalues --    1.56325   1.56704   1.57039   1.58140   1.58364
 Alpha virt. eigenvalues --    1.59491   1.59655   1.60544   1.60757   1.61833
 Alpha virt. eigenvalues --    1.62600   1.63429   1.63916   1.65456   1.66057
 Alpha virt. eigenvalues --    1.66850   1.67162   1.68361   1.68767   1.69489
 Alpha virt. eigenvalues --    1.70101   1.70446   1.71071   1.71873   1.73045
 Alpha virt. eigenvalues --    1.73551   1.73717   1.74339   1.74765   1.75071
 Alpha virt. eigenvalues --    1.75624   1.76428   1.77100   1.77449   1.79140
 Alpha virt. eigenvalues --    1.80305   1.80995   1.82401   1.82655   1.82890
 Alpha virt. eigenvalues --    1.83674   1.84230   1.84838   1.85241   1.86584
 Alpha virt. eigenvalues --    1.87317   1.87460   1.88152   1.88683   1.88783
 Alpha virt. eigenvalues --    1.89507   1.89826   1.90609   1.91425   1.92041
 Alpha virt. eigenvalues --    1.92427   1.92959   1.93316   1.93620   1.94260
 Alpha virt. eigenvalues --    1.94456   1.95220   1.95945   1.97225   1.97504
 Alpha virt. eigenvalues --    1.97914   1.98250   1.98897   1.99847   2.00509
 Alpha virt. eigenvalues --    2.01134   2.01987   2.02241   2.03345   2.03803
 Alpha virt. eigenvalues --    2.04803   2.05890   2.06600   2.07008   2.08387
 Alpha virt. eigenvalues --    2.08485   2.08928   2.09813   2.11155   2.11852
 Alpha virt. eigenvalues --    2.12320   2.12787   2.14075   2.15233   2.16477
 Alpha virt. eigenvalues --    2.17421   2.18554   2.19316   2.19699   2.20576
 Alpha virt. eigenvalues --    2.21566   2.23374   2.23729   2.24345   2.25494
 Alpha virt. eigenvalues --    2.26122   2.27403   2.29159   2.30594   2.31440
 Alpha virt. eigenvalues --    2.33674   2.34488   2.35013   2.38342   2.39226
 Alpha virt. eigenvalues --    2.39976   2.40908   2.41271   2.42640   2.43182
 Alpha virt. eigenvalues --    2.43489   2.44240   2.45804   2.46475   2.47329
 Alpha virt. eigenvalues --    2.47875   2.49690   2.51968   2.54214   2.54858
 Alpha virt. eigenvalues --    2.55123   2.57423   2.58719   2.59938   2.60568
 Alpha virt. eigenvalues --    2.61471   2.63165   2.64766   2.66165   2.66533
 Alpha virt. eigenvalues --    2.67922   2.68292   2.69200   2.70193   2.70842
 Alpha virt. eigenvalues --    2.71462   2.71710   2.72518   2.72949   2.73366
 Alpha virt. eigenvalues --    2.73444   2.74037   2.74466   2.75107   2.75335
 Alpha virt. eigenvalues --    2.75600   2.76017   2.76154   2.76789   2.77274
 Alpha virt. eigenvalues --    2.77721   2.78397   2.78719   2.79013   2.80075
 Alpha virt. eigenvalues --    2.80438   2.81293   2.81773   2.83116   2.83247
 Alpha virt. eigenvalues --    2.84041   2.85118   2.85558   2.86399   2.87635
 Alpha virt. eigenvalues --    2.88196   2.88588   2.88854   2.89975   2.90731
 Alpha virt. eigenvalues --    2.90962   2.92139   2.92998   2.93414   2.94348
 Alpha virt. eigenvalues --    2.95003   2.96683   2.98116   2.98810   3.00866
 Alpha virt. eigenvalues --    3.01275   3.02908   3.03957   3.05577   3.08351
 Alpha virt. eigenvalues --    3.10384   3.11945   3.13437   3.14747   3.15395
 Alpha virt. eigenvalues --    3.16503   3.17533   3.20094   3.20573   3.21922
 Alpha virt. eigenvalues --    3.22440   3.23357   3.24641   3.26528   3.29574
 Alpha virt. eigenvalues --    3.31860   3.32504   3.35248   3.35561   3.36971
 Alpha virt. eigenvalues --    3.38647   3.38914   3.41647   3.42939   3.43799
 Alpha virt. eigenvalues --    3.45102   3.45854   3.47409   3.48402   3.49380
 Alpha virt. eigenvalues --    3.49998   3.52728   3.53794   3.55137   3.55606
 Alpha virt. eigenvalues --    3.57532   3.59434   3.61297   3.62095   3.63587
 Alpha virt. eigenvalues --    3.64823   3.68874   3.70351   3.76447   3.81925
[...]
 02697,0.00002812,-0.00007771,0.00000744,0.00005061,0.00000640,-0.00001
 424,-0.00022523,0.00051971,-0.00029644,0.00148801,0.00185686,0.0015679
 8,-0.00028725,-0.00047067,0.00005293,0.00001528,-0.00002339,-0.0000020
 7,-0.00000074,0.00000635,0.00000955,-0.00000367,-0.00001160,-0.0000017
 6,0.00001726,0.00009578,-0.00000656,-0.00126585,-0.00824965,0.00144425
 ,-0.00367865,-0.00002075,-0.00061842,0.00427033,-0.01355322,0.00397072
 ,0.02028595,-0.32499089,0.05072782,0.00001430,0.00000472,-0.00000007,-
 0.00000366,0.00000706,0.00000325,0.00001471,0.00001314,0.00000933,-0.0
 0001163,-0.00001215,0.00001682,0.00000394,0.00000331,0.00002538,-0.000
 00165,-0.00003278,-0.00000233,-0.00000858,0.00000575,-0.00000046,-0.00
 000139,0.00000096,0.00000027,-0.00000883,0.00000194,-0.00000034,0.0000
 0007,-0.00000541,0.00000529,-0.00000732,0.00000141,-0.00003586,-0.0000
 0593,-0.00000296,-0.00000131,-0.00000687,-0.00000216,-0.00000063,-0.00
 000049,-0.00000586,-0.00000283,-0.00000145,-0.00000550,-0.00000174,-0.
 00000099,-0.00000701,-0.00000089,0.00000563,-0.00000520,0.00000077,0.0
 0000361,-0.00001338,0.00000391,0.00001295,0.00000508,0.00000073,0.0000
 2199,0.00001711,0.00004549,0.00051466,0.00073152,-0.00074502,-0.021650
 90,0.34434059,0.00000773,-0.00000720,0.00001437,-0.00000291,0.00002650
 ,0.00000846,0.00000130,-0.00001606,-0.00000507,-0.00001820,-0.00001531
 ,-0.00001245,-0.00001424,0.00001250,0.00000039,0.00001846,0.00000696,-
 0.00000432,0.00001305,0.00001748,0.00012564,-0.00006014,0.00000840,-0.
 00074632,0.00004533,0.00001271,-0.00007840,-0.00001541,0.00002661,0.00
 005365,0.00019465,-0.00003270,-0.00059304,-0.00024905,-0.00023963,-0.0
 0072446,-0.00396571,0.00133606,0.00768363,0.00011662,0.00066418,0.0002
 0265,-0.00000631,0.00000438,-0.00000128,0.00000583,-0.00000573,-0.0000
 0908,-0.00001643,0.00001199,0.00000919,-0.00002002,0.00000281,0.000006
 21,0.00007164,0.01084602,0.00198330,-0.00238352,-0.00014363,0.00407879
 ,0.00058097,-0.00593427,0.00354100,-0.01066573,0.05074183,-0.04726508,
 -0.00001164,-0.00000878,-0.00000835,0.00001393,-0.00000341,0.00000183,
 0.00002768,0.00000950,0.00000385,-0.00003716,-0.00000797,0.00001549,0.
 00000357,0.00000614,0.00001581,0.00000183,0.00000022,0.00001769,-0.000
 01402,0.00000615,-0.00000592,0.00000819,-0.00001037,-0.00000781,0.0000
 0226,0.00000091,0.00000161,0.00000849,0.00000846,-0.00000934,-0.000027
 44,-0.00000177,0.00000594,-0.00000087,-0.00000261,0.00000134,-0.000000
 37,-0.00000183,0.00000071,0.00000103,-0.00000049,0.00000137,0.00000023
 ,0.00000015,0.00000242,0.00000098,0.00000114,-0.00000356,-0.00000087,0
 .00000158,0.00000210,-0.00000240,0.00000585,0.00001618,-0.00000227,-0.
 00000196,-0.00000091,-0.00005402,0.00000683,0.00021768,0.00159664,-0.0
 0099404,-0.00455713,0.01378076,-0.05581437,0.03793254,0.00009091,0.000
 00195,-0.00000499,-0.00017914,0.00005880,0.00004738,0.00015584,-0.0000
 9432,-0.00007055,-0.00018518,-0.00004842,-0.00002744,-0.00004426,-0.00
 000800,-0.00000485,0.00002249,0.00002325,0.00001117,-0.00021025,0.0000
 7349,0.00020322,0.00000307,0.00018931,0.00003626,0.00013633,-0.0000768
 1,0.00000812,0.00001756,0.00016429,0.00001409,0.00094585,-0.00081208,0
 .00091695,-0.01687333,-0.01557271,-0.00423338,-0.00187305,0.00331923,-
 0.00268819,-0.00039526,-0.00136058,0.00003818,-0.00007145,0.00000240,-
 0.00000114,0.00004245,-0.00000872,0.00006065,0.00006036,0.00032711,0.0
 0006998,-0.00011214,0.00039152,-0.00016236,0.00003118,0.00061722,0.000
 28442,-0.23264460,-0.13260882,-0.05345981,0.00581394,0.00329735,-0.000
 12823,0.00210096,0.00057320,-0.00251505,0.00004860,0.00002693,0.000023
 08,-0.00004477,0.00000287,-0.00002385,0.00025065,-0.00004411,0.0000807
 9,-0.00017163,-0.00118805,0.00045704,-0.00061696,-0.00072162,0.0018025
 4,-0.00009954,0.00003625,0.00040496,-0.00030472,0.00014152,-0.00000025
 ,-0.00016160,-0.00010253,-0.00022575,-0.00000826,-0.00000235,-0.000001
 83,0.00000808,-0.00002777,0.00006330,-0.00027719,-0.00023512,-0.000075
 51,0.00000567,0.00001382,-0.00000691,0.00000247,0.00000666,0.00000291,
 -0.00000462,0.00000201,-0.00000679,0.00000327,-0.00000031,-0.00000512,
 0.00000406,0.00000132,-0.00000224,-0.00000024,0.00000045,-0.00000202,0
 .00000349,0.00000935,-0.00000040,0.00000437,-0.00000906,-0.00000479,-0
 .00031543,0.00011613,-0.00017636,-0.00011413,-0.00005088,0.00036500,0.
 00015262,0.00027696,-0.00003293,0.24485533,-0.00000936,0.00004859,0.00
 002769,0.00021017,-0.00004119,-0.00006513,-0.00011312,-0.00007594,0.00
 004123,-0.00003067,0.00000435,-0.00000339,-0.00000382,0.00000182,0.000
 00521,-0.00000504,0.00001491,-0.00000194,-0.00031853,0.00021057,-0.000
 13081,0.00004884,0.00023167,-0.00002485,0.00000069,-0.00003921,-0.0000
 0092,0.00004024,0.00002207,0.00001375,0.00028719,0.00053901,-0.0003410
 8,0.01214953,0.01104231,0.00309415,0.00218603,-0.00077250,0.00195490,0
 .00067264,0.00048828,0.00002669,-0.00003609,0.00002940,0.00000168,-0.0
 0006260,-0.00011640,-0.00005313,-0.00022455,-0.00034617,0.00016863,-0.
 00010053,-0.00001792,-0.00011353,0.00074627,-0.00023383,0.00014211,-0.
 13192186,-0.15393099,-0.03074670,-0.02630421,-0.01467618,-0.00619321,0
 .00152169,-0.00448764,0.00274164,0.00001424,-0.00004567,-0.00000378,0.
 00003682,0.00004626,0.00005624,0.00001529,0.00002617,-0.00012447,-0.00
 064166,-0.00129254,0.00061158,-0.00073070,-0.00009850,0.00180089,0.000
 02825,-0.00007171,0.00008759,-0.00014783,-0.00000273,-0.00004807,0.000
 19971,-0.00008889,-0.00000980,-0.00000223,0.00000134,-0.00000622,0.000
 02673,-0.00005026,-0.00003817,-0.00039694,-0.00032263,0.00024491,0.000
 01633,-0.00000425,-0.00001264,0.00000521,0.00000900,0.00000435,0.00000
 979,0.00000848,-0.00000647,-0.00000470,0.00001018,0.00000291,-0.000005
 08,0.00000548,0.00000035,-0.00000224,0.00000280,-0.00000151,-0.0000043
 0,-0.00000131,0.00000006,-0.00000866,-0.00000220,-0.00000104,0.0002404
 4,-0.00006736,0.00001403,-0.00004094,0.00004531,-0.00022839,-0.0011853
 0,-0.00074921,-0.00026251,0.14330972,0.16384634,0.00011307,-0.00004310
 ,0.00004547,-0.00010158,0.00012991,-0.00003477,0.00002890,0.00010489,0
 .00009183,0.00001495,-0.00011154,0.00001157,-0.00010660,0.00009935,-0.
 00000370,0.00012677,0.00004471,0.00001734,0.00058010,-0.00014015,-0.00
 004586,-0.00006925,-0.00019082,-0.00013035,0.00012483,-0.00001666,0.00
 001758,-0.00003343,0.00008176,-0.00001517,0.00048452,0.00008362,-0.002
 08847,-0.00731897,-0.00839421,0.00159604,-0.00262999,0.00177369,0.0033
 9861,-0.00050128,-0.00054351,0.00008209,-0.00007991,0.00003114,-0.0000
 2442,0.00012592,-0.00008377,-0.00006023,-0.00032732,0.00022126,0.00016
 939,0.00000289,0.00014946,-0.00014653,-0.00003860,0.00071215,-0.001085
 47,-0.05302161,-0.02921915,-0.05005876,0.00461996,0.00391587,0.0055258
 8,-0.00199037,0.00252045,0.00732970,-0.00012849,-0.00008923,-0.0000682
 2,0.00007446,-0.00006229,-0.00000341,0.00022385,0.00014796,0.00003683,
 -0.00010602,0.00053465,0.00015176,0.00082240,0.00105217,-0.00135382,0.
 00029952,-0.00038097,-0.00008961,-0.00021244,0.00000212,-0.00010950,0.
 00010660,-0.00006802,0.00008435,-0.00004847,-0.00000228,-0.00000657,0.
 00001422,0.00004160,-0.00004704,-0.00001951,0.00047252,-0.00097270,-0.
 00002344,-0.00002484,0.00000830,-0.00001831,-0.00003469,-0.00000222,0.
 00000776,-0.00001536,0.00000020,0.00000448,-0.00001323,0.00001072,0.00
 000404,-0.00000467,-0.00000326,0.00000367,0.00000633,0.00000080,0.0000
 0330,0.00000777,0.00000016,0.00000166,-0.00000479,0.00001173,-0.000249
 14,0.00013358,0.00022446,0.00027318,-0.00018950,-0.00094173,0.00020999
 ,0.00023686,0.00019226,0.05693076,0.02812069,0.04268578,-0.00000652,-0
 .00001969,-0.00000440,0.00001972,0.00006331,0.00002781,-0.00007475,0.0
 0001203,0.00001081,0.00005364,0.00000949,-0.00002260,-0.00001681,0.000
 02434,0.00000247,0.00001764,0.00000988,-0.00000360,0.00008911,0.000127
 85,0.00028689,0.00003537,-0.00007530,-0.00003382,0.00000539,0.00002733
 ,-0.00004042,-0.00001281,-0.00002074,0.00000861,-0.00016916,-0.0001321
 4,-0.00004992,0.00224783,-0.00089722,-0.00228346,0.00036083,-0.0004324
 4,0.00040106,-0.00011253,0.00015280,0.00020530,0.00000330,-0.00000405,
 0.,0.00000519,0.00001207,0.00000471,-0.00004935,0.00000462,0.00003012,
 0.00001385,0.00003023,-0.00008265,-0.00160238,-0.00423526,-0.00166655,
 0.00221127,-0.00128744,-0.00053688,-0.25574176,0.08954177,-0.09370848,
 -0.01537509,0.01141504,-0.00859464,0.00000244,0.00000764,0.00000480,-0
 .00000839,0.00000287,0.00000338,-0.00004149,-0.00000435,-0.00000841,0.
 00005991,-0.00000609,0.00000583,0.00000554,-0.00003373,-0.00001136,-0.
 00004586,-0.00002305,0.00002381,0.00001247,-0.00003085,-0.00001765,0.0
 0002729,0.00002141,0.00001848,0.00000364,-0.00000115,0.00000152,0.0000
 0727,0.00002016,-0.00001040,-0.00001240,-0.00000590,0.00001516,0.00000
 438,0.00000161,0.00000020,0.00000486,0.00000242,-0.00000059,0.00000025
 ,0.00000418,0.00000153,0.00000236,0.00000460,-0.00000017,0.00000063,0.
 00000405,-0.00000072,-0.00000278,0.00000604,-0.00000134,-0.00000569,0.
 00000494,0.00000437,-0.00000219,-0.00000354,-0.00000103,0.00004347,-0.
 00001451,0.00000080,-0.00088409,0.00056617,-0.00029645,0.00052346,-0.0
 0008055,0.00108850,0.00005509,0.00050081,0.00186368,0.26855509,-0.0000
 4678,0.00001434,-0.00000860,-0.00007140,-0.00008578,-0.00003694,0.0002
 2326,0.00007878,-0.00000015,0.00007782,0.00003091,0.00001842,0.0000830
 4,-0.00004661,0.00000372,-0.00006029,-0.00006169,-0.00000864,0.0001787
 2,-0.00053910,-0.00002628,-0.00006973,-0.00029550,0.00005262,-0.000101
 16,0.00010335,0.00000358,-0.00005639,-0.00012456,-0.00001929,0.0013394
 9,0.00063084,0.00035211,-0.00150219,-0.00526968,0.00213547,-0.00003100
 ,-0.00091226,-0.00006801,-0.00022843,0.00042381,-0.00019681,0.00003412
 ,-0.00001606,-0.00000330,-0.00002755,0.00001348,0.00003131,0.00015432,
 -0.00006253,-0.00003329,-0.00007096,0.00000091,0.00005321,-0.00353068,
 -0.00189608,-0.00006884,0.02767472,-0.00795964,0.01210775,0.08808021,-
 0.09871104,0.04120404,-0.01706015,0.01105868,-0.00746485,0.00007501,0.
 00003797,0.00002476,-0.00007072,0.00001869,-0.00002304,-0.00000767,-0.
 00002842,0.00002611,0.00002145,0.00005403,0.00000569,0.00007085,-0.000
 05486,-0.00004871,-0.00003264,0.00007584,0.00000371,-0.00004104,0.0000
 2628,0.00000622,-0.00009747,0.00004216,-0.00007927,-0.00000054,-0.0000
 0305,0.00000671,0.00000367,0.00001541,0.00002303,0.00002606,0.00001603
 ,-0.00004058,0.00000050,0.00000162,0.00000730,-0.00000011,0.00000196,0
 .00000537,-0.00000723,-0.00000143,0.00000010,-0.00000087,-0.00000266,-
 0.00000370,0.00000030,-0.00000194,0.00000147,-0.00000115,-0.00001088,0
 .00000075,0.00000218,-0.00000444,-0.00000208,0.00001074,-0.00000093,0.
 00000053,0.00007729,-0.00000942,0.00001904,-0.00096292,0.00036015,-0.0
 0024215,0.00079384,0.00069669,-0.00025475,0.00021713,0.00087741,-0.000
 97923,-0.09514318,0.10163028,0.00001845,-0.00003578,0.00000460,-0.0000
 8789,0.00009613,-0.00005632,0.00007885,0.00006458,-0.00005099,-0.00003
 919,-0.00004118,0.00007209,-0.00002933,0.00003194,-0.00000315,0.000033
 11,0.00000424,0.00002581,0.00031050,-0.00005655,-0.00086692,-0.0001165
 9,-0.00007463,0.00013962,0.00003642,-0.00001771,0.00012042,-0.00000423
 ,0.00005108,-0.00002902,-0.00029276,0.00037998,0.00004797,-0.00138986,
 0.00169205,0.00841013,0.00048867,-0.00045954,-0.00053759,0.00001762,-0
 .00000920,-0.00068122,-0.00000111,0.00004412,0.00000546,0.00000104,-0.
 00002395,-0.00004731,-0.00001387,0.00003502,-0.00006475,-0.00002210,-0
 .00022006,0.00018134,-0.00200217,-0.00050064,0.00428567,-0.00607798,0.
 00255501,0.00209340,-0.09368237,0.04073739,-0.07816231,-0.00329426,0.0
 0333804,0.00154875,-0.00009454,-0.00005251,-0.00003221,0.00009794,-0.0
 0005573,-0.00000576,0.00010373,0.00005090,-0.00001539,-0.00017994,-0.0
 0001825,-0.00007510,-0.00009531,0.00013245,0.00017689,0.00007866,-0.00
 007270,-0.00002618,0.00001838,0.00001711,0.00001332,0.00008959,-0.0000
 7789,0.00007405,0.00000370,0.00000802,-0.00000155,0.00002201,0.0000387
 6,-0.00008559,0.00001252,0.00003893,0.00000682,-0.00000974,-0.00001060
 ,-0.00000399,-0.00000562,-0.00000874,-0.00000161,0.00000483,-0.0000026
 3,0.00000018,-0.00000146,-0.00000233,0.00000868,0.00000050,-0.00000102
 ,0.00000154,0.00000058,0.00000089,0.00000332,0.00000301,0.00000371,-0.
 00001386,0.00000138,-0.00000130,0.00000189,0.00000505,0.00000194,0.000
 03040,-0.00026766,0.00019868,-0.00003322,0.00093924,-0.00050576,-0.002
 08743,0.00199934,-0.00092232,-0.00441739,0.10339222,-0.04643326,0.0700
 9689,0.00001511,0.00003314,0.00000922,0.00002113,-0.00002641,-0.000012
 19,0.00002796,-0.00001800,0.00001419,-0.00001529,0.00004454,-0.0000050
 6,0.00001792,-0.00000862,0.00000052,-0.00001830,-0.00002336,-0.0000035
 7,0.00005962,0.00000874,0.00000224,-0.00003678,-0.00004619,-0.00000217
 ,0.00000611,-0.00000673,0.00000119,0.00000046,-0.00000190,0.00000167,-
 0.00008472,-0.00002948,-0.00005233,0.00002357,-0.00004175,0.00007609,-
 0.00004276,-0.00003652,-0.00002715,-0.00000984,0.00001828,-0.00001470,
 -0.00005896,0.00000425,-0.00000399,-0.00001557,-0.00003681,-0.00003627
 ,-0.00037890,0.00006885,0.00001248,0.00012172,0.00016275,0.00010469,-0
 .00002870,0.00003793,-0.00005526,-0.00059277,0.00026006,0.00013829,-0.
 00041981,-0.00027655,0.00028402,0.00003869,0.00007735,0.00006287,-0.00
 000411,0.00008913,0.00004452,0.00006728,-0.00014421,-0.00012930,0.0001
 8238,0.00017471,0.00020869,-0.00011159,-0.00075107,-0.00078839,-0.0011
 5532,0.00437676,-0.00093331,-0.00166496,-0.00146230,0.00104699,-0.0005
 9854,-0.00015090,0.00041870,-0.00119561,-0.00381469,0.00138547,0.00009
 578,0.00007577,-0.00010863,0.00042587,0.00049174,-0.00059015,-0.000052
 88,-0.00024562,0.00024923,0.00004540,0.00012972,-0.00008385,0.00001316
 ,0.00001771,0.00000614,-0.00000435,-0.00000586,0.00001425,0.00000046,-
 0.00000011,-0.00000049,0.00000073,0.00000187,0.00000045,-0.00000237,0.
 00000022,-0.00000070,-0.00000191,0.00000090,0.00000054,-0.00000145,-0.
 00000141,0.00000004,-0.00000238,-0.00000048,-0.00000001,-0.00000741,0.
 00000003,-0.00001138,0.00000034,0.00000106,0.00001197,-0.00010689,0.00
 003431,-0.00004073,-0.00020725,0.00007753,-0.00004939,0.00565575,-0.00
 003213,0.00002332,-0.00002416,0.00017655,-0.00008004,0.00001102,-0.000
 03215,-0.00009420,-0.00000777,-0.00000226,-0.00000024,0.00000799,0.000
 01587,-0.00001388,0.00001098,-0.00001957,0.00002056,-0.00000539,-0.000
 01006,0.00007311,-0.00001059,-0.00003514,0.00000535,-0.00000022,0.0000
 4179,-0.00005338,0.00000775,0.00002331,0.00004031,0.00000356,0.0000529
 8,0.00004107,0.00003542,0.00002890,0.00003184,-0.00004381,0.00001867,0
 .00002465,-0.00000985,-0.00000606,-0.00002528,0.00000452,0.00011065,-0
 .00004885,0.00000766,-0.00052739,-0.00011233,-0.00000978,0.00064811,-0
 .00013033,-0.00036809,-0.00034956,0.00007788,-0.00001652,0.00004720,-0
 .00000986,0.00002972,-0.00001180,-0.00005019,0.00024392,-0.00015528,0.
 00003381,0.00007411,0.00000313,-0.00007953,-0.00003379,0.00163765,-0.0
 0129189,-0.00022844,-0.00093888,0.00313783,0.00126134,0.00153472,-0.00
 441541,-0.00315566,0.00101106,0.00360762,0.00254142,0.01124818,-0.0148
 8220,0.00108229,0.00060600,0.02777997,-0.01682727,-0.00241557,0.006416
 14,0.00480478,-0.01296831,-0.01504926,0.00093527,0.00031175,0.00028313
 ,-0.00046945,-0.00038755,-0.00314844,0.00449119,-0.00022444,0.00010390
 ,-0.00024320,-0.00000496,0.00038234,-0.00015142,-0.00003628,0.00001106
 ,0.00004378,0.00003692,0.00002264,-0.00001394,-0.00000729,0.00000991,0
 .00001346,-0.00000290,0.00000139,-0.00000106,0.00000260,-0.00000185,-0
 .00000111,0.00000165,-0.00000035,0.00000003,0.00000138,-0.00000003,0.0
 0000076,0.00000552,0.00000044,0.00000025,0.00001023,-0.00000264,0.0000
 0505,0.00000566,0.00000977,-0.00000597,-0.00022799,0.00002346,-0.00001
 255,-0.00012651,-0.00011106,0.00008333,0.00094162,-0.00256025,-0.00002
 541,-0.00001471,0.00000847,-0.00017465,0.00008157,0.00001811,0.0000460
 5,0.00007781,-0.00000852,0.00000363,0.00003355,0.00000173,0.00001858,0
 .00000003,-0.00000340,-0.00001000,-0.00003634,-0.00000207,-0.00001153,
 -0.00006561,0.00001103,0.00004439,-0.00001448,0.00000431,-0.00004620,0
 .00005570,-0.00000534,-0.00002262,-0.00004726,-0.00000477,-0.00002279,
 -0.00002888,-0.00000811,0.00002685,0.00006937,-0.00003590,0.00002498,-
 0.00000892,0.00003094,0.00000540,0.00003387,0.00000048,-0.00005689,0.0
 0003615,-0.00000353,0.00045554,0.00013791,0.00003427,-0.00053191,0.000
 19577,0.00022246,0.00035140,-0.00006759,-0.00000056,0.00002838,0.00002
 359,0.00001722,0.00032142,-0.00007021,-0.00009693,0.00025013,0.0000208
 0,-0.00002395,0.00000401,-0.00002588,0.00003192,-0.00161373,0.00125083
 ,0.00025998,0.00090697,-0.00308151,-0.00119229,-0.00126972,0.00446017,
 0.00271607,-0.00088035,-0.00310731,-0.00216365,-0.00925802,0.00986107,
 0.00219389,0.00030601,-0.02694737,0.00869908,0.00197907,-0.00571686,-0
 .00381328,0.00969027,0.01009424,0.00160616,-0.00017917,-0.00021031,0.0
 0037355,0.00054585,0.00719604,-0.00857410,0.00017439,-0.00003127,0.000
 15571,0.00002384,-0.00021355,-0.00001931,0.00004220,0.00000527,-0.0000
 5327,-0.00003303,-0.00001081,-0.00000191,0.00000488,-0.00000535,-0.000
 01164,0.00000214,-0.00000097,0.00000026,-0.00000171,0.,0.00000001,-0.0
 0000055,-0.00000062,-0.00000052,0.00000004,0.00000067,-0.00000130,0.00
 000194,-0.00000140,-0.00000273,0.00000333,-0.00000124,0.00000065,0.000
 00789,0.00000608,-0.00001611,0.00004062,0.00017877,0.00001635,-0.00002
 651,-0.00005126,-0.00005035,-0.00114542,0.00594046,-0.00030909\\-0.000
 00041,-0.00000009,0.00000011,-0.00000027,-0.00000005,-0.00000014,0.000
 00014,-0.00000001,-0.00000067,-0.00000002,0.00000004,-0.00000107,-0.00
 000008,-0.00000018,-0.00000024,-0.00000021,-0.00000021,-0.00000080,0.0
 0000005,-0.00000018,-0.00000092,0.00000029,-0.00000022,-0.00000141,0.0
 0000007,-0.00000011,-0.00000185,0.00000009,-0.00000035,-0.00000165,0.0
 0000008,-0.00000017,-0.00000038,-0.00000024,0.00000005,-0.00000065,0.0
 0000021,-0.00000005,-0.00000107,0.00000012,-0.00000003,-0.00000158,-0.
 00000031,-0.00000011,0.00000066,-0.00000012,0.00000012,0.00000093,-0.0
 0000058,0.00000015,0.00000082,0.00000031,0.00000013,0.00000011,0.00000
 010,-0.00000011,-0.00000124,0.00000004,-0.00000020,-0.00000025,-0.0000
 0025,-0.00000010,-0.00000047,-0.00000006,-0.00000026,-0.00000091,-0.00
 000129,0.00000100,0.00000179,0.00000019,-0.00000193,0.00000093,-0.0000
 0041,0.00000306,0.00000346,-0.00000075,-0.00000214,-0.00000106,-0.0000
 0554,0.00000798,0.00000149,0.00000068,-0.00001813,0.00001190,0.0000012
 9,-0.00000271,-0.00000020,0.00000606,0.00000504,0.00000275,0.00000062,
 0.00000044,0.00000203,0.00000119,0.00000205,-0.00000294,0.00000052,0.0
 0000027,0.00000049,0.00000003,0.00000021,0.00000234,-0.00000044,0.0000
 0014,0.00000219,-0.00000067,0.,0.00000174,-0.00000049,-0.00000005,0.00
 000090,-0.00000036,-0.00000013,-0.00000004,-0.00000018,-0.00000020,-0.
 00000103,0.00000009,-0.00000019,-0.00000194,0.00000027,-0.00000018,-0.
 00000225,0.00000028,-0.00000015,-0.00000199,0.00000019,-0.00000015,-0.
 00000170,-0.00000009,-0.00000018,-0.00000102,-0.00000023,0.,0.00000023
 ,-0.00000033,-0.00000021,0.00000004,0.00000044,0.00000810,-0.00000544\
 \\@


 I MET A TRAVELLER FROM AN ANTIQUE LAND
 WHO SAID... TWO VAST AND TRUNKLESS LEGS OF STONE
 STAND IN THE DESERT..... NEAR THEM,  ON THE SAND,
 HALF SUNK,  A SHATTERED VISAGE LIES,  WHOSE FROWN,
 AND WRINKLED LIP,  AND SNEER OF COLD COMMAND
 TELL THAT ITS SCULPTOR WELL THOSE PASSIONS READ
 WHICH YET SURVIVE,  STAMPED ON THESE LIFELESS THINGS
 THE HAND THAT MOCKED THEM,  AND THE HEART THAT FED-
 AND ON THE PEDESTAL THESE WORDS APPEAR 
 MY NAME IS OZYMANDIAS, KING OF KINGS--   
 LOOK ON MY WORKS YE MIGHTY AND DESPAIR. 
 NOTHING BESIDE REMAINS,  ROUND THE DECAY 
 OF THAT COLOSSAL WRECK,  BOUNDLESS AND BARE
 THE LONE AND LEVEL SANDS STRETCH FAR AWAY.
                                    SHELLEY
 Job cpu time:       2 days  5 hours 48 minutes 56.3 seconds.
 Elapsed time:       0 days  2 hours 41 minutes 52.4 seconds.
 File lengths (MBytes):  RWF=   4598 Int=      0 D2E=      0 Chk=     65 Scr=      1
 Normal termination of Gaussian 16 at Sat Jun 29 00:00:37 2019.
