 Entering Gaussian System, Link 0=/share/apps/gaussian16/g16/g16
 Initial command:
 /share/apps/gaussian16/g16/l1.exe "/home/amen01//scratch/962/Gau-34254.inp" -scrdir="/home/amen01//scratch/962/"
 Entering Link 1 = /share/apps/gaussian16/g16/l1.exe PID=     34255.
  
 Copyright (c) 1988-2017, Gaussian, Inc.  All Rights Reserved.
  
 This is part of the Gaussian(R) 16 program.  It is based on
 the Gaussian(R) 09 system (copyright 2009, Gaussian, Inc.),
 the Gaussian(R) 03 system (copyright 2003, Gaussian, Inc.),
 the Gaussian(R) 98 system (copyright 1998, Gaussian, Inc.),
 the Gaussian(R) 94 system (copyright 1995, Gaussian, Inc.),
 the Gaussian 92(TM) system (copyright 1992, Gaussian, Inc.),
 the Gaussian 90(TM) system (copyright 1990, Gaussian, Inc.),
 the Gaussian 88(TM) system (copyright 1988, Gaussian, Inc.),
 the Gaussian 86(TM) system (copyright 1986, Carnegie Mellon
 University), and the Gaussian 82(TM) system (copyright 1983,
 Carnegie Mellon University). Gaussian is a federally registered
 trademark of Gaussian, Inc.
  
 This software contains proprietary and confidential information,
 including trade secrets, belonging to Gaussian, Inc.
  
 This software is provided under written license and may be
 used, copied, transmitted, or stored only in accord with that
 written license.
  
 The following legend is applicable only to US Government
 contracts under FAR:
  
                    RESTRICTED RIGHTS LEGEND
  
 Use, reproduction and disclosure by the US Government is
 subject to restrictions as set forth in subparagraphs (a)
 and (c) of the Commercial Computer Software - Restricted
 Rights clause in FAR 52.227-19.
  
 Gaussian, Inc.
 340 Quinnipiac St., Bldg. 40, Wallingford CT 06492
  
  
 ---------------------------------------------------------------
 Warning -- This program may not be used in any manner that
 competes with the business of Gaussian, Inc. or will provide
 assistance to any competitor of Gaussian, Inc.  The licensee
 of this program is prohibited from giving any competitor of
 Gaussian, Inc. access to this program.  By using this program,
 the user acknowledges that Gaussian, Inc. is engaged in the
 business of creating and licensing software in the field of
 computational chemistry and represents and warrants to the
 licensee that it is not a competitor of Gaussian, Inc. and that
 it will not use this program in any manner prohibited above.
 ---------------------------------------------------------------
  

 Cite this work as:
 Gaussian 16, Revision B.01,
 M. J. Frisch, G. W. Trucks, H. B. Schlegel, G. E. Scuseria, 
 M. A. Robb, J. R. Cheeseman, G. Scalmani, V. Barone, 
 G. A. Petersson, H. Nakatsuji, X. Li, M. Caricato, A. V. Marenich, 
 J. Bloino, B. G. Janesko, R. Gomperts, B. Mennucci, H. P. Hratchian, 
 J. V. Ortiz, A. F. Izmaylov, J. L. Sonnenberg, D. Williams-Young, 
 F. Ding, F. Lipparini, F. Egidi, J. Goings, B. Peng, A. Petrone, 
 T. Henderson, D. Ranasinghe, V. G. Zakrzewski, J. Gao, N. Rega, 
 G. Zheng, W. Liang, M. Hada, M. Ehara, K. Toyota, R. Fukuda, 
 J. Hasegawa, M. Ishida, T. Nakajima, Y. Honda, O. Kitao, H. Nakai, 
 T. Vreven, K. Throssell, J. A. Montgomery, Jr., J. E. Peralta, 
 F. Ogliaro, M. J. Bearpark, J. J. Heyd, E. N. Brothers, K. N. Kudin, 
 V. N. Staroverov, T. A. Keith, R. Kobayashi, J. Normand, 
 K. Raghavachari, A. P. Rendell, J. C. Burant, S. S. Iyengar, 
 J. Tomasi, M. Cossi, J. M. Millam, M. Klene, C. Adamo, R. Cammi, 
 J. W. Ochterski, R. L. Martin, K. Morokuma, O. Farkas, 
 J. B. Foresman, and D. J. Fox, Gaussian, Inc., Wallingford CT, 2016.
 
 ******************************************
 Gaussian 16:  ES64L-G16RevB.01 20-Dec-2017
                23-Aug-2019 
 ******************************************
 %nprocshared=20
 Will use up to   20 processors via shared memory.
 %mem=180GB
 %chk=7-memb-dirTSguess-1cis.chk
 ---------------------------------------------------------------
 # opt=(ts,calcfc,noeigen) freq b3lyp/6-311+g(d,p) int=grid=fine
 ---------------------------------------------------------------
 1/5=1,10=4,11=1,18=20,26=3,38=1/1,3;
 2/9=110,12=2,17=6,18=5,40=1/2;
 3/5=4,6=6,7=111,11=2,25=1,30=1,71=2,74=-5,75=-4,140=1/1,2,3;
 4//1;
 5/5=2,38=5/2;
 8/6=4,10=90,11=11/1;
 11/6=1,8=1,9=11,15=111,16=1/1,2,10;
 10/6=1,13=1/2;
 6/7=2,8=2,9=2,10=2,28=1/1;
 7/10=1,18=20,25=1/1,2,3,16;
 1/5=1,10=4,11=1,18=20,26=3/3(2);
 2/9=110/2;
 99//99;
 2/9=110/2;
 3/5=4,6=6,7=111,11=2,25=1,30=1,71=1,74=-5,75=-4/1,2,3;
 4/5=5,16=3,69=1/1;
 5/5=2,38=5/2;
 7//1,2,3,16;
 1/5=1,11=1,18=20,26=3/3(-5);
 2/9=110/2;
 6/7=2,8=2,9=2,10=2,19=2,28=1/1;
 99/9=1/99;
 ----------------------
 7-memb-dirTSguess-1cis
 ----------------------
 Symbolic Z-matrix:
 Charge =  0 Multiplicity = 1
 C                    -1.75006  -2.67577  -0.09547 
 C                    -1.5222   -1.35841  -0.53214 
 C                    -2.57494  -0.41354  -0.54135 
 C                    -3.88359  -0.69814  -0.17706 
 C                    -3.12623  -3.024     0.12513 
 C                    -4.14786  -2.08176   0.08428 
 C                    -2.01333   0.86231  -0.54312 
 C                    -2.73733   1.98161  -0.10874 
 C                    -4.15295   1.73693   0.10589 
 C                    -4.69772   0.47052   0.07091 
 C                    -0.59437   0.75173  -0.60249 
 C                     0.1547    1.87186  -0.30901 
 C                    -0.54661   3.02149   0.25717 
 C                    -1.96629   3.08153   0.29606 
 C                    -0.5899   -3.38791   0.28509 
 C                     0.67171  -2.77561   0.27362 
 C                     0.87114  -1.4176   -0.21943 
 C                    -0.28463  -0.70252  -0.59249 
 C                     0.2509    3.96308   0.95519 
 C                     1.63478   1.93989  -0.48747 
 C                     2.32953   2.79984   0.46236 
 C                     1.6284    3.78213   1.13374 
 C                     1.80998  -3.43066   0.86185 
 C                     3.01464  -2.81347   0.9626 
 C                     3.24863  -1.51631   0.37776 
 C                     2.16322  -0.83935  -0.23416 
 C                     2.39179   0.41282  -1.00324 
 C                     3.80414   0.74929  -1.22736 
 C                     4.54488  -0.98689   0.28697 
 C                     4.80969   0.11852  -0.54847 
 H                     5.83731   0.43528  -0.69355 
 H                     4.03611   1.55262  -1.91917 
 H                     1.82748   0.33915  -1.93544 
 H                     5.36339  -1.49825   0.7809 
 H                     3.84907  -3.31821   1.43809 
 H                     1.67638  -4.43172   1.25872 
 H                    -0.67385  -4.39132   0.69171 
 H                    -3.36976  -4.0419    0.41224 
 H                    -5.15506  -2.39719   0.33797 
 H                    -5.75021   0.34778   0.30676 
 H                    -4.79183   2.57261   0.37326 
 H                    -2.431     3.92985   0.78794 
 H                    -0.24366   4.79285   1.44879 
 H                     2.16556   4.47004   1.77824 
 H                     3.41028   2.75178   0.52159 
 H                     1.80909   2.35692  -1.48777 
 

 GradGradGradGradGradGradGradGradGradGradGradGradGradGradGradGradGradGrad
 Berny optimization.
 Initialization pass.
                           ----------------------------
                           !    Initial Parameters    !
                           ! (Angstroms and Degrees)  !
 --------------------------                            --------------------------
 ! Name  Definition              Value          Derivative Info.                !
 --------------------------------------------------------------------------------
 ! R1    R(1,2)                  1.4064         calculate D2E/DX2 analytically  !
 ! R2    R(1,5)                  1.4366         calculate D2E/DX2 analytically  !
 ! R3    R(1,15)                 1.4135         calculate D2E/DX2 analytically  !
 ! R4    R(2,3)                  1.4146         calculate D2E/DX2 analytically  !
 ! R5    R(2,18)                 1.4019         calculate D2E/DX2 analytically  !
 ! R6    R(3,4)                  1.3879         calculate D2E/DX2 analytically  !
 ! R7    R(3,7)                  1.394          calculate D2E/DX2 analytically  !
 ! R8    R(4,6)                  1.4327         calculate D2E/DX2 analytically  !
 ! R9    R(4,10)                 1.4457         calculate D2E/DX2 analytically  !
 ! R10   R(5,6)                  1.3904         calculate D2E/DX2 analytically  !
 ! R11   R(5,38)                 1.0853         calculate D2E/DX2 analytically  !
 ! R12   R(6,39)                 1.0855         calculate D2E/DX2 analytically  !
 ! R13   R(7,8)                  1.402          calculate D2E/DX2 analytically  !
 ! R14   R(7,11)                 1.4245         calculate D2E/DX2 analytically  !
 ! R15   R(8,9)                  1.4525         calculate D2E/DX2 analytically  !
 ! R16   R(8,14)                 1.4029         calculate D2E/DX2 analytically  !
 ! R17   R(9,10)                 1.3791         calculate D2E/DX2 analytically  !
 ! R18   R(9,41)                 1.0854         calculate D2E/DX2 analytically  !
 ! R19   R(10,40)                1.0856         calculate D2E/DX2 analytically  !
 ! R20   R(11,12)                1.3791         calculate D2E/DX2 analytically  !
 ! R21   R(11,18)                1.4869         calculate D2E/DX2 analytically  !
 ! R22   R(12,13)                1.4608         calculate D2E/DX2 analytically  !
 ! R23   R(12,20)                1.4924         calculate D2E/DX2 analytically  !
 ! R24   R(13,14)                1.4215         calculate D2E/DX2 analytically  !
 ! R25   R(13,19)                1.4177         calculate D2E/DX2 analytically  !
 ! R26   R(14,42)                1.0851         calculate D2E/DX2 analytically  !
 ! R27   R(15,16)                1.4024         calculate D2E/DX2 analytically  !
 ! R28   R(15,37)                1.0859         calculate D2E/DX2 analytically  !
 ! R29   R(16,17)                1.4584         calculate D2E/DX2 analytically  !
 ! R30   R(16,23)                1.439          calculate D2E/DX2 analytically  !
 ! R31   R(17,18)                1.4094         calculate D2E/DX2 analytically  !
 ! R32   R(17,26)                1.4157         calculate D2E/DX2 analytically  !
 ! R33   R(19,22)                1.4008         calculate D2E/DX2 analytically  !
 ! R34   R(19,43)                1.0848         calculate D2E/DX2 analytically  !
 ! R35   R(20,21)                1.4575         calculate D2E/DX2 analytically  !
 ! R36   R(20,27)                1.7807         calculate D2E/DX2 analytically  !
 ! R37   R(20,46)                1.0977         calculate D2E/DX2 analytically  !
 ! R38   R(21,22)                1.381          calculate D2E/DX2 analytically  !
 ! R39   R(21,45)                1.0834         calculate D2E/DX2 analytically  !
 ! R40   R(22,44)                1.085          calculate D2E/DX2 analytically  !
 ! R41   R(23,24)                1.3573         calculate D2E/DX2 analytically  !
 ! R42   R(23,36)                1.0851         calculate D2E/DX2 analytically  !
 ! R43   R(24,25)                1.442          calculate D2E/DX2 analytically  !
 ! R44   R(24,35)                1.085          calculate D2E/DX2 analytically  !
 ! R45   R(25,26)                1.418          calculate D2E/DX2 analytically  !
 ! R46   R(25,29)                1.4031         calculate D2E/DX2 analytically  !
 ! R47   R(26,27)                1.4872         calculate D2E/DX2 analytically  !
 ! R48   R(27,28)                1.4691         calculate D2E/DX2 analytically  !
 ! R49   R(27,33)                1.0922         calculate D2E/DX2 analytically  !
 ! R50   R(28,30)                1.3674         calculate D2E/DX2 analytically  !
 ! R51   R(28,32)                1.0852         calculate D2E/DX2 analytically  !
 ! R52   R(29,30)                1.4107         calculate D2E/DX2 analytically  !
 ! R53   R(29,34)                1.0842         calculate D2E/DX2 analytically  !
 ! R54   R(30,31)                1.0851         calculate D2E/DX2 analytically  !
 ! A1    A(2,1,5)              115.4632         calculate D2E/DX2 analytically  !
 ! A2    A(2,1,15)             114.9947         calculate D2E/DX2 analytically  !
 ! A3    A(5,1,15)             128.5198         calculate D2E/DX2 analytically  !
 ! A4    A(1,2,3)              120.4702         calculate D2E/DX2 analytically  !
 ! A5    A(1,2,18)             126.4844         calculate D2E/DX2 analytically  !
 ! A6    A(3,2,18)             110.1309         calculate D2E/DX2 analytically  !
 ! A7    A(2,3,4)              124.265          calculate D2E/DX2 analytically  !
 ! A8    A(2,3,7)              108.1506         calculate D2E/DX2 analytically  !
 ! A9    A(4,3,7)              124.6033         calculate D2E/DX2 analytically  !
 ! A10   A(3,4,6)              114.8248         calculate D2E/DX2 analytically  !
 ! A11   A(3,4,10)             114.2199         calculate D2E/DX2 analytically  !
 ! A12   A(6,4,10)             130.205          calculate D2E/DX2 analytically  !
 ! A13   A(1,5,6)              122.3498         calculate D2E/DX2 analytically  !
 ! A14   A(1,5,38)             118.8774         calculate D2E/DX2 analytically  !
 ! A15   A(6,5,38)             118.5866         calculate D2E/DX2 analytically  !
 ! A16   A(4,6,5)              121.621          calculate D2E/DX2 analytically  !
 ! A17   A(4,6,39)             119.6318         calculate D2E/DX2 analytically  !
 ! A18   A(5,6,39)             118.5538         calculate D2E/DX2 analytically  !
 ! A19   A(3,7,8)              121.4826         calculate D2E/DX2 analytically  !
 ! A20   A(3,7,11)             109.2881         calculate D2E/DX2 analytically  !
 ! A21   A(8,7,11)             126.1055         calculate D2E/DX2 analytically  !
 ! A22   A(7,8,9)              114.4923         calculate D2E/DX2 analytically  !
 ! A23   A(7,8,14)             115.5629         calculate D2E/DX2 analytically  !
 ! A24   A(9,8,14)             128.6859         calculate D2E/DX2 analytically  !
 ! A25   A(8,9,10)             122.4066         calculate D2E/DX2 analytically  !
 ! A26   A(8,9,41)             118.7098         calculate D2E/DX2 analytically  !
 ! A27   A(10,9,41)            118.7364         calculate D2E/DX2 analytically  !
 ! A28   A(4,10,9)             121.6164         calculate D2E/DX2 analytically  !
 ! A29   A(4,10,40)            119.4623         calculate D2E/DX2 analytically  !
 ! A30   A(9,10,40)            118.7718         calculate D2E/DX2 analytically  !
 ! A31   A(7,11,12)            117.9772         calculate D2E/DX2 analytically  !
 ! A32   A(7,11,18)            106.4481         calculate D2E/DX2 analytically  !
 ! A33   A(12,11,18)           132.8284         calculate D2E/DX2 analytically  !
 ! A34   A(11,12,13)           117.446          calculate D2E/DX2 analytically  !
 ! A35   A(11,12,20)           123.3849         calculate D2E/DX2 analytically  !
 ! A36   A(13,12,20)           119.1176         calculate D2E/DX2 analytically  !
 ! A37   A(12,13,14)           121.5546         calculate D2E/DX2 analytically  !
 ! A38   A(12,13,19)           116.3238         calculate D2E/DX2 analytically  !
 ! A39   A(14,13,19)           121.3527         calculate D2E/DX2 analytically  !
 ! A40   A(8,14,13)            120.5234         calculate D2E/DX2 analytically  !
 ! A41   A(8,14,42)            120.5534         calculate D2E/DX2 analytically  !
 ! A42   A(13,14,42)           118.2371         calculate D2E/DX2 analytically  !
 ! A43   A(1,15,16)            121.078          calculate D2E/DX2 analytically  !
 ! A44   A(1,15,37)            120.1924         calculate D2E/DX2 analytically  !
 ! A45   A(16,15,37)           118.4274         calculate D2E/DX2 analytically  !
 ! A46   A(15,16,17)           122.1626         calculate D2E/DX2 analytically  !
 ! A47   A(15,16,23)           120.6308         calculate D2E/DX2 analytically  !
 ! A48   A(17,16,23)           116.9938         calculate D2E/DX2 analytically  !
 ! A49   A(16,17,18)           116.7303         calculate D2E/DX2 analytically  !
 ! A50   A(16,17,26)           120.5747         calculate D2E/DX2 analytically  !
 ! A51   A(18,17,26)           122.58           calculate D2E/DX2 analytically  !
 ! A52   A(2,18,11)            105.901          calculate D2E/DX2 analytically  !
 ! A53   A(2,18,17)            118.3686         calculate D2E/DX2 analytically  !
 ! A54   A(11,18,17)           131.9782         calculate D2E/DX2 analytically  !
 ! A55   A(13,19,22)           122.0165         calculate D2E/DX2 analytically  !
 ! A56   A(13,19,43)           118.3991         calculate D2E/DX2 analytically  !
 ! A57   A(22,19,43)           119.2844         calculate D2E/DX2 analytically  !
 ! A58   A(12,20,21)           114.9426         calculate D2E/DX2 analytically  !
 ! A59   A(12,20,27)           114.6556         calculate D2E/DX2 analytically  !
 ! A60   A(12,20,46)           106.4863         calculate D2E/DX2 analytically  !
 ! A61   A(21,20,27)           119.4772         calculate D2E/DX2 analytically  !
 ! A62   A(21,20,46)           107.0982         calculate D2E/DX2 analytically  !
 ! A63   A(27,20,46)            89.6762         calculate D2E/DX2 analytically  !
 ! A64   A(20,21,22)           119.635          calculate D2E/DX2 analytically  !
 ! A65   A(20,21,45)           119.0086         calculate D2E/DX2 analytically  !
 ! A66   A(22,21,45)           120.757          calculate D2E/DX2 analytically  !
 ! A67   A(19,22,21)           121.9494         calculate D2E/DX2 analytically  !
 ! A68   A(19,22,44)           118.7306         calculate D2E/DX2 analytically  !
 ! A69   A(21,22,44)           119.2361         calculate D2E/DX2 analytically  !
 ! A70   A(16,23,24)           121.6945         calculate D2E/DX2 analytically  !
 ! A71   A(16,23,36)           118.1685         calculate D2E/DX2 analytically  !
 ! A72   A(24,23,36)           120.1076         calculate D2E/DX2 analytically  !
 ! A73   A(23,24,25)           121.5307         calculate D2E/DX2 analytically  !
 ! A74   A(23,24,35)           120.237          calculate D2E/DX2 analytically  !
 ! A75   A(25,24,35)           118.1276         calculate D2E/DX2 analytically  !
 ! A76   A(24,25,26)           118.7017         calculate D2E/DX2 analytically  !
 ! A77   A(24,25,29)           121.0346         calculate D2E/DX2 analytically  !
 ! A78   A(26,25,29)           119.9387         calculate D2E/DX2 analytically  !
 ! A79   A(17,26,25)           119.9424         calculate D2E/DX2 analytically  !
 ! A80   A(17,26,27)           119.3132         calculate D2E/DX2 analytically  !
 ! A81   A(25,26,27)           120.4958         calculate D2E/DX2 analytically  !
 ! A82   A(20,27,26)           120.4588         calculate D2E/DX2 analytically  !
 ! A83   A(20,27,28)           104.8609         calculate D2E/DX2 analytically  !
 ! A84   A(20,27,33)            94.8996         calculate D2E/DX2 analytically  !
 ! A85   A(26,27,28)           114.8033         calculate D2E/DX2 analytically  !
 ! A86   A(26,27,33)           107.7695         calculate D2E/DX2 analytically  !
 ! A87   A(28,27,33)           112.4555         calculate D2E/DX2 analytically  !
 ! A88   A(27,28,30)           121.7062         calculate D2E/DX2 analytically  !
 ! A89   A(27,28,32)           118.1829         calculate D2E/DX2 analytically  !
 ! A90   A(30,28,32)           120.0503         calculate D2E/DX2 analytically  !
 ! A91   A(25,29,30)           120.4908         calculate D2E/DX2 analytically  !
 ! A92   A(25,29,34)           119.3416         calculate D2E/DX2 analytically  !
 ! A93   A(30,29,34)           119.8468         calculate D2E/DX2 analytically  !
 ! A94   A(28,30,29)           121.1609         calculate D2E/DX2 analytically  !
 ! A95   A(28,30,31)           119.694          calculate D2E/DX2 analytically  !
 ! A96   A(29,30,31)           119.0596         calculate D2E/DX2 analytically  !
 ! D1    D(5,1,2,3)              9.2755         calculate D2E/DX2 analytically  !
 ! D2    D(5,1,2,18)           167.9852         calculate D2E/DX2 analytically  !
 ! D3    D(15,1,2,3)          -160.164          calculate D2E/DX2 analytically  !
 ! D4    D(15,1,2,18)           -1.4543         calculate D2E/DX2 analytically  !
 ! D5    D(2,1,5,6)             -8.224          calculate D2E/DX2 analytically  !
 ! D6    D(2,1,5,38)           176.808          calculate D2E/DX2 analytically  !
 ! D7    D(15,1,5,6)           159.5182         calculate D2E/DX2 analytically  !
 ! D8    D(15,1,5,38)          -15.4498         calculate D2E/DX2 analytically  !
 ! D9    D(2,1,15,16)            2.7477         calculate D2E/DX2 analytically  !
 ! D10   D(2,1,15,37)          176.3356         calculate D2E/DX2 analytically  !
 ! D11   D(5,1,15,16)         -165.0424         calculate D2E/DX2 analytically  !
 ! D12   D(5,1,15,37)            8.5455         calculate D2E/DX2 analytically  !
 ! D13   D(1,2,3,4)             -2.0939         calculate D2E/DX2 analytically  !
 ! D14   D(1,2,3,7)            159.0746         calculate D2E/DX2 analytically  !
 ! D15   D(18,2,3,4)          -163.9787         calculate D2E/DX2 analytically  !
 ! D16   D(18,2,3,7)            -2.8102         calculate D2E/DX2 analytically  !
 ! D17   D(1,2,18,11)         -158.9254         calculate D2E/DX2 analytically  !
 ! D18   D(1,2,18,17)            1.8448         calculate D2E/DX2 analytically  !
 ! D19   D(3,2,18,11)            1.6048         calculate D2E/DX2 analytically  !
 ! D20   D(3,2,18,17)          162.375          calculate D2E/DX2 analytically  !
 ! D21   D(2,3,4,6)             -6.4252         calculate D2E/DX2 analytically  !
 ! D22   D(2,3,4,10)           164.6839         calculate D2E/DX2 analytically  !
 ! D23   D(7,3,4,6)           -164.5464         calculate D2E/DX2 analytically  !
 ! D24   D(7,3,4,10)             6.5627         calculate D2E/DX2 analytically  !
 ! D25   D(2,3,7,8)           -158.2803         calculate D2E/DX2 analytically  !
 ! D26   D(2,3,7,11)             2.8737         calculate D2E/DX2 analytically  !
 ! D27   D(4,3,7,8)              2.8089         calculate D2E/DX2 analytically  !
 ! D28   D(4,3,7,11)           163.9628         calculate D2E/DX2 analytically  !
 ! D29   D(3,4,6,5)              7.4838         calculate D2E/DX2 analytically  !
 ! D30   D(3,4,6,39)          -177.6438         calculate D2E/DX2 analytically  !
 ! D31   D(10,4,6,5)          -161.8812         calculate D2E/DX2 analytically  !
 ! D32   D(10,4,6,39)           12.9912         calculate D2E/DX2 analytically  !
 ! D33   D(3,4,10,9)            -7.9334         calculate D2E/DX2 analytically  !
 ! D34   D(3,4,10,40)          176.567          calculate D2E/DX2 analytically  !
 ! D35   D(6,4,10,9)           161.4833         calculate D2E/DX2 analytically  !
 ! D36   D(6,4,10,40)          -14.0163         calculate D2E/DX2 analytically  !
 ! D37   D(1,5,6,4)             -0.2484         calculate D2E/DX2 analytically  !
 ! D38   D(1,5,6,39)          -175.1743         calculate D2E/DX2 analytically  !
 ! D39   D(38,5,6,4)           174.7336         calculate D2E/DX2 analytically  !
 ! D40   D(38,5,6,39)           -0.1923         calculate D2E/DX2 analytically  !
 ! D41   D(3,7,8,9)            -10.3232         calculate D2E/DX2 analytically  !
 ! D42   D(3,7,8,14)           157.9968         calculate D2E/DX2 analytically  !
 ! D43   D(11,7,8,9)          -168.1519         calculate D2E/DX2 analytically  !
 ! D44   D(11,7,8,14)            0.1681         calculate D2E/DX2 analytically  !
 ! D45   D(3,7,11,12)         -165.4911         calculate D2E/DX2 analytically  !
 ! D46   D(3,7,11,18)           -1.8668         calculate D2E/DX2 analytically  !
 ! D47   D(8,7,11,12)           -5.4268         calculate D2E/DX2 analytically  !
 ! D48   D(8,7,11,18)          158.1975         calculate D2E/DX2 analytically  !
 ! D49   D(7,8,9,10)             8.8388         calculate D2E/DX2 analytically  !
 ! D50   D(7,8,9,41)          -175.6306         calculate D2E/DX2 analytically  !
 ! D51   D(14,8,9,10)         -157.6306         calculate D2E/DX2 analytically  !
 ! D52   D(14,8,9,41)           17.8999         calculate D2E/DX2 analytically  !
 ! D53   D(7,8,14,13)           -0.2175         calculate D2E/DX2 analytically  !
 ! D54   D(7,8,14,42)         -170.5587         calculate D2E/DX2 analytically  !
 ! D55   D(9,8,14,13)          166.1311         calculate D2E/DX2 analytically  !
 ! D56   D(9,8,14,42)           -4.2102         calculate D2E/DX2 analytically  !
 ! D57   D(8,9,10,4)             0.3104         calculate D2E/DX2 analytically  !
 ! D58   D(8,9,10,40)          175.8402         calculate D2E/DX2 analytically  !
 ! D59   D(41,9,10,4)         -175.219          calculate D2E/DX2 analytically  !
 ! D60   D(41,9,10,40)           0.3108         calculate D2E/DX2 analytically  !
 ! D61   D(7,11,12,13)          10.0639         calculate D2E/DX2 analytically  !
 ! D62   D(7,11,12,20)        -172.5745         calculate D2E/DX2 analytically  !
 ! D63   D(18,11,12,13)       -148.3011         calculate D2E/DX2 analytically  !
 ! D64   D(18,11,12,20)         29.0605         calculate D2E/DX2 analytically  !
 ! D65   D(7,11,18,2)            0.1489         calculate D2E/DX2 analytically  !
 ! D66   D(7,11,18,17)        -156.9067         calculate D2E/DX2 analytically  !
 ! D67   D(12,11,18,2)         160.3026         calculate D2E/DX2 analytically  !
 ! D68   D(12,11,18,17)          3.2469         calculate D2E/DX2 analytically  !
 ! D69   D(11,12,13,14)        -10.5127         calculate D2E/DX2 analytically  !
 ! D70   D(11,12,13,19)        159.5703         calculate D2E/DX2 analytically  !
 ! D71   D(20,12,13,14)        172.009          calculate D2E/DX2 analytically  !
 ! D72   D(20,12,13,19)        -17.908          calculate D2E/DX2 analytically  !
 ! D73   D(11,12,20,21)       -148.3848         calculate D2E/DX2 analytically  !
 ! D74   D(11,12,20,27)         -4.2289         calculate D2E/DX2 analytically  !
 ! D75   D(11,12,20,46)         93.2037         calculate D2E/DX2 analytically  !
 ! D76   D(13,12,20,21)         28.935          calculate D2E/DX2 analytically  !
 ! D77   D(13,12,20,27)        173.0909         calculate D2E/DX2 analytically  !
 ! D78   D(13,12,20,46)        -89.4765         calculate D2E/DX2 analytically  !
 ! D79   D(12,13,14,8)           5.4261         calculate D2E/DX2 analytically  !
 ! D80   D(12,13,14,42)        175.9869         calculate D2E/DX2 analytically  !
 ! D81   D(19,13,14,8)        -164.16           calculate D2E/DX2 analytically  !
 ! D82   D(19,13,14,42)          6.4008         calculate D2E/DX2 analytically  !
 ! D83   D(12,13,19,22)         -2.102          calculate D2E/DX2 analytically  !
 ! D84   D(12,13,19,43)       -175.7632         calculate D2E/DX2 analytically  !
 ! D85   D(14,13,19,22)        168.0025         calculate D2E/DX2 analytically  !
 ! D86   D(14,13,19,43)         -5.6587         calculate D2E/DX2 analytically  !
 ! D87   D(1,15,16,17)          -4.5972         calculate D2E/DX2 analytically  !
 ! D88   D(1,15,16,23)         169.9404         calculate D2E/DX2 analytically  !
 ! D89   D(37,15,16,17)       -178.2955         calculate D2E/DX2 analytically  !
 ! D90   D(37,15,16,23)         -3.7579         calculate D2E/DX2 analytically  !
 ! D91   D(15,16,17,18)          4.7506         calculate D2E/DX2 analytically  !
 ! D92   D(15,16,17,26)       -179.0491         calculate D2E/DX2 analytically  !
 ! D93   D(23,16,17,18)       -169.975          calculate D2E/DX2 analytically  !
 ! D94   D(23,16,17,26)          6.2253         calculate D2E/DX2 analytically  !
 ! D95   D(15,16,23,24)       -174.428          calculate D2E/DX2 analytically  !
 ! D96   D(15,16,23,36)          3.5991         calculate D2E/DX2 analytically  !
 ! D97   D(17,16,23,24)          0.3832         calculate D2E/DX2 analytically  !
 ! D98   D(17,16,23,36)        178.4103         calculate D2E/DX2 analytically  !
 ! D99   D(16,17,18,2)          -3.2552         calculate D2E/DX2 analytically  !
 ! D100  D(16,17,18,11)        151.5251         calculate D2E/DX2 analytically  !
 ! D101  D(26,17,18,2)        -179.3728         calculate D2E/DX2 analytically  !
 ! D102  D(26,17,18,11)        -24.5924         calculate D2E/DX2 analytically  !
 ! D103  D(16,17,26,25)         -7.5268         calculate D2E/DX2 analytically  !
 ! D104  D(16,17,26,27)        166.7748         calculate D2E/DX2 analytically  !
 ! D105  D(18,17,26,25)        168.4455         calculate D2E/DX2 analytically  !
 ! D106  D(18,17,26,27)        -17.2529         calculate D2E/DX2 analytically  !
 ! D107  D(13,19,22,21)         10.7942         calculate D2E/DX2 analytically  !
 ! D108  D(13,19,22,44)       -172.5643         calculate D2E/DX2 analytically  !
 ! D109  D(43,19,22,21)       -175.599          calculate D2E/DX2 analytically  !
 ! D110  D(43,19,22,44)          1.0425         calculate D2E/DX2 analytically  !
 ! D111  D(12,20,21,22)        -20.5959         calculate D2E/DX2 analytically  !
 ! D112  D(12,20,21,45)        168.211          calculate D2E/DX2 analytically  !
 ! D113  D(27,20,21,22)       -162.91           calculate D2E/DX2 analytically  !
 ! D114  D(27,20,21,45)         25.8969         calculate D2E/DX2 analytically  !
 ! D115  D(46,20,21,22)         97.4718         calculate D2E/DX2 analytically  !
 ! D116  D(46,20,21,45)        -73.7213         calculate D2E/DX2 analytically  !
 ! D117  D(12,20,27,26)        -53.6697         calculate D2E/DX2 analytically  !
 ! D118  D(12,20,27,28)        175.0644         calculate D2E/DX2 analytically  !
 ! D119  D(12,20,27,33)         60.269          calculate D2E/DX2 analytically  !
 ! D120  D(21,20,27,26)         88.7467         calculate D2E/DX2 analytically  !
 ! D121  D(21,20,27,28)        -42.5192         calculate D2E/DX2 analytically  !
 ! D122  D(21,20,27,33)       -157.3146         calculate D2E/DX2 analytically  !
 ! D123  D(46,20,27,26)       -161.7087         calculate D2E/DX2 analytically  !
 ! D124  D(46,20,27,28)         67.0254         calculate D2E/DX2 analytically  !
 ! D125  D(46,20,27,33)        -47.77           calculate D2E/DX2 analytically  !
 ! D126  D(20,21,22,19)          1.5289         calculate D2E/DX2 analytically  !
 ! D127  D(20,21,22,44)       -175.0961         calculate D2E/DX2 analytically  !
 ! D128  D(45,21,22,19)        172.5649         calculate D2E/DX2 analytically  !
 ! D129  D(45,21,22,44)         -4.0602         calculate D2E/DX2 analytically  !
 ! D130  D(16,23,24,25)         -5.6848         calculate D2E/DX2 analytically  !
 ! D131  D(16,23,24,35)        178.1067         calculate D2E/DX2 analytically  !
 ! D132  D(36,23,24,25)        176.3257         calculate D2E/DX2 analytically  !
 ! D133  D(36,23,24,35)          0.1172         calculate D2E/DX2 analytically  !
 ! D134  D(23,24,25,26)          4.3865         calculate D2E/DX2 analytically  !
 ! D135  D(23,24,25,29)       -169.0622         calculate D2E/DX2 analytically  !
 ! D136  D(35,24,25,26)       -179.3277         calculate D2E/DX2 analytically  !
 ! D137  D(35,24,25,29)          7.2236         calculate D2E/DX2 analytically  !
 ! D138  D(24,25,26,17)          2.2726         calculate D2E/DX2 analytically  !
 ! D139  D(24,25,26,27)       -171.9608         calculate D2E/DX2 analytically  !
 ! D140  D(29,25,26,17)        175.795          calculate D2E/DX2 analytically  !
 ! D141  D(29,25,26,27)          1.5616         calculate D2E/DX2 analytically  !
 ! D142  D(24,25,29,30)        165.2234         calculate D2E/DX2 analytically  !
 ! D143  D(24,25,29,34)         -8.2636         calculate D2E/DX2 analytically  !
 ! D144  D(26,25,29,30)         -8.145          calculate D2E/DX2 analytically  !
 ! D145  D(26,25,29,34)        178.368          calculate D2E/DX2 analytically  !
 ! D146  D(17,26,27,20)         67.3941         calculate D2E/DX2 analytically  !
 ! D147  D(17,26,27,28)       -165.7689         calculate D2E/DX2 analytically  !
 ! D148  D(17,26,27,33)        -39.6144         calculate D2E/DX2 analytically  !
 ! D149  D(25,26,27,20)       -118.3365         calculate D2E/DX2 analytically  !
 ! D150  D(25,26,27,28)          8.5005         calculate D2E/DX2 analytically  !
 ! D151  D(25,26,27,33)        134.6549         calculate D2E/DX2 analytically  !
 ! D152  D(20,27,28,30)        121.4946         calculate D2E/DX2 analytically  !
 ! D153  D(20,27,28,32)        -55.675          calculate D2E/DX2 analytically  !
 ! D154  D(26,27,28,30)        -12.9632         calculate D2E/DX2 analytically  !
 ! D155  D(26,27,28,32)        169.8671         calculate D2E/DX2 analytically  !
 ! D156  D(33,27,28,30)       -136.6592         calculate D2E/DX2 analytically  !
 ! D157  D(33,27,28,32)         46.1712         calculate D2E/DX2 analytically  !
 ! D158  D(27,28,30,29)          7.2136         calculate D2E/DX2 analytically  !
 ! D159  D(27,28,30,31)       -176.1807         calculate D2E/DX2 analytically  !
 ! D160  D(32,28,30,29)       -175.6687         calculate D2E/DX2 analytically  !
 ! D161  D(32,28,30,31)          0.937          calculate D2E/DX2 analytically  !
 ! D162  D(25,29,30,28)          3.8539         calculate D2E/DX2 analytically  !
 ! D163  D(25,29,30,31)       -172.773          calculate D2E/DX2 analytically  !
 ! D164  D(34,29,30,28)        177.308          calculate D2E/DX2 analytically  !
 ! D165  D(34,29,30,31)          0.6811         calculate D2E/DX2 analytically  !
 --------------------------------------------------------------------------------
 Trust Radius=3.00D-01 FncErr=1.00D-07 GrdErr=1.00D-06 EigMax=2.50D+02 EigMin=1.00D-04
 Number of steps in this run=    276 maximum allowed number of steps=    276.
 Search for a saddle point of order  1.
 GradGradGradGradGradGradGradGradGradGradGradGradGradGradGradGradGradGrad

                          Input orientation:                          
 ---------------------------------------------------------------------
 Center     Atomic      Atomic             Coordinates (Angstroms)
 Number     Number       Type             X           Y           Z
 ---------------------------------------------------------------------
      1          6           0       -1.750056   -2.675765   -0.095473
      2          6           0       -1.522200   -1.358412   -0.532140
      3          6           0       -2.574942   -0.413541   -0.541348
      4          6           0       -3.883586   -0.698141   -0.177064
      5          6           0       -3.126226   -3.024003    0.125130
      6          6           0       -4.147856   -2.081760    0.084281
      7          6           0       -2.013328    0.862310   -0.543122
      8          6           0       -2.737332    1.981607   -0.108737
      9          6           0       -4.152948    1.736934    0.105894
     10          6           0       -4.697720    0.470520    0.070910
     11          6           0       -0.594365    0.751727   -0.602488
     12          6           0        0.154701    1.871863   -0.309006
     13          6           0       -0.546611    3.021494    0.257168
     14          6           0       -1.966289    3.081534    0.296058
     15          6           0       -0.589903   -3.387909    0.285086
     16          6           0        0.671707   -2.775606    0.273621
     17          6           0        0.871135   -1.417600   -0.219428
     18          6           0       -0.284627   -0.702515   -0.592488
     19          6           0        0.250898    3.963084    0.955185
     20          6           0        1.634783    1.939887   -0.487468
     21          6           0        2.329530    2.799836    0.462356
     22          6           0        1.628396    3.782132    1.133742
     23          6           0        1.809976   -3.430664    0.861853
     24          6           0        3.014637   -2.813466    0.962598
     25          6           0        3.248625   -1.516310    0.377757
     26          6           0        2.163222   -0.839351   -0.234156
     27          6           0        2.391793    0.412817   -1.003238
     28          6           0        3.804138    0.749289   -1.227361
     29          6           0        4.544879   -0.986888    0.286966
     30          6           0        4.809686    0.118518   -0.548465
     31          1           0        5.837308    0.435281   -0.693553
     32          1           0        4.036105    1.552616   -1.919173
     33          1           0        1.827480    0.339145   -1.935443
     34          1           0        5.363391   -1.498246    0.780900
     35          1           0        3.849070   -3.318214    1.438090
     36          1           0        1.676378   -4.431722    1.258715
     37          1           0       -0.673852   -4.391322    0.691713
     38          1           0       -3.369761   -4.041898    0.412244
     39          1           0       -5.155062   -2.397193    0.337966
     40          1           0       -5.750209    0.347777    0.306763
     41          1           0       -4.791827    2.572608    0.373255
     42          1           0       -2.430997    3.929852    0.787944
     43          1           0       -0.243659    4.792851    1.448788
     44          1           0        2.165558    4.470042    1.778242
     45          1           0        3.410279    2.751780    0.521590
     46          1           0        1.809094    2.356917   -1.487770
 ---------------------------------------------------------------------
                    Distance matrix (angstroms):
                    1          2          3          4          5
     1  C    0.000000
     2  C    1.406419   0.000000
     3  C    2.448857   1.414614   0.000000
     4  C    2.910258   2.477535   1.387894   0.000000
     5  C    1.436586   2.403975   2.750022   2.464660   0.000000
     6  C    2.476812   2.792360   2.376641   1.432669   1.390402
     7  C    3.575986   2.274408   1.393990   2.463102   4.097381
     8  C    4.760883   3.579322   2.439315   2.915410   5.026138
     9  C    5.028554   4.112066   2.744735   2.466214   4.870426
    10  C    4.314570   3.713837   2.379624   1.445709   3.832000
    11  C    3.652449   2.306190   2.298755   3.619679   4.603899
    12  C    4.935040   3.646431   3.567633   4.788537   5.909523
    13  C    5.833643   4.556134   4.068319   5.015939   6.574183
    14  C    5.774647   4.538309   3.645169   4.264483   6.217094
    15  C    1.413481   2.378212   3.670182   4.277474   2.567284
    16  C    2.451762   2.733298   4.096859   5.026895   3.808943
    17  C    2.910152   2.414404   3.603778   4.809032   4.321822
    18  C    2.507633   1.401938   2.309040   3.622858   3.738846
    19  C    7.012989   5.802959   5.420316   6.332690   7.804700
    20  C    5.737163   4.565886   4.823205   6.124373   6.905265
    21  C    6.851015   5.754639   5.948702   7.158737   7.987246
    22  C    7.391166   6.255127   6.170709   7.223088   8.363444
    23  C    3.763001   4.164234   5.504499   6.400209   5.007417
    24  C    4.882702   4.993427   6.266170   7.304718   6.201280
    25  C    5.153164   4.859384   5.997898   7.200393   6.555584
    26  C    4.324973   3.733705   4.767167   6.048726   5.734113
    27  C    5.245788   4.321866   5.056151   6.426288   6.597991
    28  C    6.622782   5.770235   6.520387   7.892989   8.006055
    29  C    6.528765   6.133385   7.190736   8.446166   7.938632
    30  C    7.144469   6.501874   7.403774   8.739442   8.562001
    31  H    8.222189   7.576658   8.456336   9.800367   9.642709
    32  H    7.394914   6.425940   7.033500   8.415602   8.742059
    33  H    5.027319   4.008904   4.678820   6.064992   6.332135
    34  H    7.263313   7.011062   8.120471   9.330833   8.650524
    35  H    5.840785   6.047576   7.322788   8.322708   7.103885
    36  H    4.081380   4.783649   6.120435   6.849401   5.131442
    37  H    2.172789   3.378765   4.577917   4.969583   2.864388
    38  H    2.178885   3.392114   3.834847   3.433950   1.085290
    39  H    3.443768   3.877349   3.371215   2.183732   2.134096
    40  H    5.030390   4.635828   3.373606   2.193699   4.276351
    41  H    6.084201   5.192602   3.829904   3.438830   5.844472
    42  H    6.699125   5.525782   4.544535   4.945662   7.019884
    43  H    7.773944   6.587623   6.041692   6.785533   8.435904
    44  H    8.360945   7.273809   7.190426   8.193014   9.321827
    45  H    7.514524   6.506410   6.853610   8.098799   8.731709
    46  H    6.319330   5.080789   5.271710   6.592263   7.477508
                    6          7          8          9         10
     6  C    0.000000
     7  C    3.690175   0.000000
     8  C    4.305553   1.402033   0.000000
     9  C    3.818759   2.400867   1.452549   0.000000
    10  C    2.610874   2.781456   2.481689   1.379059   0.000000
    11  C    4.596477   1.424503   2.519663   3.759781   4.167741
    12  C    5.856433   2.402989   2.901035   4.329687   5.064986
    13  C    6.248364   2.730165   2.452450   3.831272   4.875845
    14  C    5.609250   2.373055   1.402928   2.574022   3.785340
    15  C    3.795442   4.558117   5.796400   6.244311   5.639814
    16  C    4.872931   4.594662   5.865051   6.608210   6.277673
    17  C    5.071846   3.690921   4.958618   5.941240   5.887397
    18  C    4.157508   2.332278   3.668009   4.626290   4.614271
    19  C    7.526463   4.121461   3.740013   5.007085   6.121174
    20  C    7.066785   3.804337   4.388686   5.821606   6.524678
    21  C    8.119695   4.860598   5.164178   6.578704   7.413581
    22  C    8.297692   4.959777   4.883157   6.217978   7.219150
    23  C    6.157915   5.917874   7.135316   7.926664   7.628560
    24  C    7.253147   6.407726   7.564762   8.533133   8.429717
    25  C    7.423866   5.847564   6.950092   8.089548   8.196710
    26  C    6.440084   4.520473   5.655879   6.829852   6.991520
    27  C    7.083263   4.451836   5.437753   6.768833   7.170657
    28  C    8.542216   5.858657   6.749871   8.128237   8.604929
    29  C    8.763759   6.864303   7.873953   9.116150   9.359292
    30  C    9.245493   6.863438   7.786009   9.131060   9.534060
    31  H   10.326859   7.863680   8.732559  10.106366  10.562787
    32  H    9.176041   6.242249   7.024326   8.437740   9.022808
    33  H    6.756087   4.118746   5.183825   6.471970   6.827953
    34  H    9.554558   7.857560   8.861295  10.073864  10.276482
    35  H    8.204416   7.467911   8.594269   9.558324   9.448349
    36  H    6.389313   6.699800   7.904527   8.565183   8.128467
    37  H    4.215656   5.560545   6.746324   7.071267   6.341484
    38  H    2.134276   5.177247   6.078980   5.839703   4.716132
    39  H    1.085504   4.612068   5.021837   4.260176   2.916206
    40  H    2.918850   3.866695   3.452458   2.126346   1.085553
    41  H    4.707584   3.388941   2.191472   1.085357   2.125804
    42  H    6.291441   3.369866   2.166457   2.870400   4.197517
    43  H    8.022774   4.748535   4.067847   5.140480   6.357653
    44  H    9.254988   5.988952   5.813031   7.084500   8.125007
    45  H    8.982191   5.841166   6.227648   7.642324   8.434863
    46  H    7.593316   4.211546   4.765772   6.202426   6.951734
                   11         12         13         14         15
    11  C    0.000000
    12  C    1.379107   0.000000
    13  C    2.427577   1.460836   0.000000
    14  C    2.849133   2.515553   1.421479   0.000000
    15  C    4.233721   5.345333   6.409610   6.614246   0.000000
    16  C    3.848712   4.712294   5.923760   6.423832   1.402393
    17  C    2.645828   3.367769   4.684304   5.344053   2.504253
    18  C    1.486895   2.626936   3.828680   4.235154   2.841596
    19  C    3.667919   2.445534   1.417688   2.475378   7.429204
    20  C    2.528647   1.492353   2.546141   3.858107   5.825073
    21  C    3.725293   2.487170   2.891958   4.308256   6.844173
    22  C    4.139869   2.811125   2.465280   3.756902   7.553182
    23  C    5.041582   5.676939   6.895614   7.549108   2.468584
    24  C    5.308954   5.634582   6.872181   7.746285   3.712373
    25  C    4.568746   4.639367   5.916927   6.952854   4.271507
    26  C    3.204916   3.374973   4.742438   5.719032   3.787408
    27  C    3.031930   2.759593   4.126504   5.272864   4.999581
    28  C    4.442668   3.927078   5.127939   6.407652   6.221857
    29  C    5.497794   5.272694   6.480068   7.677724   5.668412
    30  C    5.441290   4.980004   6.145424   7.443556   6.491949
    31  H    6.440097   5.873982   6.953186   8.299284   7.542119
    32  H    4.880198   4.214244   5.281605   6.578265   7.118110
    33  H    2.795054   2.791543   4.199863   5.185844   4.966429
    34  H    6.516978   6.298887   7.458584   8.656423   6.265650
    35  H    6.361800   6.605877   7.804389   8.722351   4.586802
    36  H    5.957222   6.671464   7.841888   8.405043   2.678344
    37  H    5.303982   6.396517   7.426632   7.594110   1.085924
    38  H    5.631283   6.922037   7.608267   7.261303   2.858580
    39  H    5.621397   6.843756   7.113826   6.339281   4.671723
    40  H    5.250966   6.129435   5.850526   4.668147   6.370603
    41  H    4.678287   5.042287   4.270461   2.872043   7.293264
    42  H    3.925175   3.482018   2.158182   1.085149   7.562547
    43  H    4.545482   3.432303   2.156257   2.687907   8.270364
    44  H    5.206814   3.892388   3.430425   4.604018   8.459874
    45  H    4.615294   3.473173   3.974876   5.391390   7.331655
    46  H    3.022743   2.088487   3.005964   4.237998   6.473116
                   16         17         18         19         20
    16  C    0.000000
    17  C    1.458441   0.000000
    18  C    2.441808   1.409364   0.000000
    19  C    6.786129   5.542217   4.944683   0.000000
    20  C    4.872643   3.453654   3.267637   2.844242   0.000000
    21  C    5.819755   4.514257   4.495884   2.432434   1.457515
    22  C    6.682738   5.426023   5.172194   1.400759   2.454023
    23  C    1.439018   2.470429   3.734336   7.556914   5.540233
    24  C    2.442426   2.817841   4.214208   7.318466   5.157621
    25  C    2.870048   2.453331   3.753333   6.272444   3.911317
    26  C    2.496305   1.415654   2.477719   5.304234   2.840348
    27  C    3.841238   2.505431   2.928465   4.585112   1.780737
    28  C    4.948733   3.783364   4.385065   5.264741   2.582841
    29  C    4.266281   3.733409   4.917157   6.586882   4.199336
    30  C    5.116117   4.240296   5.160238   6.150138   3.660753
    31  H    6.158624   5.321732   6.227590   6.809678   4.468504
    32  H    5.904323   4.661368   5.051181   5.329173   2.822429
    33  H    3.989668   2.635423   2.711011   4.896353   2.167058
    34  H    4.888853   4.602991   5.866813   7.482920   5.228005
    35  H    3.427251   3.902281   5.296469   8.136175   6.021500
    36  H    2.173130   3.452282   4.602117   8.520381   6.606685
    37  H    2.143798   3.472778   3.925298   8.409559   6.841379
    38  H    4.237473   5.027042   4.656073   8.802482   7.850904
    39  H    5.839398   6.130688   5.240116   8.370095   8.098988
    40  H    7.141262   6.872818   5.637761   7.035921   7.596297
    41  H    7.646144   6.952853   5.654551   5.263187   6.514791
    42  H    7.406380   6.365070   5.288792   2.687310   4.702893
    43  H    7.713654   6.526516   5.862383   1.084778   3.926453
    44  H    7.549496   6.350633   6.195088   2.144843   3.437564
    45  H    6.173594   4.937620   5.179349   3.411297   2.197670
    46  H    5.544271   4.090897   3.813833   3.312971   1.097680
                   21         22         23         24         25
    21  C    0.000000
    22  C    1.381033   0.000000
    23  C    6.264875   7.220202   0.000000
    24  C    5.677039   6.741874   1.357310   0.000000
    25  C    4.413730   5.591971   2.443115   1.442014   0.000000
    26  C    3.708971   4.849257   2.835652   2.460540   1.418031
    27  C    2.801732   4.062234   4.311545   3.829014   2.522467
    28  C    3.038808   4.416650   5.080699   4.255873   2.831596
    29  C    4.390650   5.653888   3.712443   2.476794   1.403141
    30  C    3.789776   5.135416   4.856331   3.755269   2.442839
    31  H    4.385402   5.679380   5.795190   4.611363   3.414336
    32  H    3.184280   4.481974   6.125589   5.330166   3.913351
    33  H    3.472246   4.616675   4.694319   4.443753   3.288352
    34  H    5.270606   6.477428   4.045683   2.698048   2.152925
    35  H    6.378996   7.445733   2.121933   1.084962   2.175247
    36  H    7.304535   8.214945   1.085111   2.120702   3.427488
    37  H    7.796516   8.503005   2.668560   4.020940   4.873406
    38  H    8.904704   9.312227   5.235020   6.524758   7.083983
    39  H    9.112832   9.210462   7.060756   8.204111   8.449822
    40  H    8.445057   8.180617   8.470014   9.340562   9.190151
    41  H    7.125538   6.577275   8.936543   9.502526   9.020429
    42  H    4.903627   4.076772   8.495205   8.669358   7.879533
    43  H    3.400950   2.150674   8.496359   8.289085   7.290313
    44  H    2.132611   1.084962   7.961618   7.378055   6.242660
    45  H    1.083437   2.147432   6.395261   5.596694   4.273571
    46  H    2.066403   2.989350   6.246345   5.847264   4.533688
                   26         27         28         29         30
    26  C    0.000000
    27  C    1.487164   0.000000
    28  C    2.490550   1.469069   0.000000
    29  C    2.442463   2.873948   2.419957   0.000000
    30  C    2.831974   2.477829   1.367442   1.410670   0.000000
    31  H    3.915947   3.459477   2.125402   2.157395   1.085079
    32  H    3.473972   2.200418   1.085240   3.402202   2.129297
    33  H    2.096653   1.092192   2.139340   3.752562   3.296352
    34  H    3.421339   3.957993   3.393493   1.084168   2.165116
    35  H    3.432674   4.690877   4.863253   2.691527   4.084154
    36  H    3.920562   5.394238   6.127872   4.586881   5.812762
    37  H    4.639259   5.945653   7.082452   6.244129   7.207350
    38  H    6.425577   7.419136   8.781151   8.484710   9.226883
    39  H    7.504097   8.163945   9.623817   9.802062  10.315559
    40  H    8.020240   8.246971   9.685055  10.381260  10.596950
    41  H    7.770658   7.626521   8.931802   9.992574   9.952948
    42  H    6.700510   6.231948   7.283841   8.549161   8.290944
    43  H    6.351935   5.669456   6.316394   7.595085   7.167615
    44  H    5.677975   4.924316   5.055947   6.137032   5.598280
    45  H    3.875890   2.972064   2.687736   3.914078   3.168190
    46  H    3.451534   2.086584   2.575360   4.670679   3.859569
                   31         32         33         34         35
    31  H    0.000000
    32  H    2.448451   0.000000
    33  H    4.198840   2.520080   0.000000
    34  H    2.477324   4.284839   4.822571   0.000000
    35  H    4.752443   5.918715   5.370645   2.457102   0.000000
    36  H    6.694207   7.174928   5.743400   4.735784   2.447992
    37  H    8.222546   8.020650   5.961202   6.695233   4.708021
    38  H   10.297477   9.569793   7.191418   9.103517   7.327182
    39  H   11.398208  10.255399   7.836570  10.566085   9.117727
    40  H   11.630943  10.108332   7.902464  11.275846  10.337579
    41  H   10.894253   9.177581   7.357559  10.948355  10.511934
    42  H    9.097897   7.402914   6.200374   9.498252   9.612304
    43  H    7.781786   6.337086   5.964741   8.453578   9.085148
    44  H    5.989225   5.067662   5.565075   6.844070   7.975390
    45  H    3.568362   2.790515   3.789864   4.684507   6.154457
    46  H    4.533208   2.406779   2.066919   5.713333   6.702930
                   36         37         38         39         40
    36  H    0.000000
    37  H    2.417996   0.000000
    38  H    5.131471   2.732787   0.000000
    39  H    7.187187   4.917614   2.428553   0.000000
    40  H    8.882793   6.955332   4.994688   2.808920   0.000000
    41  H    9.575090   8.096632   6.765758   4.983182   2.423384
    42  H    9.327812   8.505219   8.035622   6.903225   4.907134
    43  H    9.424193   9.225360   9.428665   8.777957   7.168333
    44  H    8.930320   9.368381  10.244942  10.140256   9.045313
    45  H    7.426471   8.230004   9.598696   9.995534   9.473116
    46  H    7.324371   7.513581   8.448398   8.627534   8.024964
                   41         42         43         44         45
    41  H    0.000000
    42  H    2.754559   0.000000
    43  H    5.174175   2.442525   0.000000
    44  H    7.347071   4.732950   2.452972   0.000000
    45  H    8.205404   5.964839   4.286832   2.465954   0.000000
    46  H    6.861639   5.062743   4.332545   3.906302   2.599469
                   46
    46  H    0.000000
 Stoichiometry    C30H16
 Framework group  C1[X(C30H16)]
 Deg. of freedom   132
 Full point group                 C1      NOp   1
 Largest Abelian subgroup         C1      NOp   1
 Largest concise Abelian subgroup C1      NOp   1
                         Standard orientation:                         
 ---------------------------------------------------------------------
 Center     Atomic      Atomic             Coordinates (Angstroms)
 Number     Number       Type             X           Y           Z
 ---------------------------------------------------------------------
      1          6           0        1.750056   -2.675765    0.095473
      2          6           0        1.522200   -1.358412    0.532140
      3          6           0        2.574942   -0.413541    0.541348
      4          6           0        3.883586   -0.698141    0.177064
      5          6           0        3.126226   -3.024003   -0.125130
      6          6           0        4.147856   -2.081760   -0.084281
      7          6           0        2.013328    0.862310    0.543122
      8          6           0        2.737332    1.981607    0.108737
      9          6           0        4.152948    1.736934   -0.105894
     10          6           0        4.697720    0.470520   -0.070910
     11          6           0        0.594365    0.751727    0.602488
     12          6           0       -0.154701    1.871863    0.309006
     13          6           0        0.546611    3.021494   -0.257168
     14          6           0        1.966289    3.081534   -0.296058
     15          6           0        0.589903   -3.387909   -0.285086
     16          6           0       -0.671707   -2.775606   -0.273621
     17          6           0       -0.871135   -1.417600    0.219428
     18          6           0        0.284627   -0.702515    0.592488
     19          6           0       -0.250898    3.963084   -0.955185
     20          6           0       -1.634783    1.939887    0.487468
     21          6           0       -2.329530    2.799836   -0.462356
     22          6           0       -1.628396    3.782132   -1.133742
     23          6           0       -1.809976   -3.430664   -0.861853
     24          6           0       -3.014637   -2.813466   -0.962598
     25          6           0       -3.248625   -1.516310   -0.377757
     26          6           0       -2.163222   -0.839351    0.234156
     27          6           0       -2.391793    0.412817    1.003238
     28          6           0       -3.804138    0.749289    1.227361
     29          6           0       -4.544879   -0.986888   -0.286966
     30          6           0       -4.809686    0.118518    0.548465
     31          1           0       -5.837308    0.435281    0.693553
     32          1           0       -4.036105    1.552616    1.919173
     33          1           0       -1.827480    0.339145    1.935443
     34          1           0       -5.363391   -1.498246   -0.780900
     35          1           0       -3.849070   -3.318214   -1.438090
     36          1           0       -1.676378   -4.431722   -1.258715
     37          1           0        0.673852   -4.391322   -0.691713
     38          1           0        3.369761   -4.041898   -0.412244
     39          1           0        5.155062   -2.397193   -0.337966
     40          1           0        5.750209    0.347777   -0.306763
     41          1           0        4.791827    2.572608   -0.373255
     42          1           0        2.430997    3.929852   -0.787944
     43          1           0        0.243659    4.792851   -1.448788
     44          1           0       -2.165558    4.470042   -1.778242
     45          1           0       -3.410279    2.751780   -0.521590
     46          1           0       -1.809094    2.356917    1.487770
 ---------------------------------------------------------------------
 Rotational constants (GHZ):           0.2539731           0.1730783           0.1089744
 Standard basis: 6-311+G(d,p) (5D, 7F)
 There are   786 symmetry adapted cartesian basis functions of A   symmetry.
 There are   756 symmetry adapted basis functions of A   symmetry.
   756 basis functions,  1208 primitive gaussians,   786 cartesian basis functions
    98 alpha electrons       98 beta electrons
       nuclear repulsion energy      2644.3561749552 Hartrees.
 NAtoms=   46 NActive=   46 NUniq=   46 SFac= 1.00D+00 NAtFMM=   60 NAOKFM=F Big=F
 Integral buffers will be    131072 words long.
 Raffenetti 2 integral format.
 Two-electron integral symmetry is turned on.
 One-electron integrals computed using PRISM.
 NBasis=   756 RedAO= T EigKep=  1.10D-06  NBF=   756
 NBsUse=   737 1.00D-06 EigRej=  9.50D-07 NBFU=   737
 ExpMin= 4.38D-02 ExpMax= 4.56D+03 ExpMxC= 6.82D+02 IAcc=2 IRadAn=         4 AccDes= 0.00D+00
 Harris functional with IExCor=  402 and IRadAn=       4 diagonalized for initial guess.
 HarFok:  IExCor=  402 AccDes= 0.00D+00 IRadAn=         4 IDoV= 1 UseB2=F ITyADJ=14
 ICtDFT=  3500011 ScaDFX=  1.000000  1.000000  1.000000  1.000000
 FoFCou: FMM=F IPFlag=           0 FMFlag=      100000 FMFlg1=           0
         NFxFlg=           0 DoJE=T BraDBF=F KetDBF=T FulRan=T
         wScrn=  0.000000 ICntrl=       500 IOpCl=  0 I1Cent=   200000004 NGrid=           0
         NMat0=    1 NMatS0=      1 NMatT0=    0 NMatD0=    1 NMtDS0=    0 NMtDT0=    0
 Petite list used in FoFCou.
 Requested convergence on RMS density matrix=1.00D-08 within 128 cycles.
 Requested convergence on MAX density matrix=1.00D-06.
 Requested convergence on             energy=1.00D-06.
 No special actions if energy rises.
 EnCoef did     8 forward-backward iterations
 SCF Done:  E(RB3LYP) =  -1153.01911604     A.U. after   19 cycles
            NFock= 19  Conv=0.58D-08     -V/T= 2.0045
 DoSCS=F DFT=T ScalE2(SS,OS)=  1.000000  1.000000
 Range of M.O.s used for correlation:     1   737
 NBasis=   756 NAE=    98 NBE=    98 NFC=     0 NFV=     0
 NROrb=    737 NOA=    98 NOB=    98 NVA=   639 NVB=   639

 **** Warning!!: The largest alpha MO coefficient is  0.14739971D+03


 **** Warning!!: The smallest alpha delta epsilon is  0.49885153D-01

 Symmetrizing basis deriv contribution to polar:
 IMax=3 JMax=2 DiffMx= 0.00D+00
 G2DrvN: will do    47 centers at a time, making    1 passes.
 Calling FoFCou, ICntrl=  3107 FMM=F I1Cent=   0 AccDes= 0.00D+00.
 End of G2Drv F.D. properties file   721 does not exist.
 End of G2Drv F.D. properties file   722 does not exist.
 End of G2Drv F.D. properties file   788 does not exist.
          IDoAtm=1111111111111111111111111111111111111111111111
          Differentiating once with respect to nuclear coordinates.
 CalDSu exits because no D1Ps are significant.
          There are   141 degrees of freedom in the 1st order CPHF.  IDoFFX=6 NUNeed=     0.
    135 vectors produced by pass  0 Test12= 6.26D-14 1.00D-09 XBig12= 3.14D-01 1.17D-01.
 AX will form   135 AO Fock derivatives at one time.
    135 vectors produced by pass  1 Test12= 6.26D-14 1.00D-09 XBig12= 9.28D-02 5.77D-02.
    135 vectors produced by pass  2 Test12= 6.26D-14 1.00D-09 XBig12= 1.26D-03 5.00D-03.
    135 vectors produced by pass  3 Test12= 6.26D-14 1.00D-09 XBig12= 8.39D-06 3.71D-04.
    135 vectors produced by pass  4 Test12= 6.26D-14 1.00D-09 XBig12= 2.69D-08 1.55D-05.
    135 vectors produced by pass  5 Test12= 6.26D-14 1.00D-09 XBig12= 1.20D-10 7.04D-07.
    108 vectors produced by pass  6 Test12= 6.26D-14 1.00D-09 XBig12= 1.60D-11 2.76D-07.
     86 vectors produced by pass  7 Test12= 6.26D-14 1.00D-09 XBig12= 2.86D-12 1.03D-07.
     53 vectors produced by pass  8 Test12= 6.26D-14 1.00D-09 XBig12= 2.23D-13 3.14D-08.
      6 vectors produced by pass  9 Test12= 6.26D-14 1.00D-09 XBig12= 2.51D-15 2.76D-09.
      3 vectors produced by pass 10 Test12= 6.26D-14 1.00D-09 XBig12= 3.11D-16 1.22D-09.
      2 vectors produced by pass 11 Test12= 6.26D-14 1.00D-09 XBig12= 5.06D-16 1.36D-09.
      2 vectors produced by pass 12 Test12= 6.26D-14 1.00D-09 XBig12= 6.43D-16 1.43D-09.
      2 vectors produced by pass 13 Test12= 6.26D-14 1.00D-09 XBig12= 5.28D-16 1.54D-09.
 InvSVY:  IOpt=1 It=  1 EMax= 7.77D-16
 Solved reduced A of dimension  1072 with   141 vectors.
 End of Minotr F.D. properties file   721 does not exist.
 End of Minotr F.D. properties file   722 does not exist.
 End of Minotr F.D. properties file   788 does not exist.

 **********************************************************************

            Population analysis using the SCF Density.

 **********************************************************************

 Orbital symmetries:
       Occupied  (A) (A) (A) (A) (A) (A) (A) (A) (A) (A) (A) (A)
                 (A) (A) (A) (A) (A) (A) (A) (A) (A) (A) (A) (A)
                 (A) (A) (A) (A) (A) (A) (A) (A) (A) (A) (A) (A)
                 (A) (A) (A) (A) (A) (A) (A) (A) (A) (A) (A) (A)
                 (A) (A) (A) (A) (A) (A) (A) (A) (A) (A) (A) (A)
                 (A) (A) (A) (A) (A) (A) (A) (A) (A) (A) (A) (A)
                 (A) (A) (A) (A) (A) (A) (A) (A) (A) (A) (A) (A)
                 (A) (A) (A) (A) (A) (A) (A) (A) (A) (A) (A) (A)
                 (A) (A)
       Virtual   (A) (A) (A) (A) (A) (A) (A) (A) (A) (A) (A) (A)
                 (A) (A) (A) (A) (A) (A) (A) (A) (A) (A) (A) (A)
                 (A) (A) (A) (A) (A) (A) (A) (A) (A) (A) (A) (A)
                 (A) (A) (A) (A) (A) (A) (A) (A) (A) (A) (A) (A)
                 (A) (A) (A) (A) (A) (A) (A) (A) (A) (A) (A) (A)
                 (A) (A) (A) (A) (A) (A) (A) (A) (A) (A) (A) (A)
                 (A) (A) (A) (A) (A) (A) (A) (A) (A) (A) (A) (A)
                 (A) (A) (A) (A) (A) (A) (A) (A) (A) (A) (A) (A)
                 (A) (A) (A) (A) (A) (A) (A) (A) (A) (A) (A) (A)
                 (A) (A) (A) (A) (A) (A) (A) (A) (A) (A) (A) (A)
                 (A) (A) (A) (A) (A) (A) (A) (A) (A) (A) (A) (A)
                 (A) (A) (A) (A) (A) (A) (A) (A) (A) (A) (A) (A)
                 (A) (A) (A) (A) (A) (A) (A) (A) (A) (A) (A) (A)
                 (A) (A) (A) (A) (A) (A) (A) (A) (A) (A) (A) (A)
                 (A) (A) (A) (A) (A) (A) (A) (A) (A) (A) (A) (A)
                 (A) (A) (A) (A) (A) (A) (A) (A) (A) (A) (A) (A)
                 (A) (A) (A) (A) (A) (A) (A) (A) (A) (A) (A) (A)
                 (A) (A) (A) (A) (A) (A) (A) (A) (A) (A) (A) (A)
                 (A) (A) (A) (A) (A) (A) (A) (A) (A) (A) (A) (A)
                 (A) (A) (A) (A) (A) (A) (A) (A) (A) (A) (A) (A)
                 (A) (A) (A) (A) (A) (A) (A) (A) (A) (A) (A) (A)
                 (A) (A) (A) (A) (A) (A) (A) (A) (A) (A) (A) (A)
                 (A) (A) (A) (A) (A) (A) (A) (A) (A) (A) (A) (A)
                 (A) (A) (A) (A) (A) (A) (A) (A) (A) (A) (A) (A)
                 (A) (A) (A) (A) (A) (A) (A) (A) (A) (A) (A) (A)
                 (A) (A) (A) (A) (A) (A) (A) (A) (A) (A) (A) (A)
                 (A) (A) (A) (A) (A) (A) (A) (A) (A) (A) (A) (A)
                 (A) (A) (A) (A) (A) (A) (A) (A) (A) (A) (A) (A)
                 (A) (A) (A) (A) (A) (A) (A) (A) (A) (A) (A) (A)
                 (A) (A) (A) (A) (A) (A) (A) (A) (A) (A) (A) (A)
                 (A) (A) (A) (A) (A) (A) (A) (A) (A) (A) (A) (A)
                 (A) (A) (A) (A) (A) (A) (A) (A) (A) (A) (A) (A)
                 (A) (A) (A) (A) (A) (A) (A) (A) (A) (A) (A) (A)
                 (A) (A) (A) (A) (A) (A) (A) (A) (A) (A) (A) (A)
                 (A) (A) (A) (A) (A) (A) (A) (A) (A) (A) (A) (A)
                 (A) (A) (A) (A) (A) (A) (A) (A) (A) (A) (A) (A)
                 (A) (A) (A) (A) (A) (A) (A) (A) (A) (A) (A) (A)
                 (A) (A) (A) (A) (A) (A) (A) (A) (A) (A) (A) (A)
                 (A) (A) (A) (A) (A) (A) (A) (A) (A) (A) (A) (A)
                 (A) (A) (A) (A) (A) (A) (A) (A) (A) (A) (A) (A)
                 (A) (A) (A) (A) (A) (A) (A) (A) (A) (A) (A) (A)
                 (A) (A) (A) (A) (A) (A) (A) (A) (A) (A) (A) (A)
                 (A) (A) (A) (A) (A) (A) (A) (A) (A) (A) (A) (A)
                 (A) (A) (A) (A) (A) (A) (A) (A) (A) (A) (A) (A)
                 (A) (A) (A) (A) (A) (A) (A) (A) (A) (A) (A) (A)
                 (A) (A) (A) (A) (A) (A) (A) (A) (A) (A) (A) (A)
                 (A) (A) (A) (A) (A) (A) (A) (A) (A) (A) (A) (A)
                 (A) (A) (A) (A) (A) (A) (A) (A) (A) (A) (A) (A)
                 (A) (A) (A) (A) (A) (A) (A) (A) (A) (A) (A) (A)
                 (A) (A) (A) (A) (A) (A) (A) (A) (A) (A) (A) (A)
                 (A) (A) (A) (A) (A) (A) (A) (A) (A) (A) (A) (A)
                 (A) (A) (A) (A) (A) (A) (A) (A) (A) (A) (A) (A)
                 (A) (A) (A) (A) (A) (A) (A) (A) (A) (A) (A) (A)
                 (A) (A) (A)
 The electronic state is 1-A.
 Alpha  occ. eigenvalues --  -10.21258 -10.21066 -10.21049 -10.19973 -10.19658
 Alpha  occ. eigenvalues --  -10.19622 -10.19267 -10.19154 -10.19136 -10.19037
 Alpha  occ. eigenvalues --  -10.19021 -10.19018 -10.18927 -10.18855 -10.18777
 Alpha  occ. eigenvalues --  -10.18693 -10.18686 -10.18669 -10.18568 -10.18559
 Alpha  occ. eigenvalues --  -10.18552 -10.18433 -10.18374 -10.18332 -10.18326
 Alpha  occ. eigenvalues --  -10.18207 -10.17938 -10.17096 -10.16790 -10.16631
 Alpha  occ. eigenvalues --   -0.91986  -0.88632  -0.88075  -0.85107  -0.83882
 Alpha  occ. eigenvalues --   -0.83149  -0.80265  -0.79610  -0.78346  -0.77436
 Alpha  occ. eigenvalues --   -0.75242  -0.74611  -0.72570  -0.71420  -0.70857
 Alpha  occ. eigenvalues --   -0.66637  -0.65698  -0.63790  -0.63231  -0.62409
 Alpha  occ. eigenvalues --   -0.60101  -0.59266  -0.58880  -0.56608  -0.55988
 Alpha  occ. eigenvalues --   -0.52775  -0.51858  -0.51463  -0.51337  -0.50111
 Alpha  occ. eigenvalues --   -0.49389  -0.47737  -0.47060  -0.46245  -0.45919
 Alpha  occ. eigenvalues --   -0.45276  -0.44287  -0.44039  -0.43626  -0.43119
 Alpha  occ. eigenvalues --   -0.42227  -0.41838  -0.41472  -0.41031  -0.40419
 Alpha  occ. eigenvalues --   -0.40130  -0.39826  -0.39363  -0.38977  -0.37792
 Alpha  occ. eigenvalues --   -0.37044  -0.36056  -0.35083  -0.34987  -0.34469
 Alpha  occ. eigenvalues --   -0.34110  -0.33809  -0.33194  -0.32336  -0.31563
 Alpha  occ. eigenvalues --   -0.29922  -0.28319  -0.27313  -0.26073  -0.23342
 Alpha  occ. eigenvalues --   -0.22815  -0.20984  -0.16367
 Alpha virt. eigenvalues --   -0.11378  -0.08490  -0.04678  -0.02784  -0.02694
 Alpha virt. eigenvalues --   -0.00771  -0.00033   0.00629   0.00700   0.01126
 Alpha virt. eigenvalues --    0.01360   0.01704   0.01916   0.02866   0.02942
 Alpha virt. eigenvalues --    0.03236   0.03532   0.03728   0.04224   0.04646
 Alpha virt. eigenvalues --    0.04900   0.05016   0.05115   0.05800   0.06246
 Alpha virt. eigenvalues --    0.06335   0.06626   0.07019   0.07343   0.07703
 Alpha virt. eigenvalues --    0.08225   0.08395   0.08851   0.08941   0.09354
 Alpha virt. eigenvalues --    0.09897   0.10099   0.10249   0.10428   0.10936
 Alpha virt. eigenvalues --    0.11115   0.11470   0.11719   0.12749   0.12832
 Alpha virt. eigenvalues --    0.13422   0.13572   0.13958   0.14178   0.14481
 Alpha virt. eigenvalues --    0.14585   0.14744   0.15027   0.15249   0.15643
 Alpha virt. eigenvalues --    0.15996   0.16229   0.16345   0.16654   0.16821
 Alpha virt. eigenvalues --    0.16841   0.17114   0.17490   0.17894   0.18041
 Alpha virt. eigenvalues --    0.18077   0.18321   0.18666   0.18822   0.19039
 Alpha virt. eigenvalues --    0.19413   0.19491   0.19652   0.19833   0.19902
 Alpha virt. eigenvalues --    0.20238   0.20435   0.20539   0.20648   0.21097
 Alpha virt. eigenvalues --    0.21135   0.21237   0.21326   0.21545   0.21940
 Alpha virt. eigenvalues --    0.22019   0.22606   0.22775   0.22974   0.23266
 Alpha virt. eigenvalues --    0.23444   0.23859   0.24025   0.24208   0.24621
 Alpha virt. eigenvalues --    0.24857   0.25215   0.25328   0.25389   0.25579
 Alpha virt. eigenvalues --    0.25807   0.26002   0.26158   0.26329   0.26626
 Alpha virt. eigenvalues --    0.26747   0.27072   0.27453   0.27515   0.27661
 Alpha virt. eigenvalues --    0.27899   0.28373   0.28507   0.28828   0.28995
 Alpha virt. eigenvalues --    0.29358   0.29431   0.29605   0.29943   0.30336
 Alpha virt. eigenvalues --    0.30555   0.30995   0.31337   0.31386   0.31627
 Alpha virt. eigenvalues --    0.32019   0.32306   0.32599   0.32747   0.33250
 Alpha virt. eigenvalues --    0.33549   0.34170   0.34345   0.34861   0.35324
 Alpha virt. eigenvalues --    0.35437   0.35547   0.35589   0.36389   0.36590
 Alpha virt. eigenvalues --    0.36827   0.37444   0.37952   0.38270   0.38672
 Alpha virt. eigenvalues --    0.39288   0.40145   0.40408   0.40742   0.41195
 Alpha virt. eigenvalues --    0.41949   0.42519   0.43124   0.43890   0.44116
 Alpha virt. eigenvalues --    0.44730   0.45082   0.46367   0.47013   0.47592
 Alpha virt. eigenvalues --    0.48464   0.48801   0.50151   0.50580   0.50786
 Alpha virt. eigenvalues --    0.51412   0.52438   0.52572   0.53221   0.53403
 Alpha virt. eigenvalues --    0.53745   0.54046   0.54421   0.54817   0.55096
 Alpha virt. eigenvalues --    0.55561   0.55943   0.56194   0.56838   0.57569
 Alpha virt. eigenvalues --    0.57753   0.57897   0.58493   0.58707   0.59093
 Alpha virt. eigenvalues --    0.59457   0.59861   0.60226   0.60500   0.60614
 Alpha virt. eigenvalues --    0.60768   0.61133   0.61510   0.62132   0.62768
 Alpha virt. eigenvalues --    0.63156   0.64032   0.64598   0.64849   0.65176
 Alpha virt. eigenvalues --    0.65652   0.65858   0.66331   0.66789   0.66892
 Alpha virt. eigenvalues --    0.67767   0.68100   0.68804   0.69240   0.69342
 Alpha virt. eigenvalues --    0.70028   0.70392   0.70533   0.71206   0.71473
 Alpha virt. eigenvalues --    0.71763   0.71962   0.72201   0.72556   0.72881
 Alpha virt. eigenvalues --    0.73182   0.73585   0.73872   0.73963   0.74295
 Alpha virt. eigenvalues --    0.74493   0.74559   0.75025   0.75376   0.75658
 Alpha virt. eigenvalues --    0.75925   0.76723   0.77218   0.77463   0.77740
 Alpha virt. eigenvalues --    0.78742   0.79455   0.80172   0.81203   0.81521
 Alpha virt. eigenvalues --    0.81985   0.82611   0.82989   0.83171   0.83510
 Alpha virt. eigenvalues --    0.84033   0.84779   0.84978   0.85766   0.86263
 Alpha virt. eigenvalues --    0.86526   0.86924   0.87070   0.87704   0.88089
 Alpha virt. eigenvalues --    0.88870   0.89341   0.89627   0.90066   0.90932
 Alpha virt. eigenvalues --    0.91233   0.91444   0.91676   0.92218   0.92585
 Alpha virt. eigenvalues --    0.93001   0.93712   0.94099   0.94211   0.94518
 Alpha virt. eigenvalues --    0.95240   0.95514   0.96142   0.96716   0.97598
 Alpha virt. eigenvalues --    0.98063   0.98608   0.99433   0.99651   1.00294
 Alpha virt. eigenvalues --    1.01643   1.01861   1.02101   1.02509   1.03061
 Alpha virt. eigenvalues --    1.03889   1.04619   1.05218   1.05389   1.06220
 Alpha virt. eigenvalues --    1.06909   1.07397   1.08180   1.08672   1.09735
 Alpha virt. eigenvalues --    1.09918   1.10369   1.10731   1.11348   1.11993
 Alpha virt. eigenvalues --    1.12460   1.14486   1.15504   1.16453   1.17744
 Alpha virt. eigenvalues --    1.18513   1.19599   1.19945   1.20914   1.21930
 Alpha virt. eigenvalues --    1.22880   1.24422   1.25407   1.26306   1.27345
 Alpha virt. eigenvalues --    1.28957   1.29536   1.30430   1.32429   1.33292
 Alpha virt. eigenvalues --    1.34736   1.36383   1.37679   1.38078   1.39364
 Alpha virt. eigenvalues --    1.40602   1.41459   1.42359   1.43529   1.44307
 Alpha virt. eigenvalues --    1.44934   1.45694   1.46138   1.46660   1.47799
 Alpha virt. eigenvalues --    1.49167   1.49613   1.49945   1.50748   1.51363
 Alpha virt. eigenvalues --    1.51752   1.52353   1.52865   1.53903   1.54047
 Alpha virt. eigenvalues --    1.54678   1.54979   1.55147   1.56405   1.56602
 Alpha virt. eigenvalues --    1.57591   1.58028   1.58132   1.58575   1.59510
 Alpha virt. eigenvalues --    1.60116   1.60843   1.61466   1.61704   1.62799
 Alpha virt. eigenvalues --    1.63051   1.63848   1.65316   1.66841   1.67161
 Alpha virt. eigenvalues --    1.67736   1.67776   1.69438   1.69803   1.70802
 Alpha virt. eigenvalues --    1.71486   1.72251   1.72833   1.73148   1.73911
 Alpha virt. eigenvalues --    1.74486   1.75097   1.75629   1.76195   1.76588
 Alpha virt. eigenvalues --    1.76930   1.77365   1.78119   1.79089   1.79630
 Alpha virt. eigenvalues --    1.80192   1.81596   1.82649   1.83051   1.83170
 Alpha virt. eigenvalues --    1.84192   1.84738   1.85108   1.86153   1.87074
 Alpha virt. eigenvalues --    1.87663   1.88066   1.88668   1.89471   1.89678
 Alpha virt. eigenvalues --    1.90282   1.91001   1.91490   1.92280   1.92864
 Alpha virt. eigenvalues --    1.93186   1.94102   1.94673   1.94775   1.95435
 Alpha virt. eigenvalues --    1.96125   1.97246   1.97606   1.98280   1.98482
 Alpha virt. eigenvalues --    1.99047   1.99543   2.00636   2.02003   2.02409
 Alpha virt. eigenvalues --    2.03043   2.03851   2.05022   2.05839   2.06324
 Alpha virt. eigenvalues --    2.06862   2.08135   2.08900   2.09425   2.09635
 Alpha virt. eigenvalues --    2.11667   2.12259   2.13516   2.13662   2.14768
 Alpha virt. eigenvalues --    2.16496   2.16807   2.17342   2.17861   2.19614
 Alpha virt. eigenvalues --    2.20273   2.21032   2.21679   2.21979   2.22689
 Alpha virt. eigenvalues --    2.24026   2.24824   2.25844   2.26451   2.28358
 Alpha virt. eigenvalues --    2.28854   2.29997   2.31678   2.32643   2.33870
 Alpha virt. eigenvalues --    2.35059   2.36879   2.38486   2.38962   2.39426
 Alpha virt. eigenvalues --    2.40664   2.42162   2.42740   2.44664   2.45438
 Alpha virt. eigenvalues --    2.46547   2.48653   2.48996   2.50016   2.50602
 Alpha virt. eigenvalues --    2.51663   2.53359   2.54762   2.55602   2.56158
 Alpha virt. eigenvalues --    2.56943   2.57591   2.59503   2.60657   2.61736
 Alpha virt. eigenvalues --    2.64461   2.64653   2.64713   2.66227   2.68797
 Alpha virt. eigenvalues --    2.70360   2.71093   2.71254   2.71852   2.71893
 Alpha virt. eigenvalues --    2.72437   2.73398   2.73647   2.74212   2.74371
 Alpha virt. eigenvalues --    2.74716   2.74944   2.75553   2.76349   2.76458
 Alpha virt. eigenvalues --    2.76588   2.77057   2.77548   2.77906   2.78222
 Alpha virt. eigenvalues --    2.78921   2.79117   2.80359   2.81004   2.81540
 Alpha virt. eigenvalues --    2.82234   2.82782   2.83368   2.84268   2.86020
 Alpha virt. eigenvalues --    2.86243   2.87310   2.87795   2.88485   2.88942
 Alpha virt. eigenvalues --    2.90169   2.90573   2.91688   2.92842   2.93596
 Alpha virt. eigenvalues --    2.95918   2.96107   2.97758   3.00136   3.01711
 Alpha virt. eigenvalues --    3.03724   3.04230   3.05372   3.06409   3.07351
 Alpha virt. eigenvalues --    3.08336   3.09314   3.11716   3.13349   3.13511
 Alpha virt. eigenvalues --    3.15776   3.16254   3.18699   3.19612   3.20084
 Alpha virt. eigenvalues --    3.20869   3.21751   3.22372   3.22854   3.24405
 Alpha virt. eigenvalues --    3.26812   3.29112   3.30871   3.32610   3.34577
 Alpha virt. eigenvalues --    3.35653   3.35882   3.36680   3.37678   3.39964
 Alpha virt. eigenvalues --    3.40800   3.41282   3.42281   3.43929   3.44759
 Alpha virt. eigenvalues --    3.47286   3.48120   3.49480   3.50925   3.52417
 Alpha virt. eigenvalues --    3.54429   3.55564   3.56723   3.59670   3.61311
 Alpha virt. eigenvalues --    3.62255   3.64188   3.66857   3.68243   3.71693
 Alpha virt. eigenvalues --    3.76630   3.83031   3.83611   3.88033   3.96208
 Alpha virt. eigenvalues --    3.98561   4.02379   4.03273   4.05994   4.06673
 Alpha virt. eigenvalues --    4.07964   4.08990   4.09466   4.13601   4.20003
 Alpha virt. eigenvalues --    4.23779   4.25768   4.27740   4.31947   4.43391
 Alpha virt. eigenvalues --    4.58332   4.64612   4.68107   4.72741   4.74032
 Alpha virt. eigenvalues --    4.74667   4.82018   4.85393   4.88923  23.41279
 Alpha virt. eigenvalues --   23.60819  23.68959  23.77453  23.81119  23.82702
 Alpha virt. eigenvalues --   23.87035  23.88319  23.88762  23.90994  23.93482
 Alpha virt. eigenvalues --   23.93660  23.95042  23.98625  24.00661  24.00914
 Alpha virt. eigenvalues --   24.02626  24.03491  24.05242  24.06641  24.07407
 Alpha virt. eigenvalues --   24.08345  24.10690  24.11657  24.13386  24.13476
 Alpha virt. eigenvalues --   24.14657  24.17477  24.18019  24.20829
          Condensed to atoms (all electrons):
               1          2          3          4          5          6
     1  C   14.404527  -0.250778  -1.127537   1.687814  -2.949021  -2.050784
     2  C   -0.250778   9.951841   0.828970  -1.935402  -0.437378   2.241594
     3  C   -1.127537   0.828970   9.958492   0.779902   1.976184  -0.546897
     4  C    1.687814  -1.935402   0.779902  12.216212  -0.692309  -2.758956
     5  C   -2.949021  -0.437378   1.976184  -0.692309  11.398649   1.003987
     6  C   -2.050784   2.241594  -0.546897  -2.758956   1.003987  11.920261
     7  C   -0.541442  -1.008492   0.686033  -0.660197   0.198860  -1.408567
     8  C   -0.612501  -0.936428  -0.072010   1.661751   0.701899   0.405543
     9  C    0.138546   0.429462   1.367450  -0.997298  -0.316754  -0.176565
    10  C    1.404852  -1.778361  -2.154230  -1.325616  -0.529805  -1.612017
    11  C   -2.306142   0.340925   0.385748  -1.046343   0.204088   0.499438
    12  C    0.079195   0.057380  -0.133224   0.019488  -0.163344  -0.013161
    13  C   -0.372657  -0.570127  -0.541119   0.098018   0.065600  -0.076495
    14  C   -0.259985  -0.133742  -0.543476   0.005574   0.003904   0.189977
    15  C    1.089683  -0.262123  -1.055724   0.282702  -1.326319  -0.689584
    16  C    0.539382  -0.973771  -0.694785   0.413531  -0.645919  -0.265643
    17  C   -0.532042   0.509853  -0.192618  -0.311528  -0.646539   0.070320
    18  C    0.598394   1.631619  -0.922896  -1.125654  -1.633409  -0.507470
    19  C    0.000866   0.083005  -0.097807  -0.104582  -0.014861   0.000487
    20  C   -0.066288  -0.131608  -0.291351  -0.074774   0.059225   0.106059
    21  C    0.096205   0.033657   0.099431  -0.014443   0.012301   0.008120
    22  C   -0.037294  -0.090814  -0.105792   0.000231   0.007267  -0.002163
    23  C   -0.897573  -0.908357  -0.172038   0.068790  -0.248747  -0.192183
    24  C   -0.152874  -0.194315  -0.222648  -0.026147  -0.329118  -0.000322
    25  C   -0.133351  -0.352304  -0.144849  -0.006679  -0.051221  -0.047900
    26  C   -0.686956   0.049012  -0.296249  -0.010154  -0.055722  -0.104702
    27  C   -0.972435  -0.007218  -0.440199  -0.137404   0.015091  -0.139153
    28  C   -0.239817   0.189144  -0.287430  -0.050758   0.015916  -0.020897
    29  C   -0.252593  -0.109474  -0.158391  -0.025846   0.003297  -0.007861
    30  C    0.011855  -0.027044   0.049065   0.013678  -0.011201   0.000942
    31  H    0.000044  -0.000068  -0.000012  -0.000003   0.000005   0.000000
    32  H    0.000103  -0.000054   0.000672   0.000078  -0.000015   0.000005
    33  H   -0.000759  -0.024217  -0.002588  -0.003840  -0.001023   0.000519
    34  H    0.000126  -0.000460   0.000073  -0.000001  -0.000007   0.000001
    35  H    0.001299   0.000959   0.000040   0.000008   0.000500  -0.000012
    36  H    0.046026   0.011512   0.000985  -0.000036   0.005897   0.000868
    37  H   -0.058923  -0.032132  -0.001173   0.013172   0.038492  -0.003013
[...]
 265,-0.00004014,-0.00002126,-0.00015186,-0.00013451,0.00009021,-0.0002
 6356,0.00042634,0.00020860,0.00007874,0.00022082,0.00010891,-0.0000112
 3,-0.00002831,-0.00002419,0.00007025,-0.00000677,0.00002987,-0.0000025
 7,-0.00000157,-0.00000095,0.00001052,-0.00001384,-0.00002947,-0.000002
 58,-0.00000460,-0.00003071,-0.00000520,0.00001222,0.00000088,-0.000003
 98,0.00000245,-0.00000027,0.00000411,0.00000204,-0.00000207,0.00000099
 ,0.00000481,-0.00000024,0.,0.00000366,0.00000078,0.00000284,0.00000176
 ,0.00000419,0.00000625,0.00000731,0.00000129,-0.00000929,-0.00000991,-
 0.00000386,-0.00018161,0.00026219,0.00014032,0.11947837,0.00002090,0.0
 0000303,-0.00000747,0.00004174,-0.00015565,-0.00013679,-0.00003274,0.0
 0018533,0.00003009,-0.00010995,0.00006463,0.00001551,-0.00005054,-0.00
 006765,0.00002968,0.00004620,0.00000995,0.00001946,-0.00007785,0.00019
 095,-0.00019908,-0.00052265,-0.00024314,0.00035691,0.00016014,0.000041
 90,-0.00010613,-0.00002368,-0.00019098,-0.00003011,0.00123524,-0.00089
 723,0.00011609,-0.00441539,0.00099018,-0.00335433,0.00997529,-0.013219
 70,-0.01121362,0.00195145,0.00010956,0.00155581,-0.00000069,-0.0000385
 5,0.00000846,0.00006368,-0.00003875,0.00002770,0.00011325,-0.00001803,
 0.00005595,-0.00045969,0.00025297,0.00039651,0.09756244,-0.20873035,-0
 .10741322,0.00015406,-0.00050479,-0.00004895,0.00111815,0.00394147,-0.
 00078321,0.00030821,0.00075401,-0.00293638,-0.00005626,-0.00000651,-0.
 00005774,0.00007229,-0.00000853,0.00004794,-0.00020744,-0.00014574,-0.
 00006030,-0.00016032,-0.00017896,0.00018876,-0.00046562,0.00081398,0.0
 0034261,-0.00001792,0.00036533,0.00020578,-0.00008289,0.00014022,-0.00
 025190,0.00020306,-0.00009379,0.00005027,-0.00001664,0.00000415,0.0000
 2060,0.00000862,-0.00002289,0.00001779,0.00004326,-0.00009124,-0.00005
 702,0.00001384,0.00000772,0.00002894,0.00000089,-0.00000381,0.00000165
 ,0.00000409,0.00000197,0.00000169,0.00000197,0.00000052,0.00000579,-0.
 00000133,-0.00000299,-0.00000495,-0.00000988,-0.00001245,-0.00000757,-
 0.00000600,-0.00000769,0.00000786,-0.00001609,0.00000636,0.00000648,-0
 .00092942,0.00043706,0.00007090,-0.10541364,0.21734583,-0.00001087,0.0
 0004485,0.00002816,-0.00001080,-0.00007317,0.00028607,-0.00007747,-0.0
 0003772,0.00002086,0.00004593,-0.00001239,-0.00005895,-0.00003310,-0.0
 0000588,-0.00004026,-0.00000205,-0.00005241,0.00000044,0.00022589,0.00
 004633,0.00016315,-0.00014109,0.00034008,-0.00016583,0.00000287,-0.000
 05914,0.00007672,0.00000130,0.00004883,0.00002370,0.00011772,-0.000099
 49,-0.00058865,-0.00011251,-0.00490145,0.00210039,0.00969760,-0.009776
 85,-0.00135182,0.00075929,0.00125342,-0.00175030,0.00000394,0.00002588
 ,-0.00000558,-0.00003569,0.00005339,-0.00001125,-0.00027248,-0.0001109
 0,-0.00002461,0.00018539,-0.00023861,-0.00052377,0.05492244,-0.1096605
 0,-0.10300814,-0.00132344,0.00107977,-0.00008869,-0.00218189,-0.003041
 84,0.00292472,-0.00386664,0.00290662,0.00565272,0.00005620,0.00000492,
 0.00001549,-0.00004115,-0.00004375,0.00002202,0.00031415,0.00013334,0.
 00009714,0.00017568,0.00037282,-0.00030486,0.00077600,-0.00110582,-0.0
 0040056,-0.00004744,-0.00064828,-0.00021088,-0.00010881,-0.00019260,0.
 00021905,-0.00019238,0.00022023,-0.00014535,0.00001966,-0.00000481,-0.
 00000862,-0.00001583,0.00007305,0.00001952,-0.00006597,0.00014316,0.00
 012914,0.00000707,-0.00002488,-0.00001557,0.00000498,0.00000073,-0.000
 00155,0.00000008,-0.00000460,0.00000666,-0.00000141,-0.00001090,-0.000
 00346,-0.00000529,-0.00000605,0.00000200,-0.00000212,0.00000076,0.0000
 1714,-0.00000642,0.00000324,-0.00000479,-0.00002813,-0.00000064,0.0000
 0237,-0.00062035,-0.00005011,0.00036710,-0.05848330,0.12119153,0.09812
 100,0.00007009,0.00001983,-0.00002506,-0.00009076,-0.00005775,-0.00000
 815,-0.00009970,-0.00023694,-0.00000811,0.00014530,0.00009311,-0.00001
 507,-0.00008157,0.00006976,0.00001105,-0.00000373,-0.00013794,0.000024
 04,0.00027087,0.00025137,0.00004342,-0.00055360,-0.00000563,0.00013074
 ,0.00003427,-0.00011144,-0.00001924,-0.00007566,0.00003408,-0.00000018
 ,-0.00005632,-0.00022942,0.00002411,-0.00012725,0.00083987,0.00024913,
 -0.00480405,0.00245806,-0.00066316,0.00013640,-0.00120221,-0.00055231,
 -0.00003997,0.00001433,0.00000129,0.00000078,-0.00002435,0.00000603,-0
 .00008110,0.00001587,-0.00006521,0.00000769,-0.00001448,0.00000898,-0.
 01189135,-0.02109348,-0.01908256,-0.00142564,0.00269645,0.00122271,0.0
 1101942,0.01185868,0.01040593,-0.12613981,-0.08451742,-0.08442648,-0.0
 0001730,-0.00000534,-0.00001148,-0.00001942,0.00002974,-0.00000884,-0.
 00005637,0.00008711,-0.00003258,0.00014497,-0.00006522,0.00005929,0.00
 044924,-0.00004351,0.00021430,0.00004122,-0.00001133,-0.00010624,0.000
 14368,0.00006986,0.00001631,-0.00005303,-0.00012225,0.00009435,-0.0000
 0320,0.00000891,0.00000312,-0.00000282,-0.00001525,-0.00001252,-0.0000
 9172,0.00016091,0.00012645,-0.00000215,-0.00000004,-0.00000891,0.00000
 452,0.00000048,-0.00000272,-0.00000426,-0.00000442,0.00000150,0.000000
 15,-0.00000472,0.00000151,-0.00000494,-0.00000667,-0.00000077,-0.00000
 183,-0.00000133,-0.00000700,-0.00000874,-0.00001511,0.00000352,-0.0000
 0887,0.00000705,0.00000124,-0.00005166,0.00008373,-0.00003164,0.000804
 02,-0.00014801,0.00084967,0.13163581,-0.00009892,-0.00001834,-0.000010
 97,-0.00001991,0.00003574,-0.00001345,-0.00000033,-0.00006383,-0.00002
 950,0.00003533,-0.00013902,0.00001835,0.00013559,-0.00000898,-0.000019
 66,-0.00008270,0.00012677,-0.00000056,0.00021756,-0.00006805,-0.000090
 70,0.00025692,0.00020131,0.00039722,-0.00010129,-0.00006127,0.00008083
 ,-0.00002285,0.00013782,-0.00002674,-0.00024870,-0.00024168,0.00025143
 ,0.00089465,0.00011317,0.00029135,0.00252150,0.00220228,-0.00269993,-0
 .00045770,0.00025520,-0.00006107,0.00009777,-0.00001260,0.00002099,-0.
 00008897,-0.00005604,0.00002665,0.00021353,0.00002213,0.00002159,-0.00
 008736,0.00014063,-0.00000541,0.00335326,0.00532915,0.00285992,0.00311
 325,0.00181368,-0.00522691,-0.01288294,-0.01114396,-0.01281436,-0.0849
 3085,-0.16132627,-0.11227693,0.00001608,-0.00001781,-0.00000166,-0.000
 03030,-0.00001189,0.00002521,0.00006787,0.00001253,-0.00002467,-0.0001
 1138,-0.00010922,0.00006180,-0.00037888,0.00059431,-0.00024103,0.00016
 644,-0.00004290,0.00001173,-0.00004984,-0.00008105,0.00015111,-0.00009
 148,0.00014545,-0.00014935,0.00002275,-0.00000558,-0.00001310,-0.00002
 623,0.00000075,0.00001640,0.00013198,-0.00021018,0.00000287,-0.0000003
 0,-0.00001967,-0.00001182,0.00000636,-0.00001059,-0.00000578,-0.000003
 08,-0.00000444,0.00000110,-0.00000049,-0.00000615,-0.00000257,0.000000
 08,-0.00000584,0.00000570,-0.00000041,0.00000312,0.00000030,-0.0000048
 0,0.00000575,-0.00000858,-0.00000431,-0.00000146,-0.00000513,-0.000021
 16,0.00003444,-0.00009073,-0.00065643,-0.00067450,0.00195748,0.0900202
 4,0.16533307,0.00003635,-0.00000868,0.00002869,0.00006863,-0.00001324,
 0.00002468,0.00010381,0.00028375,0.00000729,-0.00020437,0.00003655,0.0
 0001201,-0.00005544,-0.00003975,-0.00000860,0.00002930,0.00001037,-0.0
 0000926,-0.00044815,-0.00009641,0.00010562,-0.00027263,-0.00003964,-0.
 00050540,0.00014023,0.00007175,-0.00012125,0.00002034,-0.00017729,0.00
 002391,0.00028975,0.00034450,-0.00020441,-0.00031226,-0.00002468,0.000
 00436,-0.00128034,-0.00122354,0.00539940,0.00037263,-0.00039524,-0.000
 03034,0.00000626,0.00001070,-0.00000903,0.00000293,0.00003501,0.000005
 31,0.00005361,-0.00007267,0.00008788,0.00004531,-0.00001974,-0.0000653
 4,-0.00029375,-0.00247554,0.00073873,0.00255861,-0.00511468,0.00413037
 ,-0.00787456,-0.01044082,-0.00675365,-0.08492982,-0.11160302,-0.140564
 98,-0.00001195,0.00001505,-0.00003202,0.00002683,-0.00002136,0.0000302
 0,-0.00001719,-0.00006536,-0.00002596,-0.00008964,-0.00002791,-0.00004
 333,-0.00090017,0.00027263,-0.00036279,0.00001973,0.00001933,0.0000907
 5,-0.00005549,-0.00000807,0.00001643,0.00003855,0.00008988,-0.00007309
 ,0.00002033,-0.00000873,0.00000175,0.00002689,0.00001140,-0.00001415,0
 .00011138,-0.00028758,-0.00023560,-0.00000136,-0.00000300,-0.00000443,
 0.00000146,-0.00000013,0.00000189,0.00000113,-0.00000040,0.00000411,-0
 .00000080,-0.00000290,0.00000386,0.00000334,-0.00000580,-0.00000120,-0
 .00000396,-0.00000200,0.00000546,-0.00000502,-0.00001307,0.00001745,-0
 .00000089,0.00000475,0.00000754,0.00002193,-0.00006045,0.00013946,0.00
 039585,0.00204472,-0.00197737,0.09144426,0.12570874,0.14154944,0.00006
 973,0.00004550,-0.00000445,-0.00011063,-0.00011741,0.00002112,-0.00011
 551,-0.00005187,-0.00007610,0.00009486,0.00002437,-0.00005270,-0.00010
 568,-0.00008351,0.00002223,0.00007752,-0.00005491,0.00003355,0.0003674
 0,-0.00033064,0.00000527,0.00006557,0.00011873,0.00013392,0.00003680,-
 0.00004122,-0.00001451,-0.00005088,0.00000700,0.00000123,-0.00114581,0
 .00030264,0.00008428,0.00114814,-0.00113094,-0.00215222,0.00051923,0.0
 0001691,0.00041303,-0.00014718,-0.00007811,-0.00011169,-0.00002564,-0.
 00002813,0.00001646,0.00003976,0.00001896,-0.00000401,-0.00012215,-0.0
 0008326,0.00004049,0.00003216,0.00019987,0.00006327,0.00076210,0.00204
 945,0.00160031,-0.01149998,-0.00152535,-0.00015826,-0.33541438,0.01182
 384,-0.01285727,-0.01059620,-0.00288881,-0.00108266,-0.00003946,0.0000
 6352,-0.00005961,0.00006551,-0.00008416,0.00009100,-0.00009525,-0.0001
 0886,-0.00017433,-0.00006967,-0.00017125,0.00008321,-0.00112190,0.0011
 5799,0.00063262,0.00047147,0.00079116,0.00051214,-0.00006133,-0.000114
 39,0.00007058,0.00007134,0.00056569,0.00021103,-0.00006651,0.00004167,
 0.00008299,0.00001741,0.00019837,-0.00002492,-0.00003533,-0.00008614,0
 .00001048,0.00001380,-0.00000041,0.00000197,0.00000200,0.00000169,-0.0
 0000354,0.00001015,-0.00000166,-0.00000064,0.00000242,-0.00000605,0.00
 000374,0.00000033,-0.00000414,-0.00000625,-0.00000754,-0.00001153,0.00
 000469,-0.00000689,-0.00000543,0.00000087,-0.00000869,0.00000373,0.000
 00307,0.00001954,0.00003417,-0.00002565,-0.00047839,0.00020720,-0.0005
 7679,0.00084012,-0.00003546,0.00023508,0.35661016,0.00006494,-0.000402
 07,0.00013318,0.00043714,0.00027803,-0.00007195,-0.00005271,0.00012426
 ,0.00002449,0.00007464,-0.00005992,0.00008046,0.00018257,-0.00004649,0
 .00000562,-0.00005367,0.00010844,-0.00003166,0.00039348,-0.00037327,0.
 00014424,-0.00011644,0.00057096,0.00008157,-0.00002211,0.00000522,-0.0
 0005613,-0.00008764,0.00011246,0.00002406,-0.00108733,0.00076660,-0.00
 030240,-0.00138744,-0.00025572,-0.00397783,0.00031196,0.00010530,0.000
 59639,-0.00064198,-0.00042529,0.00049868,-0.00032763,-0.00003951,-0.00
 000376,0.00027925,-0.00005208,0.00007736,0.00037131,0.00001912,-0.0000
 0419,-0.00032857,-0.00026700,-0.00005606,-0.00021488,-0.00051125,-0.00
 616319,-0.02005178,-0.00376010,-0.00335456,0.00871907,-0.04092823,-0.0
 0775646,0.02536945,0.00198127,-0.00193675,-0.00032304,0.00002026,-0.00
 007433,0.00012677,0.00017260,-0.00004813,-0.00148038,-0.00022059,-0.00
 051697,0.00010396,-0.00147949,0.00129267,-0.00246498,0.00449982,0.0013
 0116,0.00012925,0.00239358,0.00019767,0.00128894,0.00065880,-0.0003436
 8,0.00092765,-0.00146882,0.00100333,0.00003068,-0.00001522,-0.00003762
 ,0.00013599,-0.00031549,-0.00032981,0.00012818,-0.00027218,-0.00015917
 ,0.00000690,0.00005999,-0.00003091,-0.00000069,-0.00000383,-0.00000383
 ,0.00000263,-0.00000430,-0.00000609,-0.00000490,0.00000245,0.00000186,
 -0.00000013,0.00000063,0.00000327,-0.00000067,-0.00000319,-0.00002114,
 0.00000904,-0.00000041,0.00000692,-0.00001081,-0.00000458,0.00000290,-
 0.00007621,0.00004259,0.00000169,0.00083847,-0.00040413,0.00041602,-0.
 00063651,-0.00134701,0.00264016,-0.01033110,0.04084346,0.00012042,0.00
 062777,-0.00023648,-0.00087589,-0.00047584,0.00006924,-0.00022346,-0.0
 0062498,-0.00004091,0.00013727,0.00029659,-0.00013514,-0.00034280,0.00
 019110,0.00003018,0.00002746,-0.00038158,0.00007017,0.00008483,0.00013
 896,0.00038342,-0.00022467,-0.00099428,-0.00041049,0.00017589,0.000164
 24,0.00008715,-0.00000669,-0.00022466,-0.00001246,-0.00123000,-0.00045
 319,0.00055432,0.00192785,-0.00402260,-0.00195247,-0.00134056,-0.00093
 680,-0.00141651,0.00135316,0.00087372,-0.00009074,0.00031231,-0.000061
 74,0.00006550,-0.00029261,0.00010491,-0.00009036,-0.00053738,-0.000143
 59,-0.00009046,0.00043461,0.00083264,0.00010189,0.00318843,-0.00489130
 ,0.00303300,-0.01948167,0.00903801,0.00929005,-0.01477485,-0.01739239,
 -0.04776680,0.01360262,0.00229452,0.00618537,0.00033816,0.00001133,0.0
 0006157,-0.00014554,-0.00022757,0.00009530,0.00134005,0.00026579,0.000
 38690,0.00018948,0.00156039,-0.00142987,0.00314289,-0.00464568,-0.0010
 3465,-0.00054145,-0.00273475,-0.00125576,-0.00089268,-0.00047487,0.000
 54566,-0.00030235,0.00081142,-0.00045439,0.00006124,-0.00004108,0.0000
 3293,0.00011027,-0.00005986,-0.00045322,-0.00025758,0.00066677,0.00048
 138,-0.00001361,-0.00000124,-0.00002713,-0.00000758,0.00001353,0.00000
 220,0.00000416,0.00000475,0.00001114,0.00000885,-0.00000723,-0.0000087
 1,-0.00001581,-0.00000462,-0.00000586,0.00000554,-0.00000464,0.0000159
 0,-0.00000161,0.00000537,-0.00000724,-0.00000761,-0.00000113,0.0000048
 0,-0.00005902,-0.00002858,0.00004166,0.00078122,-0.00019730,0.00045899
 ,0.00006962,0.00285111,-0.00200448,0.01323813,0.01757662,0.03639381,-0
 .00013807,-0.00032483,0.00020589,0.00003668,0.00062922,-0.00014197,0.0
 0061560,0.00064253,-0.00015500,-0.00082087,0.00009376,0.00047070,0.000
 44162,-0.00021457,-0.00008145,-0.00008086,0.00060967,-0.00005032,-0.00
 101290,-0.00019440,-0.00183955,-0.00057662,-0.00024874,0.00006827,0.00
 041894,0.00013560,0.00003201,-0.00013891,-0.00063651,-0.00003681,0.000
 03255,0.00095049,-0.00090494,-0.01277572,-0.01209924,0.02857230,-0.001
 88187,0.00095930,-0.00029155,-0.00010885,0.00060343,-0.00046362,0.0001
 5117,-0.00023561,0.00007046,0.00003010,-0.00034793,0.00021282,0.002004
 11,-0.00004803,0.00009254,-0.00078270,0.00158420,0.00110068,-0.0019617
 4,0.00011148,-0.00087962,-0.04053004,-0.02907860,0.03672287,0.00584270
 ,0.00535344,-0.01088985,0.00188300,-0.00260677,-0.00219256,-0.00033407
 ,0.00004552,-0.00011079,0.00026316,0.00009908,-0.00012026,-0.00079842,
 -0.00032984,-0.00052922,-0.00284679,-0.00161664,0.00174172,-0.00536113
 ,0.01835111,-0.00163032,0.00118668,0.00343544,-0.00299604,-0.00031755,
 0.00013967,0.00004627,0.00000859,0.00148294,0.00044721,-0.00006657,0.0
 0003501,0.00001978,-0.00049031,-0.00095917,-0.00020348,0.00190652,-0.0
 0139650,-0.00136954,0.00003154,-0.00019393,-0.00015192,0.00000647,0.00
 001050,-0.00001501,0.00000937,0.00000594,0.00000239,0.00000170,0.00000
 694,-0.00000405,0.00001628,-0.00000269,0.00001235,-0.00001999,-0.00001
 310,-0.00001631,-0.00000735,-0.00001562,-0.00000770,-0.00000890,0.0000
 0724,0.00002031,-0.00008614,-0.00003110,0.00008461,-0.00005852,-0.0000
 8137,0.00009755,0.00004828,-0.00083407,0.00068327,-0.00001255,-0.00023
 068,0.00092096,0.05628238,0.00152409,0.00058964,-0.00039237,-0.0015774
 1,-0.00116586,-0.00014298,-0.00097626,-0.00253615,0.00059730,0.0021305
 4,0.00095889,-0.00049819,-0.00174286,0.00030094,0.00033339,0.00073802,
 -0.00190535,0.00022620,0.00408409,0.00097852,-0.00094957,0.00028408,0.
 00087303,0.00014319,-0.00018300,-0.00026376,0.00017029,-0.00022966,0.0
 0071110,0.00009646,-0.00522677,-0.00008162,-0.00163443,0.00295432,0.00
 243625,0.00128104,0.00067475,-0.00149661,0.00138650,-0.00001041,-0.001
 01125,-0.00012336,-0.00127431,0.00015381,-0.00010430,0.00080393,0.0006
 9610,-0.00047305,-0.00479155,-0.00068343,-0.00048339,0.00158711,-0.000
 98700,0.00133067,0.00294943,0.00179345,0.00150504,-0.02679348,-0.02929
 970,0.09298899,0.00112779,-0.00409470,-0.02522317,-0.00683583,0.001641
 14,0.00018559,0.00017720,-0.00005060,0.00004622,-0.00012478,-0.0000064
 7,0.00021243,-0.00085181,0.00006126,0.00154909,0.00617463,0.00318704,-
 0.00401747,0.01545796,-0.04353884,0.00457509,-0.00762817,0.00107270,0.
 00007635,0.00108824,0.00238681,-0.00235207,0.00116739,-0.00323978,0.00
 426889,-0.00004517,0.00000201,0.00003362,0.00030989,0.00003757,-0.0005
 2858,-0.00104560,-0.00136148,0.00280124,0.00006084,-0.00002677,-0.0001
 5470,-0.00001608,-0.00001687,0.00004747,0.00000390,0.00000829,-0.00001
 934,0.00000634,0.00001261,0.00004204,-0.00004047,0.00000256,-0.0000441
 1,0.00000629,-0.00004998,-0.00004721,0.00000302,0.00000870,-0.00001195
 ,-0.00002464,-0.00000792,-0.00001373,0.00000174,0.00012078,-0.00020863
 ,0.00006166,0.00009094,-0.00015368,-0.00010867,-0.00081898,0.00065235,
 -0.00029775,-0.00010567,0.00070198,0.01644742,0.07462468,0.00027620,-0
 .00012717,0.00004547,-0.00008394,-0.00006203,-0.00005146,-0.00026403,-
 0.00038956,0.00009587,0.00031835,0.00026590,-0.00010702,-0.00019509,-0
 .00004531,0.00002889,0.00013519,-0.00024855,0.00001734,0.00120420,0.00
 018524,-0.00024485,-0.00016647,0.00027677,0.00006620,0.00011124,-0.000
 02292,0.00003097,-0.00010857,0.00002211,0.00000933,-0.00131812,-0.0016
 3983,0.00017893,0.00581311,0.00254651,-0.00540145,0.00073532,0.0010871
 9,0.00116441,0.00005361,-0.00040181,-0.00018119,-0.00033415,-0.0001244
 1,-0.00000668,0.00035954,0.00002120,0.00009921,0.00053931,-0.00011758,
 -0.00009014,-0.00022110,0.00052113,0.00020372,0.00043176,0.00066361,-0
 .00019570,0.04199743,0.08839746,-0.25698966,0.00097958,-0.00226058,-0.
 02566088,-0.00397408,-0.00012405,-0.00056661,-0.00029935,-0.00001200,-
 0.00014475,0.00032423,0.00017997,0.00006813,-0.00114717,-0.00032836,0.
 00044926,0.00051156,-0.00177112,0.00129423,-0.00193452,-0.00235493,-0.
 00224171,0.00128438,-0.00073943,0.00076789,0.00011979,0.00004857,-0.00
 012645,-0.00004678,-0.00033567,-0.00121448,-0.00002296,-0.00003110,-0.
 00004097,-0.00026508,0.00068258,0.00103521,0.00183502,-0.00453472,0.00
 339622,-0.00002285,0.00018531,0.00027714,-0.00000783,-0.00002222,0.000
 03558,0.00000543,0.00000655,-0.00000063,-0.00000363,0.00000981,0.00001
 158,0.00000033,0.00000370,-0.00000717,0.00000076,-0.00000806,0.0000071
 7,0.00000127,-0.00000444,-0.00000482,-0.00000512,-0.00000150,0.0000025
 9,0.00006410,0.00001328,-0.00001796,0.00001775,0.00002057,-0.00006366,
 0.00007566,-0.00093127,0.00061006,-0.00023116,-0.00082367,0.00052162,-
 0.04654310,-0.07767516,0.28294121\\0.00000156,-0.00000047,-0.00000377,
 0.00000031,-0.00000023,-0.00000269,-0.00000022,-0.00000122,-0.00000279
 ,0.00000105,-0.00000012,-0.00000417,0.00000007,-0.00000043,-0.00000524
 ,0.00000056,-0.00000162,-0.00000537,0.00000202,0.00000043,-0.00000149,
 -0.00000044,0.00000007,-0.00000087,-0.00000044,-0.00000116,-0.00000236
 ,-0.00000021,-0.00000063,-0.00000391,-0.00000188,-0.00000049,-0.000001
 60,0.00000304,0.00000027,0.00000254,-0.00000024,-0.00000170,0.00000245
 ,-0.00000092,-0.00000134,0.00000081,-0.00000018,-0.00000023,-0.0000033
 3,0.00000068,0.00000027,-0.00000239,-0.00000282,-0.00000087,0.00000024
 ,0.00000093,0.00000027,0.00000002,0.00000152,-0.00000079,0.00000310,-0
 .00001327,0.00003265,0.00001294,-0.00000220,-0.00000584,-0.00000434,-0
 .00000636,0.00000395,0.00000768,0.00000019,-0.00000029,-0.00000129,-0.
 00000030,-0.00000014,0.00000022,0.00000028,-0.00000025,0.00000191,0.00
 000214,0.00000529,0.00000152,0.00001874,-0.00002633,-0.00001013,-0.000
 00545,0.00000449,0.00000528,0.00000060,0.00000255,0.00000085,0.0000035
 5,-0.00000283,0.00000713,0.00000064,0.00000182,0.00000556,0.00000125,0
 .00000263,0.00000475,0.00000086,0.00000386,0.00000213,-0.00000025,0.00
 000060,0.00000348,-0.00000049,-0.00000032,0.00000058,-0.00000007,-0.00
 000058,-0.00000209,0.00000043,-0.00000062,-0.00000419,0.00000055,-0.00
 000102,-0.00000636,0.00000033,-0.00000138,-0.00000665,-0.00000024,-0.0
 0000143,-0.00000502,-0.00000086,-0.00000136,-0.00000241,-0.00000159,-0
 .00000093,0.00000044,-0.00000217,-0.00000100,0.00000323,-0.00000295,-0
 .00000102,0.00000597,-0.00000104,0.00000075,0.00000578,0.00000329,-0.0
 0000324,0.00000382\\\@


 SUCCESS IS NEVER CERTAIN,
 FAILURE IS NEVER FINAL.
 Job cpu time:       1 days  1 hours 30 minutes 24.2 seconds.
 Elapsed time:       0 days  1 hours 16 minutes 44.7 seconds.
 File lengths (MBytes):  RWF=   2281 Int=      0 D2E=      0 Chk=     47 Scr=      1
 Normal termination of Gaussian 16 at Fri Aug 23 17:49:00 2019.
