 Entering Gaussian System, Link 0=/share/apps/gaussian16/g16/g16
 Initial command:
 /share/apps/gaussian16/g16/l1.exe "/home/amen01//scratch/640/Gau-47788.inp" -scrdir="/home/amen01//scratch/640/"
 Entering Link 1 = /share/apps/gaussian16/g16/l1.exe PID=     47789.
  
 Copyright (c) 1988-2017, Gaussian, Inc.  All Rights Reserved.
  
 This is part of the Gaussian(R) 16 program.  It is based on
 the Gaussian(R) 09 system (copyright 2009, Gaussian, Inc.),
 the Gaussian(R) 03 system (copyright 2003, Gaussian, Inc.),
 the Gaussian(R) 98 system (copyright 1998, Gaussian, Inc.),
 the Gaussian(R) 94 system (copyright 1995, Gaussian, Inc.),
 the Gaussian 92(TM) system (copyright 1992, Gaussian, Inc.),
 the Gaussian 90(TM) system (copyright 1990, Gaussian, Inc.),
 the Gaussian 88(TM) system (copyright 1988, Gaussian, Inc.),
 the Gaussian 86(TM) system (copyright 1986, Carnegie Mellon
 University), and the Gaussian 82(TM) system (copyright 1983,
 Carnegie Mellon University). Gaussian is a federally registered
 trademark of Gaussian, Inc.
  
 This software contains proprietary and confidential information,
 including trade secrets, belonging to Gaussian, Inc.
  
 This software is provided under written license and may be
 used, copied, transmitted, or stored only in accord with that
 written license.
  
 The following legend is applicable only to US Government
 contracts under FAR:
  
                    RESTRICTED RIGHTS LEGEND
  
 Use, reproduction and disclosure by the US Government is
 subject to restrictions as set forth in subparagraphs (a)
 and (c) of the Commercial Computer Software - Restricted
 Rights clause in FAR 52.227-19.
  
 Gaussian, Inc.
 340 Quinnipiac St., Bldg. 40, Wallingford CT 06492
  
  
 ---------------------------------------------------------------
 Warning -- This program may not be used in any manner that
 competes with the business of Gaussian, Inc. or will provide
 assistance to any competitor of Gaussian, Inc.  The licensee
 of this program is prohibited from giving any competitor of
 Gaussian, Inc. access to this program.  By using this program,
 the user acknowledges that Gaussian, Inc. is engaged in the
 business of creating and licensing software in the field of
 computational chemistry and represents and warrants to the
 licensee that it is not a competitor of Gaussian, Inc. and that
 it will not use this program in any manner prohibited above.
 ---------------------------------------------------------------
  

 Cite this work as:
 Gaussian 16, Revision B.01,
 M. J. Frisch, G. W. Trucks, H. B. Schlegel, G. E. Scuseria, 
 M. A. Robb, J. R. Cheeseman, G. Scalmani, V. Barone, 
 G. A. Petersson, H. Nakatsuji, X. Li, M. Caricato, A. V. Marenich, 
 J. Bloino, B. G. Janesko, R. Gomperts, B. Mennucci, H. P. Hratchian, 
 J. V. Ortiz, A. F. Izmaylov, J. L. Sonnenberg, D. Williams-Young, 
 F. Ding, F. Lipparini, F. Egidi, J. Goings, B. Peng, A. Petrone, 
 T. Henderson, D. Ranasinghe, V. G. Zakrzewski, J. Gao, N. Rega, 
 G. Zheng, W. Liang, M. Hada, M. Ehara, K. Toyota, R. Fukuda, 
 J. Hasegawa, M. Ishida, T. Nakajima, Y. Honda, O. Kitao, H. Nakai, 
 T. Vreven, K. Throssell, J. A. Montgomery, Jr., J. E. Peralta, 
 F. Ogliaro, M. J. Bearpark, J. J. Heyd, E. N. Brothers, K. N. Kudin, 
 V. N. Staroverov, T. A. Keith, R. Kobayashi, J. Normand, 
 K. Raghavachari, A. P. Rendell, J. C. Burant, S. S. Iyengar, 
 J. Tomasi, M. Cossi, J. M. Millam, M. Klene, C. Adamo, R. Cammi, 
 J. W. Ochterski, R. L. Martin, K. Morokuma, O. Farkas, 
 J. B. Foresman, and D. J. Fox, Gaussian, Inc., Wallingford CT, 2016.
 
 ******************************************
 Gaussian 16:  ES64L-G16RevB.01 20-Dec-2017
                28-Jun-2019 
 ******************************************
 %nprocshared=20
 Will use up to   20 processors via shared memory.
 %mem=100GB
 %chk=7-memb-haddTSguess-1a.chk
 ---------------------------------------------------------------
 # opt=(ts,calcfc,noeigen) freq b3lyp/6-311+g(d,p) int=grid=fine
 ---------------------------------------------------------------
 1/5=1,10=4,11=1,18=20,26=3,38=1/1,3;
 2/9=110,12=2,17=6,18=5,40=1/2;
 3/5=4,6=6,7=111,11=2,25=1,30=1,71=2,74=-5,75=-4,140=1/1,2,3;
 4//1;
 5/5=2,38=5/2;
 8/6=4,10=90,11=11/1;
 11/6=1,8=1,9=11,15=111,16=1/1,2,10;
 10/6=1,13=1/2;
 6/7=2,8=2,9=2,10=2,28=1/1;
 7/10=1,18=20,25=1/1,2,3,16;
 1/5=1,10=4,11=1,18=20,26=3/3(2);
 2/9=110/2;
 99//99;
 2/9=110/2;
 3/5=4,6=6,7=111,11=2,25=1,30=1,71=1,74=-5,75=-4/1,2,3;
 4/5=5,16=3,69=1/1;
 5/5=2,38=5/2;
 7//1,2,3,16;
 1/5=1,11=1,18=20,26=3/3(-5);
 2/9=110/2;
 6/7=2,8=2,9=2,10=2,19=2,28=1/1;
 99/9=1/99;
 ---------------------
 7-memb-haddTSguess-1a
 ---------------------
 Symbolic Z-matrix:
 Charge =  0 Multiplicity = 2
 C                     0.75588  -3.08097  -0.18115 
 C                     0.93537  -1.70809  -0.00258 
 C                     2.21122  -1.18482   0.21377 
 C                     3.38007  -1.91081   0.26634 
 C                     1.95778  -3.88261  -0.1145 
 C                     3.2064   -3.33376   0.10196 
 C                     2.11143   0.2116    0.24685 
 C                     3.26881   0.99877   0.32246 
 C                     4.5133    0.26788   0.45455 
 C                     4.57326  -1.10923   0.42648 
 C                     0.77689   0.61397   0.02873 
 C                     0.60546   1.99475  -0.25659 
 C                     1.77198   2.86781  -0.10915 
 C                     3.05861   2.37572   0.19108 
 C                    -0.56587  -3.46088  -0.46311 
 C                    -1.59606  -2.50752  -0.42295 
 C                    -1.37313  -1.10448  -0.08423 
 C                    -0.03076  -0.66821  -0.03824 
 C                     1.60936   4.268    -0.36411 
 C                    -0.58533   2.57428  -0.7701 
 C                    -0.69832   3.93473  -0.99112 
 C                     0.42555   4.7926   -0.78968 
 C                    -2.93633  -2.93037  -0.74435 
 C                    -3.9993   -2.09895  -0.64102 
 C                    -3.84903  -0.78574  -0.07619 
 C                    -2.54896  -0.30939   0.25694 
 C                    -2.45651   0.87327   1.01975 
 C                    -3.58078   1.6068    1.35571 
 C                    -4.97846  -0.00488   0.24211 
 C                    -4.85062   1.18228   0.93841 
 H                    -5.72961   1.76515   1.18953 
 H                    -3.47498   2.50866   1.9472 
 H                    -1.48918   1.19851   1.37646 
 H                    -5.96045  -0.37075  -0.03939 
 H                    -4.99415  -2.43784  -0.90954 
 H                    -3.07264  -3.952    -1.08305 
 H                    -0.81592  -4.48723  -0.7126 
 H                     1.87427  -4.95611  -0.24992 
 H                     4.07116  -3.98853   0.13189 
 H                     5.5401   -1.59554   0.5059 
 H                     5.43582   0.83051   0.55478 
 H                     3.8824    3.07951   0.2578 
 H                     2.47473   4.91015  -0.23722 
 H                     0.33075   5.85404  -0.98589 
 H                    -1.42629   1.93372  -0.99097 
 H                    -1.5837    4.32261  -1.48033 
 H                    -1.7338    4.49482   0.62906 
 
 Add virtual bond connecting atoms H47        and C21        Dist= 3.78D+00.
 Add virtual bond connecting atoms H47        and H46        Dist= 4.01D+00.

 GradGradGradGradGradGradGradGradGradGradGradGradGradGradGradGradGradGrad
 Berny optimization.
 Initialization pass.
                           ----------------------------
                           !    Initial Parameters    !
                           ! (Angstroms and Degrees)  !
 --------------------------                            --------------------------
 ! Name  Definition              Value          Derivative Info.                !
 --------------------------------------------------------------------------------
 ! R1    R(1,2)                  1.396          calculate D2E/DX2 analytically  !
 ! R2    R(1,5)                  1.4462         calculate D2E/DX2 analytically  !
 ! R3    R(1,15)                 1.4039         calculate D2E/DX2 analytically  !
 ! R4    R(2,3)                  1.3959         calculate D2E/DX2 analytically  !
 ! R5    R(2,18)                 1.4199         calculate D2E/DX2 analytically  !
 ! R6    R(3,4)                  1.377          calculate D2E/DX2 analytically  !
 ! R7    R(3,7)                  1.4004         calculate D2E/DX2 analytically  !
 ! R8    R(4,6)                  1.4429         calculate D2E/DX2 analytically  !
 ! R9    R(4,10)                 1.4463         calculate D2E/DX2 analytically  !
 ! R10   R(5,6)                  1.381          calculate D2E/DX2 analytically  !
 ! R11   R(5,38)                 1.0852         calculate D2E/DX2 analytically  !
 ! R12   R(6,39)                 1.0851         calculate D2E/DX2 analytically  !
 ! R13   R(7,8)                  1.4017         calculate D2E/DX2 analytically  !
 ! R14   R(7,11)                 1.4108         calculate D2E/DX2 analytically  !
 ! R15   R(8,9)                  1.4493         calculate D2E/DX2 analytically  !
 ! R16   R(8,14)                 1.3991         calculate D2E/DX2 analytically  !
 ! R17   R(9,10)                 1.3787         calculate D2E/DX2 analytically  !
 ! R18   R(9,41)                 1.0852         calculate D2E/DX2 analytically  !
 ! R19   R(10,40)                1.0852         calculate D2E/DX2 analytically  !
 ! R20   R(11,12)                1.4203         calculate D2E/DX2 analytically  !
 ! R21   R(11,18)                1.5168         calculate D2E/DX2 analytically  !
 ! R22   R(12,13)                1.4645         calculate D2E/DX2 analytically  !
 ! R23   R(12,20)                1.4204         calculate D2E/DX2 analytically  !
 ! R24   R(13,14)                1.4099         calculate D2E/DX2 analytically  !
 ! R25   R(13,19)                1.4325         calculate D2E/DX2 analytically  !
 ! R26   R(14,42)                1.0855         calculate D2E/DX2 analytically  !
 ! R27   R(15,16)                1.4042         calculate D2E/DX2 analytically  !
 ! R28   R(15,37)                1.0854         calculate D2E/DX2 analytically  !
 ! R29   R(16,17)                1.4605         calculate D2E/DX2 analytically  !
 ! R30   R(16,23)                1.4417         calculate D2E/DX2 analytically  !
 ! R31   R(17,18)                1.4122         calculate D2E/DX2 analytically  !
 ! R32   R(17,26)                1.4598         calculate D2E/DX2 analytically  !
 ! R33   R(19,22)                1.363          calculate D2E/DX2 analytically  !
 ! R34   R(19,43)                1.085          calculate D2E/DX2 analytically  !
 ! R35   R(20,21)                1.3829         calculate D2E/DX2 analytically  !
 ! R36   R(20,45)                1.08           calculate D2E/DX2 analytically  !
 ! R37   R(21,22)                1.4281         calculate D2E/DX2 analytically  !
 ! R38   R(21,46)                1.0834         calculate D2E/DX2 analytically  !
 ! R39   R(21,47)                2.0027         calculate D2E/DX2 analytically  !
 ! R40   R(22,44)                1.0836         calculate D2E/DX2 analytically  !
 ! R41   R(23,24)                1.3535         calculate D2E/DX2 analytically  !
 ! R42   R(23,36)                1.0849         calculate D2E/DX2 analytically  !
 ! R43   R(24,25)                1.4374         calculate D2E/DX2 analytically  !
 ! R44   R(24,35)                1.0847         calculate D2E/DX2 analytically  !
 ! R45   R(25,26)                1.4241         calculate D2E/DX2 analytically  !
 ! R46   R(25,29)                1.4095         calculate D2E/DX2 analytically  !
 ! R47   R(26,27)                1.4104         calculate D2E/DX2 analytically  !
 ! R48   R(27,28)                1.3838         calculate D2E/DX2 analytically  !
 ! R49   R(27,33)                1.0811         calculate D2E/DX2 analytically  !
 ! R50   R(28,30)                1.4024         calculate D2E/DX2 analytically  !
 ! R51   R(28,32)                1.0837         calculate D2E/DX2 analytically  !
 ! R52   R(29,30)                1.3822         calculate D2E/DX2 analytically  !
 ! R53   R(29,34)                1.0851         calculate D2E/DX2 analytically  !
 ! R54   R(30,31)                1.0842         calculate D2E/DX2 analytically  !
 ! R55   R(46,47)                2.1217         calculate D2E/DX2 analytically  !
 ! A1    A(2,1,5)              115.617          calculate D2E/DX2 analytically  !
 ! A2    A(2,1,15)             114.3852         calculate D2E/DX2 analytically  !
 ! A3    A(5,1,15)             129.918          calculate D2E/DX2 analytically  !
 ! A4    A(1,2,3)              120.398          calculate D2E/DX2 analytically  !
 ! A5    A(1,2,18)             129.0155         calculate D2E/DX2 analytically  !
 ! A6    A(3,2,18)             110.5657         calculate D2E/DX2 analytically  !
 ! A7    A(2,3,4)              125.7429         calculate D2E/DX2 analytically  !
 ! A8    A(2,3,7)              108.2007         calculate D2E/DX2 analytically  !
 ! A9    A(4,3,7)              125.8268         calculate D2E/DX2 analytically  !
 ! A10   A(3,4,6)              114.4202         calculate D2E/DX2 analytically  !
 ! A11   A(3,4,10)             114.3506         calculate D2E/DX2 analytically  !
 ! A12   A(6,4,10)             131.1823         calculate D2E/DX2 analytically  !
 ! A13   A(1,5,6)              122.5692         calculate D2E/DX2 analytically  !
 ! A14   A(1,5,38)             118.5939         calculate D2E/DX2 analytically  !
 ! A15   A(6,5,38)             118.834          calculate D2E/DX2 analytically  !
 ! A16   A(4,6,5)              121.2396         calculate D2E/DX2 analytically  !
 ! A17   A(4,6,39)             119.7366         calculate D2E/DX2 analytically  !
 ! A18   A(5,6,39)             119.0163         calculate D2E/DX2 analytically  !
 ! A19   A(3,7,8)              120.1599         calculate D2E/DX2 analytically  !
 ! A20   A(3,7,11)             110.3742         calculate D2E/DX2 analytically  !
 ! A21   A(8,7,11)             128.9911         calculate D2E/DX2 analytically  !
 ! A22   A(7,8,9)              115.5128         calculate D2E/DX2 analytically  !
 ! A23   A(7,8,14)             115.0596         calculate D2E/DX2 analytically  !
 ! A24   A(9,8,14)             129.3392         calculate D2E/DX2 analytically  !
 ! A25   A(8,9,10)             122.6312         calculate D2E/DX2 analytically  !
 ! A26   A(8,9,41)             118.485          calculate D2E/DX2 analytically  !
 ! A27   A(10,9,41)            118.8661         calculate D2E/DX2 analytically  !
 ! A28   A(4,10,9)             121.3283         calculate D2E/DX2 analytically  !
 ! A29   A(4,10,40)            119.6541         calculate D2E/DX2 analytically  !
 ! A30   A(9,10,40)            119.0052         calculate D2E/DX2 analytically  !
 ! A31   A(7,11,12)            114.9914         calculate D2E/DX2 analytically  !
 ! A32   A(7,11,18)            105.6291         calculate D2E/DX2 analytically  !
 ! A33   A(12,11,18)           138.4715         calculate D2E/DX2 analytically  !
 ! A34   A(11,12,13)           117.593          calculate D2E/DX2 analytically  !
 ! A35   A(11,12,20)           124.782          calculate D2E/DX2 analytically  !
 ! A36   A(13,12,20)           117.4476         calculate D2E/DX2 analytically  !
 ! A37   A(12,13,14)           122.7023         calculate D2E/DX2 analytically  !
 ! A38   A(12,13,19)           118.3185         calculate D2E/DX2 analytically  !
 ! A39   A(14,13,19)           118.8599         calculate D2E/DX2 analytically  !
 ! A40   A(8,14,13)            120.041          calculate D2E/DX2 analytically  !
 ! A41   A(8,14,42)            121.2171         calculate D2E/DX2 analytically  !
 ! A42   A(13,14,42)           118.6428         calculate D2E/DX2 analytically  !
 ! A43   A(1,15,16)            120.0832         calculate D2E/DX2 analytically  !
 ! A44   A(1,15,37)            121.2616         calculate D2E/DX2 analytically  !
 ! A45   A(16,15,37)           118.655          calculate D2E/DX2 analytically  !
 ! A46   A(15,16,17)           123.1531         calculate D2E/DX2 analytically  !
 ! A47   A(15,16,23)           118.4589         calculate D2E/DX2 analytically  !
 ! A48   A(17,16,23)           118.3851         calculate D2E/DX2 analytically  !
 ! A49   A(16,17,18)           116.7072         calculate D2E/DX2 analytically  !
 ! A50   A(16,17,26)           117.0313         calculate D2E/DX2 analytically  !
 ! A51   A(18,17,26)           126.1384         calculate D2E/DX2 analytically  !
 ! A52   A(2,18,11)            104.8129         calculate D2E/DX2 analytically  !
 ! A53   A(2,18,17)            114.9194         calculate D2E/DX2 analytically  !
 ! A54   A(11,18,17)           140.2367         calculate D2E/DX2 analytically  !
 ! A55   A(13,19,22)           122.0317         calculate D2E/DX2 analytically  !
 ! A56   A(13,19,43)           117.8478         calculate D2E/DX2 analytically  !
 ! A57   A(22,19,43)           120.0948         calculate D2E/DX2 analytically  !
 ! A58   A(12,20,21)           121.8475         calculate D2E/DX2 analytically  !
 ! A59   A(12,20,45)           118.9963         calculate D2E/DX2 analytically  !
 ! A60   A(21,20,45)           119.1559         calculate D2E/DX2 analytically  !
 ! A61   A(20,21,22)           120.2708         calculate D2E/DX2 analytically  !
 ! A62   A(20,21,46)           119.4176         calculate D2E/DX2 analytically  !
 ! A63   A(20,21,47)           100.8403         calculate D2E/DX2 analytically  !
 ! A64   A(22,21,46)           119.4559         calculate D2E/DX2 analytically  !
 ! A65   A(22,21,47)            97.1679         calculate D2E/DX2 analytically  !
 ! A66   A(19,22,21)           119.7581         calculate D2E/DX2 analytically  !
 ! A67   A(19,22,44)           120.634          calculate D2E/DX2 analytically  !
 ! A68   A(21,22,44)           119.6054         calculate D2E/DX2 analytically  !
 ! A69   A(16,23,24)           122.2038         calculate D2E/DX2 analytically  !
 ! A70   A(16,23,36)           117.5555         calculate D2E/DX2 analytically  !
 ! A71   A(24,23,36)           120.24           calculate D2E/DX2 analytically  !
 ! A72   A(23,24,25)           120.6049         calculate D2E/DX2 analytically  !
 ! A73   A(23,24,35)           120.6286         calculate D2E/DX2 analytically  !
 ! A74   A(25,24,35)           118.5922         calculate D2E/DX2 analytically  !
 ! A75   A(24,25,26)           119.5344         calculate D2E/DX2 analytically  !
 ! A76   A(24,25,29)           120.7372         calculate D2E/DX2 analytically  !
 ! A77   A(26,25,29)           119.5631         calculate D2E/DX2 analytically  !
 ! A78   A(17,26,25)           119.8978         calculate D2E/DX2 analytically  !
 ! A79   A(17,26,27)           122.0263         calculate D2E/DX2 analytically  !
 ! A80   A(25,26,27)           117.8302         calculate D2E/DX2 analytically  !
 ! A81   A(26,27,28)           121.5036         calculate D2E/DX2 analytically  !
 ! A82   A(26,27,33)           119.301          calculate D2E/DX2 analytically  !
 ! A83   A(28,27,33)           119.1679         calculate D2E/DX2 analytically  !
 ! A84   A(27,28,30)           120.194          calculate D2E/DX2 analytically  !
 ! A85   A(27,28,32)           119.6258         calculate D2E/DX2 analytically  !
 ! A86   A(30,28,32)           120.1796         calculate D2E/DX2 analytically  !
 ! A87   A(25,29,30)           121.0286         calculate D2E/DX2 analytically  !
 ! A88   A(25,29,34)           118.6716         calculate D2E/DX2 analytically  !
 ! A89   A(30,29,34)           120.2644         calculate D2E/DX2 analytically  !
 ! A90   A(28,30,29)           119.5793         calculate D2E/DX2 analytically  !
 ! A91   A(28,30,31)           120.1611         calculate D2E/DX2 analytically  !
 ! A92   A(29,30,31)           120.228          calculate D2E/DX2 analytically  !
 ! D1    D(5,1,2,3)              0.4532         calculate D2E/DX2 analytically  !
 ! D2    D(5,1,2,18)           178.6305         calculate D2E/DX2 analytically  !
 ! D3    D(15,1,2,3)          -176.625          calculate D2E/DX2 analytically  !
 ! D4    D(15,1,2,18)            1.5523         calculate D2E/DX2 analytically  !
 ! D5    D(2,1,5,6)             -0.4307         calculate D2E/DX2 analytically  !
 ! D6    D(2,1,5,38)          -179.8087         calculate D2E/DX2 analytically  !
 ! D7    D(15,1,5,6)           176.099          calculate D2E/DX2 analytically  !
 ! D8    D(15,1,5,38)           -3.279          calculate D2E/DX2 analytically  !
 ! D9    D(2,1,15,16)           -5.8817         calculate D2E/DX2 analytically  !
 ! D10   D(2,1,15,37)          174.2626         calculate D2E/DX2 analytically  !
 ! D11   D(5,1,15,16)          177.554          calculate D2E/DX2 analytically  !
 ! D12   D(5,1,15,37)           -2.3018         calculate D2E/DX2 analytically  !
 ! D13   D(1,2,3,4)              0.4141         calculate D2E/DX2 analytically  !
 ! D14   D(1,2,3,7)            175.1569         calculate D2E/DX2 analytically  !
 ! D15   D(18,2,3,4)          -178.0734         calculate D2E/DX2 analytically  !
 ! D16   D(18,2,3,7)            -3.3306         calculate D2E/DX2 analytically  !
 ! D17   D(1,2,18,11)         -172.3362         calculate D2E/DX2 analytically  !
 ! D18   D(1,2,18,17)            9.2742         calculate D2E/DX2 analytically  !
 ! D19   D(3,2,18,11)            5.9847         calculate D2E/DX2 analytically  !
 ! D20   D(3,2,18,17)         -172.405          calculate D2E/DX2 analytically  !
 ! D21   D(2,3,4,6)             -1.2199         calculate D2E/DX2 analytically  !
 ! D22   D(2,3,4,10)           176.5724         calculate D2E/DX2 analytically  !
 ! D23   D(7,3,4,6)           -175.0571         calculate D2E/DX2 analytically  !
 ! D24   D(7,3,4,10)             2.7352         calculate D2E/DX2 analytically  !
 ! D25   D(2,3,7,8)           -173.8481         calculate D2E/DX2 analytically  !
 ! D26   D(2,3,7,11)            -1.0634         calculate D2E/DX2 analytically  !
 ! D27   D(4,3,7,8)              0.8892         calculate D2E/DX2 analytically  !
 ! D28   D(4,3,7,11)           173.6739         calculate D2E/DX2 analytically  !
 ! D29   D(3,4,6,5)              1.1922         calculate D2E/DX2 analytically  !
 ! D30   D(3,4,6,39)          -179.8161         calculate D2E/DX2 analytically  !
 ! D31   D(10,4,6,5)          -176.1351         calculate D2E/DX2 analytically  !
 ! D32   D(10,4,6,39)            2.8566         calculate D2E/DX2 analytically  !
 ! D33   D(3,4,10,9)            -2.9844         calculate D2E/DX2 analytically  !
 ! D34   D(3,4,10,40)          178.3056         calculate D2E/DX2 analytically  !
 ! D35   D(6,4,10,9)           174.3444         calculate D2E/DX2 analytically  !
 ! D36   D(6,4,10,40)           -4.3656         calculate D2E/DX2 analytically  !
 ! D37   D(1,5,6,4)             -0.4216         calculate D2E/DX2 analytically  !
 ! D38   D(1,5,6,39)          -179.4205         calculate D2E/DX2 analytically  !
 ! D39   D(38,5,6,4)           178.9549         calculate D2E/DX2 analytically  !
 ! D40   D(38,5,6,39)           -0.044          calculate D2E/DX2 analytically  !
 ! D41   D(3,7,8,9)             -4.0909         calculate D2E/DX2 analytically  !
 ! D42   D(3,7,8,14)           172.8149         calculate D2E/DX2 analytically  !
 ! D43   D(11,7,8,9)          -175.3779         calculate D2E/DX2 analytically  !
 ! D44   D(11,7,8,14)            1.5278         calculate D2E/DX2 analytically  !
 ! D45   D(3,7,11,12)         -166.4954         calculate D2E/DX2 analytically  !
 ! D46   D(3,7,11,18)            4.6458         calculate D2E/DX2 analytically  !
 ! D47   D(8,7,11,12)            5.4731         calculate D2E/DX2 analytically  !
 ! D48   D(8,7,11,18)          176.6143         calculate D2E/DX2 analytically  !
 ! D49   D(7,8,9,10)             3.8178         calculate D2E/DX2 analytically  !
 ! D50   D(7,8,9,41)          -177.7337         calculate D2E/DX2 analytically  !
 ! D51   D(14,8,9,10)         -172.5574         calculate D2E/DX2 analytically  !
 ! D52   D(14,8,9,41)            5.8912         calculate D2E/DX2 analytically  !
 ! D53   D(7,8,14,13)           -5.1363         calculate D2E/DX2 analytically  !
 ! D54   D(7,8,14,42)          178.5322         calculate D2E/DX2 analytically  !
 ! D55   D(9,8,14,13)          171.2523         calculate D2E/DX2 analytically  !
 ! D56   D(9,8,14,42)           -5.0791         calculate D2E/DX2 analytically  !
 ! D57   D(8,9,10,4)            -0.2331         calculate D2E/DX2 analytically  !
 ! D58   D(8,9,10,40)          178.4851         calculate D2E/DX2 analytically  !
 ! D59   D(41,9,10,4)         -178.676          calculate D2E/DX2 analytically  !
 ! D60   D(41,9,10,40)           0.0422         calculate D2E/DX2 analytically  !
 ! D61   D(7,11,12,13)          -8.3896         calculate D2E/DX2 analytically  !
 ! D62   D(7,11,12,20)         166.6317         calculate D2E/DX2 analytically  !
 ! D63   D(18,11,12,13)       -175.4637         calculate D2E/DX2 analytically  !
 ! D64   D(18,11,12,20)         -0.4424         calculate D2E/DX2 analytically  !
 ! D65   D(7,11,18,2)           -6.3697         calculate D2E/DX2 analytically  !
 ! D66   D(7,11,18,17)         171.3468         calculate D2E/DX2 analytically  !
 ! D67   D(12,11,18,2)         161.4768         calculate D2E/DX2 analytically  !
 ! D68   D(12,11,18,17)        -20.8067         calculate D2E/DX2 analytically  !
 ! D69   D(11,12,13,14)          5.3864         calculate D2E/DX2 analytically  !
 ! D70   D(11,12,13,19)       -178.6335         calculate D2E/DX2 analytically  !
 ! D71   D(20,12,13,14)       -170.0066         calculate D2E/DX2 analytically  !
 ! D72   D(20,12,13,19)          5.9735         calculate D2E/DX2 analytically  !
 ! D73   D(11,12,20,21)        178.1612         calculate D2E/DX2 analytically  !
 ! D74   D(11,12,20,45)         -1.6566         calculate D2E/DX2 analytically  !
 ! D75   D(13,12,20,21)         -6.8109         calculate D2E/DX2 analytically  !
 ! D76   D(13,12,20,45)        173.3713         calculate D2E/DX2 analytically  !
 ! D77   D(12,13,14,8)           1.8616         calculate D2E/DX2 analytically  !
 ! D78   D(12,13,14,42)        178.2869         calculate D2E/DX2 analytically  !
 ! D79   D(19,13,14,8)        -174.0977         calculate D2E/DX2 analytically  !
 ! D80   D(19,13,14,42)          2.3276         calculate D2E/DX2 analytically  !
 ! D81   D(12,13,19,22)         -2.7979         calculate D2E/DX2 analytically  !
 ! D82   D(12,13,19,43)        179.0442         calculate D2E/DX2 analytically  !
 ! D83   D(14,13,19,22)        173.3399         calculate D2E/DX2 analytically  !
 ! D84   D(14,13,19,43)         -4.8179         calculate D2E/DX2 analytically  !
 ! D85   D(1,15,16,17)          -0.5727         calculate D2E/DX2 analytically  !
 ! D86   D(1,15,16,23)         178.7893         calculate D2E/DX2 analytically  !
 ! D87   D(37,15,16,17)        179.2867         calculate D2E/DX2 analytically  !
 ! D88   D(37,15,16,23)         -1.3512         calculate D2E/DX2 analytically  !
 ! D89   D(15,16,17,18)         11.6593         calculate D2E/DX2 analytically  !
 ! D90   D(15,16,17,26)       -164.557          calculate D2E/DX2 analytically  !
 ! D91   D(23,16,17,18)       -167.7032         calculate D2E/DX2 analytically  !
 ! D92   D(23,16,17,26)         16.0806         calculate D2E/DX2 analytically  !
 ! D93   D(15,16,23,24)        175.3667         calculate D2E/DX2 analytically  !
 ! D94   D(15,16,23,36)         -4.9471         calculate D2E/DX2 analytically  !
 ! D95   D(17,16,23,24)         -5.2404         calculate D2E/DX2 analytically  !
 ! D96   D(17,16,23,36)        174.4458         calculate D2E/DX2 analytically  !
 ! D97   D(16,17,18,2)         -14.8059         calculate D2E/DX2 analytically  !
 ! D98   D(16,17,18,11)        167.6284         calculate D2E/DX2 analytically  !
 ! D99   D(26,17,18,2)         161.02           calculate D2E/DX2 analytically  !
 ! D100  D(26,17,18,11)        -16.5456         calculate D2E/DX2 analytically  !
 ! D101  D(16,17,26,25)        -16.2181         calculate D2E/DX2 analytically  !
 ! D102  D(16,17,26,27)        157.9629         calculate D2E/DX2 analytically  !
 ! D103  D(18,17,26,25)        167.968          calculate D2E/DX2 analytically  !
 ! D104  D(18,17,26,27)        -17.851          calculate D2E/DX2 analytically  !
 ! D105  D(13,19,22,21)          0.0865         calculate D2E/DX2 analytically  !
 ! D106  D(13,19,22,44)       -179.3402         calculate D2E/DX2 analytically  !
 ! D107  D(43,19,22,21)        178.2038         calculate D2E/DX2 analytically  !
 ! D108  D(43,19,22,44)         -1.2229         calculate D2E/DX2 analytically  !
 ! D109  D(12,20,21,22)          4.2361         calculate D2E/DX2 analytically  !
 ! D110  D(12,20,21,46)        173.5899         calculate D2E/DX2 analytically  !
 ! D111  D(12,20,21,47)       -100.7667         calculate D2E/DX2 analytically  !
 ! D112  D(45,20,21,22)       -175.9463         calculate D2E/DX2 analytically  !
 ! D113  D(45,20,21,46)         -6.5926         calculate D2E/DX2 analytically  !
 ! D114  D(45,20,21,47)         79.0508         calculate D2E/DX2 analytically  !
 ! D115  D(20,21,22,19)         -0.7007         calculate D2E/DX2 analytically  !
 ! D116  D(20,21,22,44)        178.732          calculate D2E/DX2 analytically  !
 ! D117  D(46,21,22,19)       -170.0504         calculate D2E/DX2 analytically  !
 ! D118  D(46,21,22,44)          9.3823         calculate D2E/DX2 analytically  !
 ! D119  D(47,21,22,19)        106.3298         calculate D2E/DX2 analytically  !
 ! D120  D(47,21,22,44)        -74.2375         calculate D2E/DX2 analytically  !
 ! D121  D(16,23,24,25)         -6.1606         calculate D2E/DX2 analytically  !
 ! D122  D(16,23,24,35)        178.705          calculate D2E/DX2 analytically  !
 ! D123  D(36,23,24,25)        174.1615         calculate D2E/DX2 analytically  !
 ! D124  D(36,23,24,35)         -0.973          calculate D2E/DX2 analytically  !
 ! D125  D(23,24,25,26)          6.1116         calculate D2E/DX2 analytically  !
 ! D126  D(23,24,25,29)       -169.1955         calculate D2E/DX2 analytically  !
 ! D127  D(35,24,25,26)       -178.6564         calculate D2E/DX2 analytically  !
 ! D128  D(35,24,25,29)          6.0365         calculate D2E/DX2 analytically  !
 ! D129  D(24,25,26,17)          5.3972         calculate D2E/DX2 analytically  !
 ! D130  D(24,25,26,27)       -169.025          calculate D2E/DX2 analytically  !
 ! D131  D(29,25,26,17)       -179.24           calculate D2E/DX2 analytically  !
 ! D132  D(29,25,26,27)          6.3378         calculate D2E/DX2 analytically  !
 ! D133  D(24,25,29,30)        171.7102         calculate D2E/DX2 analytically  !
 ! D134  D(24,25,29,34)         -6.1281         calculate D2E/DX2 analytically  !
 ! D135  D(26,25,29,30)         -3.5956         calculate D2E/DX2 analytically  !
 ! D136  D(26,25,29,34)        178.5661         calculate D2E/DX2 analytically  !
 ! D137  D(17,26,27,28)       -178.913          calculate D2E/DX2 analytically  !
 ! D138  D(17,26,27,33)         -0.8322         calculate D2E/DX2 analytically  !
 ! D139  D(25,26,27,28)         -4.6169         calculate D2E/DX2 analytically  !
 ! D140  D(25,26,27,33)        173.4638         calculate D2E/DX2 analytically  !
 ! D141  D(26,27,28,30)          0.0027         calculate D2E/DX2 analytically  !
 ! D142  D(26,27,28,32)        179.7092         calculate D2E/DX2 analytically  !
 ! D143  D(33,27,28,30)       -178.0806         calculate D2E/DX2 analytically  !
 ! D144  D(33,27,28,32)          1.626          calculate D2E/DX2 analytically  !
 ! D145  D(27,28,30,29)          2.9399         calculate D2E/DX2 analytically  !
 ! D146  D(27,28,30,31)       -179.1012         calculate D2E/DX2 analytically  !
 ! D147  D(32,28,30,29)       -176.765          calculate D2E/DX2 analytically  !
 ! D148  D(32,28,30,31)          1.1939         calculate D2E/DX2 analytically  !
 ! D149  D(25,29,30,28)         -1.1103         calculate D2E/DX2 analytically  !
 ! D150  D(25,29,30,31)       -179.0678         calculate D2E/DX2 analytically  !
 ! D151  D(34,29,30,28)        176.6938         calculate D2E/DX2 analytically  !
 ! D152  D(34,29,30,31)         -1.2637         calculate D2E/DX2 analytically  !
 --------------------------------------------------------------------------------
 Trust Radius=3.00D-01 FncErr=1.00D-07 GrdErr=1.00D-06 EigMax=2.50D+02 EigMin=1.00D-04
 Number of steps in this run=    282 maximum allowed number of steps=    282.
 Search for a saddle point of order  1.
 GradGradGradGradGradGradGradGradGradGradGradGradGradGradGradGradGradGrad

                          Input orientation:                          
 ---------------------------------------------------------------------
 Center     Atomic      Atomic             Coordinates (Angstroms)
 Number     Number       Type             X           Y           Z
 ---------------------------------------------------------------------
      1          6           0        0.755882   -3.080971   -0.181154
      2          6           0        0.935373   -1.708089   -0.002579
      3          6           0        2.211219   -1.184816    0.213765
      4          6           0        3.380073   -1.910805    0.266343
      5          6           0        1.957780   -3.882612   -0.114495
      6          6           0        3.206401   -3.333760    0.101963
      7          6           0        2.111428    0.211597    0.246846
      8          6           0        3.268813    0.998768    0.322457
      9          6           0        4.513295    0.267877    0.454545
     10          6           0        4.573264   -1.109235    0.426475
     11          6           0        0.776889    0.613970    0.028734
     12          6           0        0.605462    1.994746   -0.256593
     13          6           0        1.771976    2.867806   -0.109145
     14          6           0        3.058608    2.375718    0.191078
     15          6           0       -0.565866   -3.460879   -0.463112
     16          6           0       -1.596063   -2.507515   -0.422951
     17          6           0       -1.373126   -1.104485   -0.084231
     18          6           0       -0.030763   -0.668209   -0.038241
     19          6           0        1.609356    4.268001   -0.364106
     20          6           0       -0.585330    2.574281   -0.770099
     21          6           0       -0.698324    3.934729   -0.991120
     22          6           0        0.425547    4.792597   -0.789676
     23          6           0       -2.936327   -2.930373   -0.744347
     24          6           0       -3.999296   -2.098949   -0.641022
     25          6           0       -3.849028   -0.785741   -0.076192
     26          6           0       -2.548961   -0.309392    0.256935
     27          6           0       -2.456505    0.873268    1.019747
     28          6           0       -3.580778    1.606801    1.355710
     29          6           0       -4.978463   -0.004880    0.242106
     30          6           0       -4.850619    1.182275    0.938407
     31          1           0       -5.729614    1.765147    1.189525
     32          1           0       -3.474982    2.508664    1.947199
     33          1           0       -1.489182    1.198512    1.376462
     34          1           0       -5.960451   -0.370754   -0.039385
     35          1           0       -4.994147   -2.437844   -0.909541
     36          1           0       -3.072639   -3.952003   -1.083051
     37          1           0       -0.815922   -4.487230   -0.712599
     38          1           0        1.874269   -4.956109   -0.249922
     39          1           0        4.071165   -3.988532    0.131886
     40          1           0        5.540100   -1.595542    0.505904
     41          1           0        5.435821    0.830506    0.554781
     42          1           0        3.882399    3.079506    0.257803
     43          1           0        2.474733    4.910151   -0.237223
     44          1           0        0.330745    5.854039   -0.985886
     45          1           0       -1.426289    1.933724   -0.990965
     46          1           0       -1.583697    4.322615   -1.480329
     47          1           0       -1.733801    4.494818    0.629060
 ---------------------------------------------------------------------
                    Distance matrix (angstroms):
                    1          2          3          4          5
     1  C    0.000000
     2  C    1.396034   0.000000
     3  C    2.422678   1.395852   0.000000
     4  C    2.907907   2.467787   1.376969   0.000000
     5  C    1.446247   2.405492   2.729485   2.460890   0.000000
     6  C    2.479738   2.794871   2.370833   1.442908   1.380995
     7  C    3.586320   2.265063   1.400365   2.472737   4.112994
     8  C    4.817958   3.588546   2.428654   2.912240   5.073224
     9  C    5.073169   4.112776   2.732736   2.462979   4.907242
    10  C    4.339281   3.711733   2.372807   1.446327   3.850328
    11  C    3.700957   2.327672   2.308066   3.634214   4.651265
    12  C    5.078506   3.726171   3.592952   4.819259   6.032602
    13  C    6.035361   4.652964   4.089126   5.055897   6.752977
    14  C    5.934354   4.606855   3.660053   4.299219   6.361752
    15  C    1.403869   2.353313   3.653878   4.301775   2.582282
    16  C    2.432892   2.687743   4.080482   5.058964   3.823066
    17  C    2.906642   2.387503   3.597608   4.833834   4.337492
    18  C    2.541782   1.419874   2.314492   3.642886   3.780543
    19  C    7.400627   6.024832   5.516284   6.458370   8.161875
    20  C    5.841882   4.608722   4.787430   6.075741   6.970559
    21  C    7.210465   5.957145   6.010568   7.237735   8.302661
    22  C    7.903954   6.567980   6.318622   7.401351   8.835319
    23  C    3.737950   4.127258   5.519255   6.477494   5.025511
    24  C    4.877250   4.991126   6.335361   7.437325   6.240628
    25  C    5.146289   4.873052   6.080290   7.324138   6.581117
    26  C    4.335385   3.763547   4.840201   6.141503   5.763382
    27  C    5.234272   4.383308   5.164588   6.510324   6.587170
    28  C    6.568392   5.764466   6.530267   7.874879   7.935413
    29  C    6.521058   6.159078   7.285917   8.573113   7.954586
    30  C    7.131727   6.535852   7.483167   8.818339   8.550788
    31  H    8.211290   7.609634   8.527087   9.866675   9.627756
    32  H    7.326262   6.405769   6.998533   8.327590   8.637933
    33  H    5.077446   4.028468   4.552481   5.883015   6.318411
    34  H    7.243929   7.024401   8.216019   9.471569   8.662400
    35  H    5.831552   6.042709   7.399270   8.472782   7.144840
    36  H    4.028609   4.718764   6.103950   6.901076   5.123283
    37  H    2.174986   3.360772   4.574677   5.020226   2.901157
    38  H    2.184413   3.390035   3.814602   3.436255   1.085224
    39  H    3.451487   3.879651   3.365550   2.193772   2.130333
    40  H    5.056411   4.634084   3.366822   2.196018   4.295183
    41  H    6.143540   5.197033   3.817836   3.438616   5.895607
    42  H    6.922374   5.627951   4.580308   5.015537   7.232831
    43  H    8.174082   6.798955   6.117308   6.899178   8.808801
    44  H    8.981244   7.649722   7.383822   8.435596   9.910042
    45  H    5.528547   4.451646   4.940459   6.281906   6.786007
    46  H    7.872393   6.700660   6.899503   8.157536   9.040648
    47  H    8.015457   6.782294   6.927763   8.204589   9.184878
                    6          7          8          9         10
     6  C    0.000000
     7  C    3.713423   0.000000
     8  C    4.338584   1.401747   0.000000
     9  C    3.847606   2.411487   1.449270   0.000000
    10  C    2.630995   2.799554   2.481147   1.378703   0.000000
    11  C    4.635996   1.410841   2.538509   3.776483   4.188090
    12  C    5.940238   2.387678   2.901846   4.331161   5.083771
    13  C    6.368796   2.701371   2.433126   3.819975   4.893972
    14  C    5.712086   2.362981   1.399085   2.574592   3.807163
    15  C    3.816473   4.599894   5.933830   6.367385   5.721211
    16  C    4.901212   4.646255   6.042903   6.767352   6.382578
    17  C    5.096705   3.739492   5.112403   6.068246   5.968283
    18  C    4.195718   2.333306   3.714312   4.665572   4.648390
    19  C    7.781680   4.132766   3.730020   5.010394   6.190673
    20  C    7.074084   3.726789   4.304688   5.728458   6.450672
    21  C    8.323019   4.825866   5.107203   6.534273   7.432415
    22  C    8.635152   4.990204   4.869717   6.223412   7.315340
    23  C    6.213861   6.027791   7.421589   8.195304   7.815454
    24  C    7.348391   6.593018   7.959243   8.903164   8.695279
    25  C    7.503547   6.051948   7.348949   8.445131   8.443478
    26  C    6.503461   4.689430   5.963394   7.088565   7.169001
    27  C    7.114065   4.679871   5.768989   7.018836   7.328024
    28  C    8.488040   5.964678   6.953719   8.253413   8.644578
    29  C    8.837029   7.093197   8.308509   9.498052   9.617124
    30  C    9.274146   7.063326   8.144829   9.420888   9.711986
    31  H   10.345724   8.048857   9.072532  10.377822  10.723507
    32  H    9.065302   6.275005   7.099179   8.429811   8.954108
    33  H    6.649386   3.900567   4.877432   6.143756   6.556022
    34  H    9.634862   8.097919   9.337335  10.504817  10.569841
    35  H    8.311125   7.671112   9.033528   9.978633   9.751179
    36  H    6.419722   6.780763   8.166982   8.815780   8.295772
    37  H    4.262990   5.618620   6.917556   7.236976   6.461553
    38  H    2.128477   5.196942   6.142714   5.894978   4.747686
    39  H    1.085098   4.636256   5.055022   4.291457   2.937556
    40  H    2.937809   3.884412   3.452947   2.128214   1.085161
    41  H    4.745152   3.395506   2.185912   1.085197   2.126749
    42  H    6.450677   3.370662   2.170285   2.888251   4.248682
    43  H    8.283263   4.737375   4.030226   5.117127   6.409160
    44  H    9.688574   6.043808   5.823887   7.125572   8.275320
    45  H    7.099486   4.124723   4.964192   6.335866   6.874836
    46  H    9.168902   5.791161   6.151817   7.573503   8.429061
    47  H    9.272004   5.768696   6.110852   7.544779   8.439521
                   11         12         13         14         15
    11  C    0.000000
    12  C    1.420331   0.000000
    13  C    2.467587   1.464490   0.000000
    14  C    2.887274   2.522593   1.409860   0.000000
    15  C    4.318483   5.583771   6.755964   6.901496   0.000000
    16  C    3.946972   5.014453   6.351082   6.774139   1.404216
    17  C    2.754707   3.680999   5.066694   5.641620   2.519486
    18  C    1.516829   2.746596   3.969672   4.343074   2.875040
    19  C    3.768191   2.487378   1.432479   2.447304   8.029756
    20  C    2.517259   1.420400   2.465747   3.773801   6.042994
    21  C    3.774095   2.450086   2.831711   4.235876   7.415616
    22  C    4.272489   2.853860   2.445570   3.706237   8.319219
    23  C    5.191146   6.085965   7.496031   8.060327   2.445325
    24  C    5.533574   6.173323   7.632767   8.398157   3.697965
    25  C    4.834181   5.254154   6.704116   7.601427   4.252672
    26  C    3.459184   3.939943   5.375788   6.217635   3.792493
    27  C    3.391781   3.501771   4.809639   5.775857   4.955625
    28  C    4.662171   4.502736   5.691038   6.784471   6.170834
    29  C    5.792459   5.952094   7.344667   8.382384   5.649095
    30  C    5.728815   5.644196   6.913548   8.033597   6.471649
    31  H    6.708742   6.502089   7.692610   8.865807   7.530395
    32  H    5.034757   4.665923   5.646955   6.766789   7.064559
    33  H    2.700581   2.772795   3.953318   4.844930   5.093768
    34  H    6.809264   6.982405   8.383529   9.430782   6.231369
    35  H    6.595361   7.171458   8.635449   9.446089   4.566790
    36  H    6.074787   7.040972   8.421911   8.902564   2.628581
    37  H    5.395263   6.651638   7.820353   7.932759   1.085435
    38  H    5.683984   7.065713   7.825850   7.439948   2.869742
    39  H    5.660912   6.925433   7.235588   6.444568   4.704731
    40  H    5.272363   6.149977   5.873544   4.693381   6.457654
    41  H    4.693534   5.034496   4.244426   2.858514   7.447975
    42  H    3.971842   3.489932   2.152522   1.085542   7.942507
    43  H    4.627157   3.463255   2.163665   2.635849   8.909007
    44  H    5.356008   3.937192   3.429783   4.574407   9.372561
    45  H    2.763246   2.161258   3.446595   4.659065   5.488233
    46  H    4.647976   3.421830   3.906041   5.304244   7.915396
    47  H    4.661002   3.536509   3.934792   5.258288   8.114803
                   16         17         18         19         20
    16  C    0.000000
    17  C    1.460454   0.000000
    18  C    2.445652   1.412229   0.000000
    19  C    7.495718   6.151190   5.211751   0.000000
    20  C    5.192951   3.824181   3.370000   2.801814   0.000000
    21  C    6.529262   5.164444   4.747700   2.414457   1.382909
    22  C    7.583735   6.205518   5.531119   1.362980   2.437864
    23  C    1.441670   2.492633   3.749436   8.521995   5.985739
    24  C    2.447450   2.862821   4.261410   8.489506   5.788860
    25  C    2.856676   2.496348   3.820262   7.444270   4.735291
    26  C    2.490382   1.459848   2.560703   6.215289   3.636786
    27  C    3.775107   2.510774   3.062632   5.474531   3.098111
    28  C    4.902074   3.781300   4.440876   6.080892   3.798393
    29  C    4.259825   3.783396   4.999834   7.875555   5.193866
    30  C    5.104898   4.285792   5.254440   7.276642   4.800975
    31  H    6.159705   5.369938   6.317083   7.908131   5.564035
    32  H    5.857474   4.647510   5.088923   5.855586   3.967128
    33  H    4.121158   2.729632   2.759170   4.695985   2.705072
    34  H    4.874500   4.645850   5.937144   8.884001   6.172447
    35  H    3.433453   3.945982   5.340969   9.427200   6.676714
    36  H    2.168537   3.463285   4.596514   9.487172   6.991211
    37  H    2.147507   3.485439   3.956786   9.091617   7.065509
    38  H    4.250736   5.040638   4.696812   9.228620   7.938954
    39  H    5.883768   6.164798   5.280085   8.629997   8.097348
    40  H    7.253915   6.955724   5.673672   7.112581   7.519076
    41  H    7.845109   7.107340   5.699242   5.225185   6.407052
    42  H    7.854411   6.726315   5.426403   2.639321   4.612205
    43  H    8.463312   7.141798   6.118432   1.085050   3.886416
    44  H    8.599132   7.220610   6.600639   2.130017   3.412121
    45  H    4.480632   3.171073   3.102456   3.880328   1.079957
    46  H    6.911503   5.607749   5.422135   3.382976   2.134909
    47  H    7.082257   5.656064   5.477452   3.494928   2.639146
                   21         22         23         24         25
    21  C    0.000000
    22  C    1.428147   0.000000
    23  C    7.224900   8.423094   0.000000
    24  C    6.886527   8.191138   1.353457   0.000000
    25  C    5.748640   7.063916   2.424644   1.437403   0.000000
    26  C    4.795317   5.997782   2.832342   2.472309   1.424098
    27  C    4.062921   5.190508   4.220183   3.737972   2.427450
    28  C    4.385818   5.550011   5.040982   4.230210   2.801171
    29  C    5.946508   7.299567   3.701610   2.474633   1.409497
    30  C    5.342343   6.622584   4.838393   3.739756   2.430161
    31  H    5.897133   7.139236   5.795707   4.612607   3.412576
    32  H    4.286865   5.284029   6.092429   5.310734   3.884215
    33  H    3.703753   4.612568   4.862073   4.609139   3.408275
    34  H    6.865345   8.246460   4.024170   2.682304   2.152133
    35  H    7.685729   9.036965   2.122380   1.084749   2.176054
    36  H    8.236890   9.422919   1.084910   2.118465   3.412002
    37  H    8.427384   9.362819   2.630766   3.980311   4.827605
    38  H    9.285182   9.870532   5.243081   6.543324   7.083663
    39  H    9.315967   9.552384   7.140898   8.324677   8.545796
    40  H    8.470119   8.285258   8.671489   9.621275   9.441946
    41  H    7.046541   6.527524   9.269563   9.951537   9.445571
    42  H    4.824338   3.997714   9.144286   9.473405   8.650240
    43  H    3.404130   2.125603   9.539946   9.550057   8.512289
    44  H    2.177788   1.083580   9.375393   9.061910   7.898400
    45  H    2.129308   3.412179   5.099066   4.796382   3.755258
    46  H    1.083359   2.175993   7.414655   6.912021   5.761825
    47  H    2.002722   2.600821   7.646292   7.086843   5.732004
                   26         27         28         29         30
    26  C    0.000000
    27  C    1.410360   0.000000
    28  C    2.437980   1.383811   0.000000
    29  C    2.448556   2.781392   2.406481   0.000000
    30  C    2.826147   2.415343   1.402448   1.382214   0.000000
    31  H    3.910242   3.396692   2.161062   2.143555   1.084174
    32  H    3.414081   2.138220   1.083701   3.389056   2.160867
    33  H    2.156443   1.081084   2.131174   3.861347   3.389899
    34  H    3.424885   3.866134   3.394092   1.085081   2.144692
    35  H    3.445273   4.596220   4.846455   2.691812   4.067035
    36  H    3.916429   5.299493   6.091475   4.579081   5.797268
    37  H    4.625770   5.867493   7.004252   6.191096   7.151775
    38  H    6.435359   7.372198   8.683742   8.468571   9.182375
    39  H    7.574812   8.187544   9.558124   9.888245  10.343401
    40  H    8.194454   8.384793   9.703998  10.641427  10.764310
    41  H    8.071234   7.906126   9.085328  10.452413  10.299600
    42  H    7.269596   6.754980   7.685914   9.382354   8.962606
    43  H    7.261220   6.495653   7.079461   8.940773   8.303008
    44  H    6.915576   6.049744   6.230739   8.001411   7.237045
    45  H    2.801645   2.495771   3.202434   4.230436   4.001648
    46  H    5.040368   4.348582   4.405349   5.763543   5.136614
    47  H    4.887064   3.713565   3.504281   5.561011   4.558859
                   31         32         33         34         35
    31  H    0.000000
    32  H    2.492038   0.000000
    33  H    4.282206   2.446557   0.000000
    34  H    2.474991   4.291284   4.945651   0.000000
    35  H    4.755221   5.910733   5.543796   2.442084   0.000000
    36  H    6.701487   7.147343   5.923204   4.717419   2.452545
    37  H    8.176470   7.942774   6.094679   6.623048   4.657932
    38  H   10.250187   9.442704   7.199812   9.080344   7.345195
    39  H   11.413969  10.121919   7.705313  10.665410   9.255760
    40  H   11.779984  10.009672   7.614159  11.578433  10.662238
    41  H   11.222450   9.173737   6.983284  11.474802  11.027719
    42  H    9.746099   7.570401   5.800295  10.434285  10.516507
    43  H    8.901571   6.777754   5.665057   9.953865  10.499010
    44  H    7.627542   5.854748   5.528721   8.900734   9.854726
    45  H    4.827169   3.627741   2.479759   5.174432   5.643301
    46  H    5.554943   4.314548   4.234408   6.577234   7.593469
    47  H    4.871524   2.951950   3.388817   6.479597   7.814023
                   36         37         38         39         40
    36  H    0.000000
    37  H    2.348718   0.000000
    38  H    5.116076   2.769665   0.000000
    39  H    7.246471   4.984523   2.430707   0.000000
    40  H    9.069562   7.088415   5.030209   2.832677   0.000000
    41  H    9.896907   8.304749   6.842303   5.026356   2.428780
    42  H    9.980609   8.959430   8.298282   7.071679   4.966447
    43  H   10.489353   9.968208   9.884523   9.048281   7.229990
    44  H   10.380314  10.408236  10.944561  10.588501   9.211899
    45  H    6.112342   6.455903   7.675456   8.158181   7.951535
    46  H    8.416893   8.876500   9.978284  10.180956   9.471969
    47  H    8.721961   9.127965  10.154349  10.291358   9.487744
                   41         42         43         44         45
    41  H    0.000000
    42  H    2.749421   0.000000
    43  H    5.102824   2.361744   0.000000
    44  H    7.326073   4.675365   2.459290   0.000000
    45  H    7.120040   5.572648   4.964395   4.296052   0.000000
    46  H    8.100008   5.868955   4.285016   2.500964   2.443574
    47  H    8.052092   5.803675   4.316794   2.952606   3.046022
                   46         47
    46  H    0.000000
    47  H    2.121723   0.000000
 Stoichiometry    C30H17(2)
 Framework group  C1[X(C30H17)]
 Deg. of freedom   135
 Full point group                 C1      NOp   1
 Largest Abelian subgroup         C1      NOp   1
 Largest concise Abelian subgroup C1      NOp   1
                         Standard orientation:                         
 ---------------------------------------------------------------------
 Center     Atomic      Atomic             Coordinates (Angstroms)
 Number     Number       Type             X           Y           Z
 ---------------------------------------------------------------------
      1          6           0        0.755882   -3.080971   -0.181154
      2          6           0        0.935373   -1.708089   -0.002579
      3          6           0        2.211219   -1.184816    0.213765
      4          6           0        3.380073   -1.910805    0.266343
      5          6           0        1.957780   -3.882612   -0.114495
      6          6           0        3.206401   -3.333760    0.101963
      7          6           0        2.111428    0.211597    0.246846
      8          6           0        3.268813    0.998768    0.322457
      9          6           0        4.513295    0.267878    0.454545
     10          6           0        4.573264   -1.109234    0.426475
     11          6           0        0.776889    0.613970    0.028734
     12          6           0        0.605462    1.994746   -0.256593
     13          6           0        1.771976    2.867806   -0.109145
     14          6           0        3.058608    2.375718    0.191078
     15          6           0       -0.565866   -3.460879   -0.463112
     16          6           0       -1.596063   -2.507515   -0.422951
     17          6           0       -1.373126   -1.104485   -0.084231
     18          6           0       -0.030763   -0.668209   -0.038241
     19          6           0        1.609355    4.268001   -0.364106
     20          6           0       -0.585330    2.574281   -0.770099
     21          6           0       -0.698325    3.934729   -0.991120
     22          6           0        0.425546    4.792597   -0.789676
     23          6           0       -2.936327   -2.930373   -0.744347
     24          6           0       -3.999296   -2.098950   -0.641022
     25          6           0       -3.849028   -0.785742   -0.076192
     26          6           0       -2.548961   -0.309392    0.256935
     27          6           0       -2.456505    0.873268    1.019747
     28          6           0       -3.580778    1.606801    1.355710
     29          6           0       -4.978463   -0.004881    0.242106
     30          6           0       -4.850619    1.182274    0.938407
     31          1           0       -5.729614    1.765146    1.189525
     32          1           0       -3.474982    2.508664    1.947199
     33          1           0       -1.489182    1.198512    1.376462
     34          1           0       -5.960451   -0.370755   -0.039385
     35          1           0       -4.994147   -2.437845   -0.909541
     36          1           0       -3.072639   -3.952003   -1.083051
     37          1           0       -0.815921   -4.487230   -0.712599
     38          1           0        1.874270   -4.956109   -0.249922
     39          1           0        4.071165   -3.988532    0.131886
     40          1           0        5.540100   -1.595541    0.505904
     41          1           0        5.435821    0.830507    0.554781
     42          1           0        3.882399    3.079506    0.257803
     43          1           0        2.474732    4.910151   -0.237223
     44          1           0        0.330744    5.854039   -0.985886
     45          1           0       -1.426289    1.933724   -0.990965
     46          1           0       -1.583698    4.322615   -1.480329
     47          1           0       -1.733802    4.494818    0.629060
 ---------------------------------------------------------------------
 Rotational constants (GHZ):           0.2183049           0.1671477           0.0989726
 Standard basis: 6-311+G(d,p) (5D, 7F)
 There are   792 symmetry adapted cartesian basis functions of A   symmetry.
 There are   762 symmetry adapted basis functions of A   symmetry.
   762 basis functions,  1216 primitive gaussians,   792 cartesian basis functions
    99 alpha electrons       98 beta electrons
       nuclear repulsion energy      2601.4376882731 Hartrees.
 NAtoms=   47 NActive=   47 NUniq=   47 SFac= 1.00D+00 NAtFMM=   60 NAOKFM=F Big=F
 Integral buffers will be    131072 words long.
 Raffenetti 2 integral format.
 Two-electron integral symmetry is turned on.
 One-electron integrals computed using PRISM.
 NBasis=   762 RedAO= T EigKep=  1.20D-06  NBF=   762
 NBsUse=   741 1.00D-06 EigRej=  9.83D-07 NBFU=   741
 ExpMin= 4.38D-02 ExpMax= 4.56D+03 ExpMxC= 6.82D+02 IAcc=2 IRadAn=         4 AccDes= 0.00D+00
 Harris functional with IExCor=  402 and IRadAn=       4 diagonalized for initial guess.
 HarFok:  IExCor=  402 AccDes= 0.00D+00 IRadAn=         4 IDoV= 1 UseB2=F ITyADJ=14
 ICtDFT=  3500011 ScaDFX=  1.000000  1.000000  1.000000  1.000000
 FoFCou: FMM=F IPFlag=           0 FMFlag=      100000 FMFlg1=           0
         NFxFlg=           0 DoJE=T BraDBF=F KetDBF=T FulRan=T
         wScrn=  0.000000 ICntrl=       500 IOpCl=  0 I1Cent=   200000004 NGrid=           0
         NMat0=    1 NMatS0=      1 NMatT0=    0 NMatD0=    1 NMtDS0=    0 NMtDT0=    0
 Petite list used in FoFCou.
 Initial guess <Sx>= 0.0000 <Sy>= 0.0000 <Sz>= 0.5000 <S**2>= 0.7500 S= 0.5000
 Requested convergence on RMS density matrix=1.00D-08 within 128 cycles.
 Requested convergence on MAX density matrix=1.00D-06.
 Requested convergence on             energy=1.00D-06.
 No special actions if energy rises.
 Restarting incremental Fock formation.
 SCF Done:  E(UB3LYP) =  -1153.62981326     A.U. after   27 cycles
            NFock= 27  Conv=0.78D-08     -V/T= 2.0045
 <Sx>= 0.0000 <Sy>= 0.0000 <Sz>= 0.5000 <S**2>= 0.7754 S= 0.5126
 <L.S>=  0.00000000000    
 Annihilation of the first spin contaminant:
 S**2 before annihilation     0.7754,   after     0.7503
 DoSCS=F DFT=T ScalE2(SS,OS)=  1.000000  1.000000
 Range of M.O.s used for correlation:     1   741
 NBasis=   762 NAE=    99 NBE=    98 NFC=     0 NFV=     0
 NROrb=    741 NOA=    99 NOB=    98 NVA=   642 NVB=   643

 **** Warning!!: The largest alpha MO coefficient is  0.13004910D+03


 **** Warning!!: The largest beta MO coefficient is  0.14546382D+03


 **** Warning!!: The smallest beta delta epsilon is  0.99585689D-01

 Symmetrizing basis deriv contribution to polar:
 IMax=3 JMax=2 DiffMx= 0.00D+00
 G2DrvN: will do    48 centers at a time, making    1 passes.
 Calling FoFCou, ICntrl=  3107 FMM=F I1Cent=   0 AccDes= 0.00D+00.
 End of G2Drv F.D. properties file   721 does not exist.
 End of G2Drv F.D. properties file   722 does not exist.
 End of G2Drv F.D. properties file   788 does not exist.
          IDoAtm=11111111111111111111111111111111111111111111111
          Differentiating once with respect to nuclear coordinates.
 CalDSu exits because no D1Ps are significant.
          There are   144 degrees of freedom in the 1st order CPHF.  IDoFFX=6 NUNeed=     0.
    138 vectors produced by pass  0 Test12= 1.27D-13 1.00D-09 XBig12= 5.57D-01 1.58D-01.
 AX will form   138 AO Fock derivatives at one time.
    138 vectors produced by pass  1 Test12= 1.27D-13 1.00D-09 XBig12= 1.54D-01 7.72D-02.
    138 vectors produced by pass  2 Test12= 1.27D-13 1.00D-09 XBig12= 1.95D-03 6.50D-03.
    138 vectors produced by pass  3 Test12= 1.27D-13 1.00D-09 XBig12= 1.82D-05 8.60D-04.
    138 vectors produced by pass  4 Test12= 1.27D-13 1.00D-09 XBig12= 1.77D-07 4.74D-05.
    138 vectors produced by pass  5 Test12= 1.27D-13 1.00D-09 XBig12= 9.28D-10 2.23D-06.
    132 vectors produced by pass  6 Test12= 1.27D-13 1.00D-09 XBig12= 5.55D-11 5.47D-07.
    107 vectors produced by pass  7 Test12= 1.27D-13 1.00D-09 XBig12= 7.95D-12 1.38D-07.
     80 vectors produced by pass  8 Test12= 1.27D-13 1.00D-09 XBig12= 8.16D-13 4.03D-08.
     15 vectors produced by pass  9 Test12= 1.27D-13 1.00D-09 XBig12= 8.61D-15 4.19D-09.
      2 vectors produced by pass 10 Test12= 1.27D-13 1.00D-09 XBig12= 6.81D-16 1.35D-09.
      1 vectors produced by pass 11 Test12= 1.27D-13 1.00D-09 XBig12= 9.43D-16 1.37D-09.
 InvSVY:  IOpt=1 It=  1 EMax= 9.99D-16
 Solved reduced A of dimension  1165 with   144 vectors.
 End of Minotr F.D. properties file   721 does not exist.
 End of Minotr F.D. properties file   722 does not exist.
 End of Minotr F.D. properties file   788 does not exist.

 **********************************************************************

            Population analysis using the SCF Density.

 **********************************************************************

 Orbital symmetries:
 Alpha Orbitals:
       Occupied  (A) (A) (A) (A) (A) (A) (A) (A) (A) (A) (A) (A)
                 (A) (A) (A) (A) (A) (A) (A) (A) (A) (A) (A) (A)
                 (A) (A) (A) (A) (A) (A) (A) (A) (A) (A) (A) (A)
                 (A) (A) (A) (A) (A) (A) (A) (A) (A) (A) (A) (A)
                 (A) (A) (A) (A) (A) (A) (A) (A) (A) (A) (A) (A)
                 (A) (A) (A) (A) (A) (A) (A) (A) (A) (A) (A) (A)
                 (A) (A) (A) (A) (A) (A) (A) (A) (A) (A) (A) (A)
                 (A) (A) (A) (A) (A) (A) (A) (A) (A) (A) (A) (A)
                 (A) (A) (A)
       Virtual   (A) (A) (A) (A) (A) (A) (A) (A) (A) (A) (A) (A)
                 (A) (A) (A) (A) (A) (A) (A) (A) (A) (A) (A) (A)
                 (A) (A) (A) (A) (A) (A) (A) (A) (A) (A) (A) (A)
                 (A) (A) (A) (A) (A) (A) (A) (A) (A) (A) (A) (A)
                 (A) (A) (A) (A) (A) (A) (A) (A) (A) (A) (A) (A)
                 (A) (A) (A) (A) (A) (A) (A) (A) (A) (A) (A) (A)
                 (A) (A) (A) (A) (A) (A) (A) (A) (A) (A) (A) (A)
                 (A) (A) (A) (A) (A) (A) (A) (A) (A) (A) (A) (A)
                 (A) (A) (A) (A) (A) (A) (A) (A) (A) (A) (A) (A)
                 (A) (A) (A) (A) (A) (A) (A) (A) (A) (A) (A) (A)
                 (A) (A) (A) (A) (A) (A) (A) (A) (A) (A) (A) (A)
                 (A) (A) (A) (A) (A) (A) (A) (A) (A) (A) (A) (A)
                 (A) (A) (A) (A) (A) (A) (A) (A) (A) (A) (A) (A)
                 (A) (A) (A) (A) (A) (A) (A) (A) (A) (A) (A) (A)
                 (A) (A) (A) (A) (A) (A) (A) (A) (A) (A) (A) (A)
                 (A) (A) (A) (A) (A) (A) (A) (A) (A) (A) (A) (A)
                 (A) (A) (A) (A) (A) (A) (A) (A) (A) (A) (A) (A)
                 (A) (A) (A) (A) (A) (A) (A) (A) (A) (A) (A) (A)
                 (A) (A) (A) (A) (A) (A) (A) (A) (A) (A) (A) (A)
                 (A) (A) (A) (A) (A) (A) (A) (A) (A) (A) (A) (A)
                 (A) (A) (A) (A) (A) (A) (A) (A) (A) (A) (A) (A)
                 (A) (A) (A) (A) (A) (A) (A) (A) (A) (A) (A) (A)
                 (A) (A) (A) (A) (A) (A) (A) (A) (A) (A) (A) (A)
                 (A) (A) (A) (A) (A) (A) (A) (A) (A) (A) (A) (A)
                 (A) (A) (A) (A) (A) (A) (A) (A) (A) (A) (A) (A)
                 (A) (A) (A) (A) (A) (A) (A) (A) (A) (A) (A) (A)
                 (A) (A) (A) (A) (A) (A) (A) (A) (A) (A) (A) (A)
                 (A) (A) (A) (A) (A) (A) (A) (A) (A) (A) (A) (A)
                 (A) (A) (A) (A) (A) (A) (A) (A) (A) (A) (A) (A)
                 (A) (A) (A) (A) (A) (A) (A) (A) (A) (A) (A) (A)
                 (A) (A) (A) (A) (A) (A) (A) (A) (A) (A) (A) (A)
                 (A) (A) (A) (A) (A) (A) (A) (A) (A) (A) (A) (A)
                 (A) (A) (A) (A) (A) (A) (A) (A) (A) (A) (A) (A)
                 (A) (A) (A) (A) (A) (A) (A) (A) (A) (A) (A) (A)
                 (A) (A) (A) (A) (A) (A) (A) (A) (A) (A) (A) (A)
                 (A) (A) (A) (A) (A) (A) (A) (A) (A) (A) (A) (A)
                 (A) (A) (A) (A) (A) (A) (A) (A) (A) (A) (A) (A)
                 (A) (A) (A) (A) (A) (A) (A) (A) (A) (A) (A) (A)
                 (A) (A) (A) (A) (A) (A) (A) (A) (A) (A) (A) (A)
                 (A) (A) (A) (A) (A) (A) (A) (A) (A) (A) (A) (A)
                 (A) (A) (A) (A) (A) (A) (A) (A) (A) (A) (A) (A)
                 (A) (A) (A) (A) (A) (A) (A) (A) (A) (A) (A) (A)
                 (A) (A) (A) (A) (A) (A) (A) (A) (A) (A) (A) (A)
                 (A) (A) (A) (A) (A) (A) (A) (A) (A) (A) (A) (A)
                 (A) (A) (A) (A) (A) (A) (A) (A) (A) (A) (A) (A)
                 (A) (A) (A) (A) (A) (A) (A) (A) (A) (A) (A) (A)
                 (A) (A) (A) (A) (A) (A) (A) (A) (A) (A) (A) (A)
                 (A) (A) (A) (A) (A) (A) (A) (A) (A) (A) (A) (A)
                 (A) (A) (A) (A) (A) (A) (A) (A) (A) (A) (A) (A)
                 (A) (A) (A) (A) (A) (A) (A) (A) (A) (A) (A) (A)
                 (A) (A) (A) (A) (A) (A) (A) (A) (A) (A) (A) (A)
                 (A) (A) (A) (A) (A) (A) (A) (A) (A) (A) (A) (A)
                 (A) (A) (A) (A) (A) (A) (A) (A) (A) (A) (A) (A)
                 (A) (A) (A) (A) (A) (A)
 Beta  Orbitals:
       Occupied  (A) (A) (A) (A) (A) (A) (A) (A) (A) (A) (A) (A)
                 (A) (A) (A) (A) (A) (A) (A) (A) (A) (A) (A) (A)
                 (A) (A) (A) (A) (A) (A) (A) (A) (A) (A) (A) (A)
                 (A) (A) (A) (A) (A) (A) (A) (A) (A) (A) (A) (A)
                 (A) (A) (A) (A) (A) (A) (A) (A) (A) (A) (A) (A)
                 (A) (A) (A) (A) (A) (A) (A) (A) (A) (A) (A) (A)
                 (A) (A) (A) (A) (A) (A) (A) (A) (A) (A) (A) (A)
                 (A) (A) (A) (A) (A) (A) (A) (A) (A) (A) (A) (A)
                 (A) (A)
       Virtual   (A) (A) (A) (A) (A) (A) (A) (A) (A) (A) (A) (A)
                 (A) (A) (A) (A) (A) (A) (A) (A) (A) (A) (A) (A)
                 (A) (A) (A) (A) (A) (A) (A) (A) (A) (A) (A) (A)
                 (A) (A) (A) (A) (A) (A) (A) (A) (A) (A) (A) (A)
                 (A) (A) (A) (A) (A) (A) (A) (A) (A) (A) (A) (A)
                 (A) (A) (A) (A) (A) (A) (A) (A) (A) (A) (A) (A)
                 (A) (A) (A) (A) (A) (A) (A) (A) (A) (A) (A) (A)
                 (A) (A) (A) (A) (A) (A) (A) (A) (A) (A) (A) (A)
                 (A) (A) (A) (A) (A) (A) (A) (A) (A) (A) (A) (A)
                 (A) (A) (A) (A) (A) (A) (A) (A) (A) (A) (A) (A)
                 (A) (A) (A) (A) (A) (A) (A) (A) (A) (A) (A) (A)
                 (A) (A) (A) (A) (A) (A) (A) (A) (A) (A) (A) (A)
                 (A) (A) (A) (A) (A) (A) (A) (A) (A) (A) (A) (A)
                 (A) (A) (A) (A) (A) (A) (A) (A) (A) (A) (A) (A)
                 (A) (A) (A) (A) (A) (A) (A) (A) (A) (A) (A) (A)
                 (A) (A) (A) (A) (A) (A) (A) (A) (A) (A) (A) (A)
                 (A) (A) (A) (A) (A) (A) (A) (A) (A) (A) (A) (A)
                 (A) (A) (A) (A) (A) (A) (A) (A) (A) (A) (A) (A)
                 (A) (A) (A) (A) (A) (A) (A) (A) (A) (A) (A) (A)
                 (A) (A) (A) (A) (A) (A) (A) (A) (A) (A) (A) (A)
                 (A) (A) (A) (A) (A) (A) (A) (A) (A) (A) (A) (A)
                 (A) (A) (A) (A) (A) (A) (A) (A) (A) (A) (A) (A)
                 (A) (A) (A) (A) (A) (A) (A) (A) (A) (A) (A) (A)
                 (A) (A) (A) (A) (A) (A) (A) (A) (A) (A) (A) (A)
                 (A) (A) (A) (A) (A) (A) (A) (A) (A) (A) (A) (A)
                 (A) (A) (A) (A) (A) (A) (A) (A) (A) (A) (A) (A)
                 (A) (A) (A) (A) (A) (A) (A) (A) (A) (A) (A) (A)
                 (A) (A) (A) (A) (A) (A) (A) (A) (A) (A) (A) (A)
                 (A) (A) (A) (A) (A) (A) (A) (A) (A) (A) (A) (A)
                 (A) (A) (A) (A) (A) (A) (A) (A) (A) (A) (A) (A)
                 (A) (A) (A) (A) (A) (A) (A) (A) (A) (A) (A) (A)
                 (A) (A) (A) (A) (A) (A) (A) (A) (A) (A) (A) (A)
                 (A) (A) (A) (A) (A) (A) (A) (A) (A) (A) (A) (A)
                 (A) (A) (A) (A) (A) (A) (A) (A) (A) (A) (A) (A)
                 (A) (A) (A) (A) (A) (A) (A) (A) (A) (A) (A) (A)
                 (A) (A) (A) (A) (A) (A) (A) (A) (A) (A) (A) (A)
                 (A) (A) (A) (A) (A) (A) (A) (A) (A) (A) (A) (A)
                 (A) (A) (A) (A) (A) (A) (A) (A) (A) (A) (A) (A)
                 (A) (A) (A) (A) (A) (A) (A) (A) (A) (A) (A) (A)
                 (A) (A) (A) (A) (A) (A) (A) (A) (A) (A) (A) (A)
                 (A) (A) (A) (A) (A) (A) (A) (A) (A) (A) (A) (A)
                 (A) (A) (A) (A) (A) (A) (A) (A) (A) (A) (A) (A)
                 (A) (A) (A) (A) (A) (A) (A) (A) (A) (A) (A) (A)
                 (A) (A) (A) (A) (A) (A) (A) (A) (A) (A) (A) (A)
                 (A) (A) (A) (A) (A) (A) (A) (A) (A) (A) (A) (A)
                 (A) (A) (A) (A) (A) (A) (A) (A) (A) (A) (A) (A)
                 (A) (A) (A) (A) (A) (A) (A) (A) (A) (A) (A) (A)
                 (A) (A) (A) (A) (A) (A) (A) (A) (A) (A) (A) (A)
                 (A) (A) (A) (A) (A) (A) (A) (A) (A) (A) (A) (A)
                 (A) (A) (A) (A) (A) (A) (A) (A) (A) (A) (A) (A)
                 (A) (A) (A) (A) (A) (A) (A) (A) (A) (A) (A) (A)
                 (A) (A) (A) (A) (A) (A) (A) (A) (A) (A) (A) (A)
                 (A) (A) (A) (A) (A) (A) (A) (A) (A) (A) (A) (A)
                 (A) (A) (A) (A) (A) (A) (A)
 The electronic state is 2-A.
 Alpha  occ. eigenvalues --  -10.20804 -10.20328 -10.20036 -10.19929 -10.19895
 Alpha  occ. eigenvalues --  -10.19790 -10.19719 -10.19509 -10.19477 -10.19359
 Alpha  occ. eigenvalues --  -10.19291 -10.19229 -10.19227 -10.19207 -10.19203
 Alpha  occ. eigenvalues --  -10.19190 -10.19111 -10.19011 -10.18529 -10.18464
 Alpha  occ. eigenvalues --  -10.18426 -10.18315 -10.18131 -10.18090 -10.18056
 Alpha  occ. eigenvalues --  -10.17928 -10.17794 -10.17277 -10.17122 -10.16822
 Alpha  occ. eigenvalues --   -0.92100  -0.88891  -0.87836  -0.85721  -0.83991
 Alpha  occ. eigenvalues --   -0.83171  -0.80743  -0.79455  -0.77997  -0.77516
 Alpha  occ. eigenvalues --   -0.75424  -0.74683  -0.72771  -0.71800  -0.71540
 Alpha  occ. eigenvalues --   -0.66945  -0.64908  -0.64083  -0.63303  -0.62149
 Alpha  occ. eigenvalues --   -0.60755  -0.59419  -0.58936  -0.57057  -0.56125
 Alpha  occ. eigenvalues --   -0.53452  -0.52365  -0.51656  -0.51372  -0.49754
 Alpha  occ. eigenvalues --   -0.49079  -0.48061  -0.47426  -0.46584  -0.45655
 Alpha  occ. eigenvalues --   -0.44972  -0.44192  -0.44051  -0.43814  -0.43230
 Alpha  occ. eigenvalues --   -0.42921  -0.42436  -0.41798  -0.40869  -0.40734
 Alpha  occ. eigenvalues --   -0.40502  -0.40157  -0.39480  -0.39365  -0.37601
 Alpha  occ. eigenvalues --   -0.37134  -0.36619  -0.35470  -0.35163  -0.34952
 Alpha  occ. eigenvalues --   -0.34501  -0.33816  -0.33315  -0.33123  -0.32222
 Alpha  occ. eigenvalues --   -0.30282  -0.29150  -0.27939  -0.26795  -0.25297
 Alpha  occ. eigenvalues --   -0.23458  -0.22348  -0.21289  -0.20498
 Alpha virt. eigenvalues --   -0.10026  -0.05615  -0.05128  -0.03322  -0.01825
 Alpha virt. eigenvalues --   -0.00486  -0.00056   0.00289   0.00487   0.00925
 Alpha virt. eigenvalues --    0.01294   0.01489   0.01769   0.02330   0.02534
 Alpha virt. eigenvalues --    0.03121   0.03476   0.03654   0.03784   0.04383
 Alpha virt. eigenvalues --    0.04800   0.05124   0.05371   0.05467   0.05858
 Alpha virt. eigenvalues --    0.06431   0.06618   0.07013   0.07288   0.07893
 Alpha virt. eigenvalues --    0.08098   0.08248   0.08551   0.09056   0.09209
 Alpha virt. eigenvalues --    0.09543   0.10058   0.10125   0.10494   0.10952
 Alpha virt. eigenvalues --    0.11112   0.11543   0.11758   0.12436   0.12531
 Alpha virt. eigenvalues --    0.12893   0.13033   0.13388   0.13541   0.14318
 Alpha virt. eigenvalues --    0.14537   0.14789   0.15151   0.15397   0.15509
 Alpha virt. eigenvalues --    0.15681   0.15988   0.16201   0.16271   0.16409
 Alpha virt. eigenvalues --    0.16536   0.16982   0.17103   0.17281   0.17466
 Alpha virt. eigenvalues --    0.17614   0.18057   0.18192   0.18830   0.19157
 Alpha virt. eigenvalues --    0.19190   0.19470   0.19654   0.19771   0.19983
 Alpha virt. eigenvalues --    0.20257   0.20301   0.20402   0.20579   0.20744
 Alpha virt. eigenvalues --    0.20846   0.21160   0.21412   0.21485   0.21999
 Alpha virt. eigenvalues --    0.22036   0.22229   0.22597   0.22667   0.23039
 Alpha virt. eigenvalues --    0.23169   0.23337   0.23637   0.23794   0.24161
 Alpha virt. eigenvalues --    0.24421   0.24648   0.24916   0.25024   0.25341
 Alpha virt. eigenvalues --    0.25473   0.25653   0.25762   0.26226   0.26533
 Alpha virt. eigenvalues --    0.26684   0.26874   0.27080   0.27740   0.27769
 Alpha virt. eigenvalues --    0.27881   0.28369   0.28528   0.28835   0.29024
 Alpha virt. eigenvalues --    0.29304   0.29452   0.30002   0.30114   0.30338
 Alpha virt. eigenvalues --    0.30632   0.30681   0.31200   0.31437   0.31586
 Alpha virt. eigenvalues --    0.32037   0.32283   0.32418   0.32861   0.33007
 Alpha virt. eigenvalues --    0.33492   0.33909   0.34462   0.34718   0.35368
 Alpha virt. eigenvalues --    0.35698   0.35841   0.36695   0.36945   0.37827
 Alpha virt. eigenvalues --    0.38124   0.38715   0.39270   0.39536   0.40315
 Alpha virt. eigenvalues --    0.40680   0.41548   0.42232   0.42375   0.42801
 Alpha virt. eigenvalues --    0.43391   0.44471   0.44572   0.45015   0.45154
 Alpha virt. eigenvalues --    0.46112   0.47011   0.47605   0.47679   0.48858
 Alpha virt. eigenvalues --    0.49897   0.50903   0.51563   0.51596   0.51786
 Alpha virt. eigenvalues --    0.52445   0.52941   0.53238   0.53549   0.53800
 Alpha virt. eigenvalues --    0.54030   0.54275   0.54996   0.55124   0.55750
 Alpha virt. eigenvalues --    0.56331   0.56380   0.56769   0.56867   0.57378
 Alpha virt. eigenvalues --    0.57809   0.58085   0.58553   0.58919   0.59053
 Alpha virt. eigenvalues --    0.59239   0.59772   0.60083   0.60418   0.61053
 Alpha virt. eigenvalues --    0.61447   0.61901   0.62652   0.63106   0.63767
 Alpha virt. eigenvalues --    0.63951   0.64488   0.64613   0.64836   0.65136
 Alpha virt. eigenvalues --    0.65354   0.65744   0.66305   0.67160   0.67932
 Alpha virt. eigenvalues --    0.68351   0.68664   0.69149   0.69449   0.69650
 Alpha virt. eigenvalues --    0.69837   0.70359   0.70854   0.71095   0.71269
 Alpha virt. eigenvalues --    0.71639   0.71968   0.72097   0.72335   0.72501
 Alpha virt. eigenvalues --    0.72749   0.73105   0.74027   0.74103   0.74390
 Alpha virt. eigenvalues --    0.74847   0.75223   0.75620   0.75871   0.76245
 Alpha virt. eigenvalues --    0.76534   0.77321   0.77610   0.77976   0.78406
 Alpha virt. eigenvalues --    0.79089   0.79560   0.80212   0.81308   0.81762
 Alpha virt. eigenvalues --    0.82227   0.83009   0.83446   0.84044   0.85067
 Alpha virt. eigenvalues --    0.85737   0.85983   0.86625   0.86672   0.87140
 Alpha virt. eigenvalues --    0.88350   0.88667   0.89234   0.89839   0.90156
 Alpha virt. eigenvalues --    0.90361   0.90916   0.91186   0.91521   0.92027
 Alpha virt. eigenvalues --    0.92245   0.93198   0.93511   0.94232   0.94564
 Alpha virt. eigenvalues --    0.94985   0.95574   0.95791   0.96105   0.96520
 Alpha virt. eigenvalues --    0.96791   0.97268   0.97388   0.98262   0.98550
 Alpha virt. eigenvalues --    0.98624   0.99067   0.99586   1.00359   1.01002
 Alpha virt. eigenvalues --    1.01645   1.01782   1.01910   1.03044   1.03520
 Alpha virt. eigenvalues --    1.03929   1.04667   1.04977   1.05884   1.06010
 Alpha virt. eigenvalues --    1.06343   1.07487   1.08000   1.08645   1.09055
 Alpha virt. eigenvalues --    1.09612   1.09820   1.11203   1.11481   1.12358
 Alpha virt. eigenvalues --    1.13222   1.14531   1.14784   1.15394   1.16130
 Alpha virt. eigenvalues --    1.16891   1.18086   1.18249   1.19729   1.20465
 Alpha virt. eigenvalues --    1.21475   1.22158   1.23052   1.24459   1.25275
 Alpha virt. eigenvalues --    1.26673   1.29137   1.29988   1.31608   1.32301
 Alpha virt. eigenvalues --    1.33507   1.34687   1.35275   1.35568   1.37213
 Alpha virt. eigenvalues --    1.38302   1.40138   1.42006   1.42474   1.43092
 Alpha virt. eigenvalues --    1.45775   1.46374   1.46809   1.47031   1.47310
 Alpha virt. eigenvalues --    1.48152   1.48499   1.48876   1.49347   1.49997
 Alpha virt. eigenvalues --    1.50730   1.50937   1.51513   1.51540   1.52792
 Alpha virt. eigenvalues --    1.53239   1.54097   1.54589   1.54989   1.55433
 Alpha virt. eigenvalues --    1.56871   1.57030   1.57291   1.58033   1.58607
 Alpha virt. eigenvalues --    1.59289   1.59600   1.60077   1.60709   1.61507
 Alpha virt. eigenvalues --    1.62274   1.62930   1.63423   1.65437   1.66017
 Alpha virt. eigenvalues --    1.66257   1.67231   1.68170   1.68360   1.69071
 Alpha virt. eigenvalues --    1.70218   1.70753   1.71369   1.71895   1.72881
 Alpha virt. eigenvalues --    1.73489   1.73620   1.74339   1.74728   1.75185
 Alpha virt. eigenvalues --    1.75958   1.76769   1.76993   1.77786   1.78646
 Alpha virt. eigenvalues --    1.79646   1.81303   1.82329   1.82637   1.82755
 Alpha virt. eigenvalues --    1.83904   1.84099   1.84681   1.85161   1.86230
 Alpha virt. eigenvalues --    1.86845   1.87349   1.87839   1.88655   1.88798
 Alpha virt. eigenvalues --    1.89388   1.90122   1.90586   1.91125   1.91858
 Alpha virt. eigenvalues --    1.92338   1.92668   1.93154   1.93839   1.94066
 Alpha virt. eigenvalues --    1.94808   1.95022   1.95869   1.96699   1.97776
 Alpha virt. eigenvalues --    1.97883   1.98355   1.99175   1.99379   2.00287
 Alpha virt. eigenvalues --    2.00758   2.02247   2.02460   2.03341   2.03744
 Alpha virt. eigenvalues --    2.04939   2.05836   2.06574   2.06780   2.07514
 Alpha virt. eigenvalues --    2.08370   2.08454   2.09981   2.11019   2.12038
 Alpha virt. eigenvalues --    2.12497   2.13309   2.13950   2.15390   2.16137
 Alpha virt. eigenvalues --    2.17023   2.18536   2.19199   2.19739   2.20538
 Alpha virt. eigenvalues --    2.21662   2.23307   2.23836   2.24139   2.25086
 Alpha virt. eigenvalues --    2.25934   2.27326   2.29308   2.30713   2.31468
 Alpha virt. eigenvalues --    2.33846   2.34201   2.34894   2.38181   2.39258
 Alpha virt. eigenvalues --    2.40440   2.40888   2.41284   2.42334   2.43151
 Alpha virt. eigenvalues --    2.43340   2.44467   2.46123   2.46477   2.47351
 Alpha virt. eigenvalues --    2.47880   2.49234   2.52037   2.52890   2.54866
 Alpha virt. eigenvalues --    2.55357   2.56518   2.58678   2.59559   2.60424
 Alpha virt. eigenvalues --    2.61627   2.63397   2.64129   2.66617   2.66965
 Alpha virt. eigenvalues --    2.68201   2.69035   2.69263   2.70267   2.70433
 Alpha virt. eigenvalues --    2.71693   2.72433   2.72818   2.73050   2.73134
 Alpha virt. eigenvalues --    2.73557   2.73871   2.74632   2.75061   2.75239
 Alpha virt. eigenvalues --    2.75650   2.75861   2.76016   2.76816   2.77165
 Alpha virt. eigenvalues --    2.77706   2.78033   2.78572   2.79144   2.79773
 Alpha virt. eigenvalues --    2.80489   2.81208   2.81863   2.83468   2.84106
 Alpha virt. eigenvalues --    2.84483   2.84905   2.85058   2.86434   2.88288
 Alpha virt. eigenvalues --    2.88313   2.88725   2.89473   2.89518   2.90754
 Alpha virt. eigenvalues --    2.91772   2.92129   2.92619   2.93232   2.93915
 Alpha virt. eigenvalues --    2.94489   2.95477   2.97831   2.98590   3.00834
 Alpha virt. eigenvalues --    3.01658   3.03487   3.03896   3.05504   3.08432
 Alpha virt. eigenvalues --    3.09903   3.12143   3.13134   3.14292   3.15296
 Alpha virt. eigenvalues --    3.16420   3.17614   3.19947   3.20777   3.22028
 Alpha virt. eigenvalues --    3.22053   3.23878   3.24583   3.26458   3.29803
 Alpha virt. eigenvalues --    3.32137   3.33180   3.34824   3.35798   3.37227
 Alpha virt. eigenvalues --    3.38521   3.38745   3.40786   3.42721   3.43770
 Alpha virt. eigenvalues --    3.44981   3.45792   3.47380   3.48285   3.49844
 Alpha virt. eigenvalues --    3.50154   3.52525   3.54123   3.55071   3.55954
 Alpha virt. eigenvalues --    3.57502   3.58646   3.61503   3.62923   3.64003
[...]
 9,0.00000057,-0.00000190,-0.00000093,0.00000071,0.00000054,0.00000004,
 0.00000109,0.00000087,0.00000095,0.00000158,0.00000127,0.00000077,-0.0
 0000114,0.00000240,-0.00000069,-0.00000117,0.00001982,-0.00000366,-0.0
 0000720,-0.00000627,0.00000051,-0.00002310,-0.00004057,-0.00009045,0.0
 0050042,-0.00004180,0.00166527,0.05762581,-0.00002408,-0.00001287,-0.0
 0000613,0.00001103,-0.00001878,0.00000818,-0.00000961,-0.00000388,-0.0
 0000257,0.00006135,0.00001983,0.00000665,0.00000258,0.00000543,0.00000
 014,-0.00000549,-0.00000009,-0.00000098,0.00001084,0.00002377,-0.00000
 094,0.00030095,-0.00011271,-0.00006246,-0.00009102,0.00000889,-0.00002
 242,0.00002049,-0.00007300,0.00000675,0.00001158,0.00002415,-0.0000440
 8,-0.00015952,0.00046651,-0.00029726,0.00140310,0.00186958,0.00159977,
 -0.00029189,-0.00043046,0.00003906,0.00001108,-0.00001675,-0.00000111,
 0.00000244,0.00000619,0.00000502,-0.00000863,-0.00000797,0.00000275,0.
 00000838,0.00006608,-0.00000850,-0.00123805,-0.00785403,0.00147982,-0.
 00366980,-0.00017511,-0.00031443,0.00407648,-0.01300475,0.00376576,0.0
 2297320,-0.32546435,0.05290888,0.00000644,0.00000021,-0.00000177,0.000
 00153,0.00000562,0.00000324,0.00001034,0.00001365,0.00000656,-0.000015
 30,-0.00000217,0.00002388,-0.00000161,-0.00001301,0.00003141,-0.000002
 85,-0.00003334,0.00000767,-0.00000787,0.00000017,-0.00000696,0.0000091
 3,0.00000240,-0.00000006,-0.00000856,0.00000185,0.00000142,0.00000557,
 0.00000248,-0.00000679,-0.00001055,0.00000532,-0.00003250,-0.00000571,
 -0.00000389,-0.00000094,-0.00000610,-0.00000247,-0.00000070,-0.0000000
 6,-0.00000523,-0.00000242,-0.00000103,-0.00000474,-0.00000102,-0.00000
 073,-0.00000587,-0.00000069,0.00000475,-0.00000400,0.00000075,0.000003
 04,-0.00001196,0.00000313,0.00001044,0.00000477,0.00000060,0.00001788,
 0.00001622,0.00004497,0.00048750,0.00072231,-0.00081284,-0.02436610,0.
 34421988,-0.00000122,-0.00000115,0.00001573,0.00000669,0.00000488,0.00
 000901,-0.00000103,-0.00002065,-0.00000356,-0.00001054,-0.00000094,-0.
 00001126,-0.00000316,0.00000423,0.00000107,0.00000592,0.00000006,-0.00
 000624,0.00000085,0.00001932,0.00011490,-0.00004543,0.00000001,-0.0007
 6631,0.00002739,0.00001257,-0.00007244,-0.00001228,0.00001284,0.000058
 51,0.00019041,-0.00002233,-0.00058175,-0.00018301,-0.00023608,-0.00064
 212,-0.00375068,0.00138638,0.00800845,0.00009338,0.00060119,0.00015019
 ,-0.00000099,-0.00000158,-0.00000219,0.00000350,-0.00000131,-0.0000048
 4,-0.00001046,0.00000300,0.00000847,-0.00001436,0.00002220,-0.00000496
 ,-0.00001635,0.01044178,0.00242664,-0.00207357,-0.00007611,0.00368114,
 0.00090543,-0.00472296,0.00259896,-0.01097622,0.05191910,-0.04714792,-
 0.00000184,-0.00000556,-0.00000532,0.00000611,0.00000137,0.00000176,0.
 00002449,0.00000483,0.00000221,-0.00002677,-0.00000634,0.00001095,0.00
 000401,0.00000239,0.00001827,0.00000576,0.00000517,0.00001241,-0.00001
 495,0.00001006,-0.00000291,0.00000033,-0.00001008,-0.00001142,0.000000
 64,0.00000119,0.00000149,0.00000519,-0.00000144,-0.00000220,-0.0000228
 2,-0.00000452,0.00000130,-0.00000185,-0.00000276,0.00000157,-0.0000013
 9,-0.00000173,0.00000093,0.00000040,-0.00000138,0.00000099,-0.00000016
 ,-0.00000084,0.00000135,0.00000062,-0.00000004,-0.00000381,0.00000006,
 0.00000012,0.00000205,-0.00000103,0.00000411,0.00001352,0.00000006,-0.
 00000107,-0.00000093,-0.00005303,0.00000950,0.00022897,0.00155637,-0.0
 0108772,-0.00483945,0.01357339,-0.05786121,0.03767799,0.00007265,0.000
 00260,-0.00000766,-0.00017382,0.00006414,0.00005915,0.00015187,-0.0000
 9994,-0.00006973,-0.00016922,-0.00003419,-0.00002056,-0.00003369,-0.00
 000276,-0.00000150,0.00001895,0.00001443,0.00000770,-0.00019975,0.0000
 8664,0.00020079,0.00003159,0.00012040,0.00003512,0.00012336,-0.0000454
 6,-0.00000621,0.00001040,0.00013851,0.00001454,0.00088623,-0.00088293,
 0.00097056,-0.01682184,-0.01581704,-0.00454114,-0.00189539,0.00322244,
 -0.00279337,-0.00045653,-0.00130658,0.00009575,-0.00005878,-0.00000011
 ,-0.00000149,0.00003268,-0.00000344,0.00005924,0.00004089,0.00033623,0
 .00004163,-0.00006164,0.00039769,-0.00016219,0.00000343,0.00058221,0.0
 0025483,-0.22974366,-0.13384991,-0.05494872,0.00682914,0.00451659,0.00
 027512,0.00167365,0.00078859,-0.00234640,0.00002012,0.00003675,0.00001
 967,-0.00002604,-0.00003901,-0.00003285,0.00024541,-0.00002947,0.00007
 256,-0.00020267,-0.00117569,0.00044529,-0.00058745,-0.00090801,0.00180
 292,-0.00026237,-0.00025270,0.00067404,-0.00020509,0.00007177,-0.00009
 357,-0.00002963,0.00004460,-0.00013253,-0.00000577,-0.00000186,0.00000
 498,0.00002020,-0.00001395,-0.00003597,-0.00027631,-0.00022354,-0.0000
 6341,0.00000493,0.00000778,-0.00000292,0.00000174,0.00000573,0.0000020
 2,-0.00000491,0.00000262,-0.00000442,0.00000320,0.00000086,-0.00000513
 ,0.00000417,0.00000132,-0.00000202,-0.00000021,0.00000082,-0.00000183,
 0.00000293,0.00000962,-0.00000053,0.00000428,-0.00000883,-0.00000372,-
 0.00032544,0.00012287,-0.00014473,-0.00008034,-0.00005629,0.00034395,0
 .00023368,0.00029370,-0.00007721,0.24127424,-0.00003363,0.00004961,0.0
 0002413,0.00021630,-0.00007193,-0.00007232,-0.00011077,-0.00006428,0.0
 0003700,-0.00000081,0.00002992,-0.00000087,0.00002302,-0.00001968,0.00
 000739,-0.00003439,0.00000128,-0.00000664,-0.00032765,0.00019202,-0.00
 011353,0.00005832,0.00019799,-0.00000429,-0.00003762,-0.00002224,-0.00
 000481,0.00003799,-0.00001572,0.00001352,0.00038768,0.00061030,-0.0002
 6837,0.01182451,0.01116265,0.00317375,0.00223135,-0.00080020,0.0019190
 2,0.00063825,0.00050911,-0.00004121,-0.00001155,0.00001336,-0.00000360
 ,-0.00006261,-0.00010609,-0.00003260,-0.00011977,-0.00036489,0.0001411
 4,-0.00012020,-0.00000126,-0.00011732,0.00065350,-0.00012718,0.0001512
 7,-0.13276379,-0.15763331,-0.03329186,-0.02595461,-0.01528609,-0.00615
 152,0.00209192,-0.00455419,0.00214773,0.00006779,-0.00000397,0.0000217
 7,-0.00002433,0.00006925,0.00006289,-0.00007349,0.00001810,-0.00012656
 ,-0.00055784,-0.00114196,0.00068808,-0.00085519,-0.00028852,0.00188738
 ,-0.00008066,-0.00029184,0.00026605,-0.00012634,-0.00002971,-0.0000789
 5,0.00027721,0.00000678,0.00001657,0.00000958,0.00000552,-0.00001916,0
 .00000830,-0.00002633,-0.00005520,-0.00038317,-0.00018380,0.00012339,0
 .00002028,-0.00000644,-0.00000453,0.00000835,0.00001380,0.00000441,0.0
 0000676,0.00000913,-0.00000621,-0.00000412,0.00001043,0.,-0.00000576,0
 .00000593,0.00000122,-0.00000330,0.00000148,-0.00000188,-0.00000564,-0
 .00000328,0.00000051,-0.00000706,-0.00000199,-0.00000232,0.00024748,-0
 .00007033,-0.00001536,-0.00005789,0.00005361,-0.00017099,-0.00122490,-
 0.00072042,-0.00019295,0.14379953,0.16786543,0.00011709,-0.00004225,0.
 00004585,-0.00010268,0.00011491,-0.00003772,0.00003083,0.00014743,0.00
 009611,0.00004516,-0.00010100,0.00000864,-0.00010122,0.00008855,-0.000
 00431,0.00011460,0.00004164,0.00001585,0.00068207,-0.00017141,-0.00001
 362,-0.00011836,-0.00019086,-0.00010206,0.00011761,-0.00003712,0.00001
 633,-0.00003839,0.00007417,-0.00001407,0.00050918,0.00031990,-0.002232
 39,-0.00699828,-0.00886823,0.00234168,-0.00265688,0.00183875,0.0035211
 2,-0.00046023,-0.00061487,0.00002562,-0.00008205,0.00003357,-0.0000240
 1,0.00012110,-0.00008900,-0.00006274,-0.00030972,0.00022703,0.00015190
 ,-0.00004264,0.00015299,-0.00016001,-0.00006137,0.00075947,-0.00102246
 ,-0.05449574,-0.03000181,-0.05037778,0.00357539,0.00233645,0.00485097,
 -0.00139592,0.00236893,0.00668126,-0.00008977,-0.00009898,-0.00006475,
 0.00005160,-0.00001499,0.00000911,0.00018928,0.00009190,0.00001179,-0.
 00007472,0.00066226,0.00023492,0.00076374,0.00092968,-0.00127383,0.000
 39967,-0.00027658,-0.00016392,-0.00022709,0.00000599,-0.00011147,0.000
 08103,-0.00005622,0.00000870,-0.00005440,0.00000097,-0.00000628,-0.000
 00484,0.00002202,-0.00001788,0.00006091,0.00042846,-0.00089340,-0.0000
 2750,-0.00002789,0.00001516,-0.00001953,-0.00003516,-0.00000026,0.0000
 0781,-0.00001628,-0.00000115,0.00000402,-0.00001446,0.00001149,0.00000
 342,-0.00000499,-0.00000342,0.00000373,0.00000529,0.00000042,0.0000031
 2,0.00000621,0.00000128,0.00000393,-0.00000429,0.00000926,-0.00023620,
 0.00011677,0.00015870,0.00020345,-0.00018214,-0.00088574,0.00011439,0.
 00024789,0.00027304,0.05842352,0.03057599,0.04228835,-0.00004899,-0.00
 004167,-0.00001373,0.00005751,0.00005703,0.00003708,-0.00009779,-0.000
 09725,0.00001874,-0.00001239,0.00004104,-0.00003316,-0.00001797,0.0000
 2008,-0.00000060,0.00000577,0.00000634,-0.00000221,-0.00017530,0.00026
 290,0.00028003,0.00001716,0.00036734,-0.00006653,0.00009220,-0.0001301
 5,-0.00003784,0.00005539,0.00009470,0.00001662,-0.00004297,0.00006637,
 -0.00012268,0.00282645,-0.00084425,-0.00243072,-0.00017850,0.00006722,
 0.00016413,0.00032610,-0.00034019,0.00034099,0.00002790,-0.00002241,0.
 00000530,0.00001167,0.00001345,0.00001666,-0.00000071,-0.00002045,0.00
 002261,-0.00000332,0.00003822,-0.00010319,-0.00097640,-0.00520250,-0.0
 0128887,0.00058387,0.00157339,-0.00077419,-0.23812759,0.07762246,-0.11
 330122,-0.01720367,0.01066796,-0.01013806,0.00000939,0.00001279,0.0000
 0875,-0.00001315,-0.00000207,-0.00000618,-0.00002541,-0.00000821,0.000
 00595,0.00004443,-0.00002921,-0.00001988,0.00006824,0.00000488,-0.0000
 4720,-0.00004417,0.00005976,-0.00000336,-0.00000360,-0.00002787,-0.000
 01762,-0.00000759,0.00001107,-0.00000718,-0.00001018,-0.00000334,0.000
 01009,0.00001925,0.00001271,0.00001969,-0.00001198,-0.00001121,0.00001
 160,0.00000140,-0.00000066,0.00000142,0.00000163,0.00000119,-0.0000000
 5,-0.00000095,0.00000230,0.00000012,0.00000158,0.00000248,-0.00000266,
 0.00000025,0.00000070,-0.00000093,-0.00000025,0.00000430,-0.00000196,-
 0.00000434,0.00000448,0.00000612,0.00000476,-0.00000534,0.00000216,0.0
 0005757,-0.00001181,0.00001541,-0.00094034,0.00057587,-0.00021291,0.00
 050597,0.00003069,0.00119906,0.00000358,0.00046234,0.00207232,0.253811
 07,-0.00002736,0.00001334,-0.00001665,-0.00010820,-0.00004850,-0.00002
 738,0.00023921,0.00012894,0.00000204,0.00010138,0.00001526,0.00001736,
 0.00007346,-0.00002688,0.00000748,-0.00004255,-0.00005651,-0.00000630,
 0.00034196,-0.00057551,0.00004381,-0.00007314,-0.00048781,0.00004269,-
 0.00011384,0.00015375,-0.00000840,-0.00008160,-0.00015156,-0.00002048,
 0.00127698,0.00054613,0.00019637,-0.00162096,-0.00536025,0.00187679,0.
 00019390,-0.00115810,-0.00001655,-0.00041146,0.00063310,-0.00023380,0.
 00002691,0.00000206,0.00000070,-0.00003039,0.00001673,0.00001709,0.000
 09339,-0.00005147,-0.00003436,-0.00005213,-0.00003579,0.00006561,-0.00
 382711,-0.00172645,-0.00000426,0.02716162,-0.00804416,0.01444016,0.077
 49217,-0.09180982,0.04941405,-0.01483489,0.01076119,-0.00961442,0.0000
 2506,0.00000864,0.00000697,-0.00002398,-0.00000208,-0.00001815,0.00002
 256,-0.00002878,0.00000242,-0.00002656,0.00001663,-0.00001840,0.000016
 71,-0.00001535,0.00001690,0.00001185,0.00004399,0.00001732,-0.00002356
 ,0.00002343,-0.00000336,-0.00006627,0.00000610,-0.00002799,-0.00000430
 ,-0.00000187,0.00000979,-0.00000144,0.00000009,0.00001148,0.00002459,0
 .00002164,-0.00002932,-0.00000381,-0.00000260,0.00000687,-0.00000201,-
 0.00000145,0.00000349,-0.00000422,-0.00000104,0.00000069,-0.00000073,-
 0.00000177,-0.00000066,0.00000059,-0.00000104,0.00000188,-0.00000128,-
 0.00000876,0.00000050,0.00000158,-0.00000312,0.00000010,0.00000828,-0.
 00000026,-0.00000095,0.00007162,-0.00000565,0.00003176,-0.00102192,0.0
 0041898,0.00007914,0.00074889,0.00056552,-0.00026582,0.00018670,0.0008
 5914,-0.00108169,-0.08603394,0.09540173,0.00002516,-0.00000160,0.00000
 787,-0.00007855,0.00005254,-0.00004426,0.00005116,0.00025658,-0.000056
 93,0.00021493,-0.00002053,0.00009777,0.00002055,0.00001993,0.00000225,
 0.00000402,-0.00001021,0.00001796,0.00076043,-0.00023537,-0.00069769,0
 .00003608,-0.00101078,0.00018926,-0.00023007,0.00034453,0.00007385,-0.
 00013397,-0.00029456,-0.00005099,-0.00055488,-0.00000536,0.00015407,-0
 .00204820,0.00140901,0.00680521,0.00154911,-0.00138418,-0.00006685,-0.
 00090215,0.00096100,-0.00080386,-0.00000180,0.00003161,-0.00000506,-0.
 00002181,0.00002468,-0.00003032,-0.00006734,0.00000883,-0.00006772,0.0
 0003084,-0.00005191,0.00018704,-0.00274974,0.00113912,0.00279306,-0.00
 255488,-0.00292096,0.00167491,-0.11983569,0.05358633,-0.09078512,0.002
 35914,0.00314438,0.00137911,-0.00002637,-0.00003267,-0.00001461,0.0000
 3467,0.00000621,0.00001032,0.00003199,-0.00000276,-0.00001485,-0.00006
 134,0.00002756,-0.00001135,-0.00007485,0.00005467,-0.00001314,0.000064
 92,0.00000964,0.00004152,0.00000795,0.00003233,0.00002820,0.00003114,-
 0.00005110,0.00001635,0.00002318,0.00001186,-0.00001462,0.00000548,-0.
 00000627,-0.00009012,0.00001641,0.00003835,0.00001172,-0.00000371,-0.0
 0000595,-0.00000233,-0.00000118,-0.00000325,-0.00000026,0.00000281,-0.
 00000136,-0.00000009,0.00000035,-0.00000085,0.00000797,-0.00000052,0.0
 0000165,0.00000205,-0.00000153,0.00000093,0.00000343,-0.00000095,-0.00
 000165,-0.00001132,-0.00000346,0.00000491,-0.00000480,-0.00001249,0.00
 000652,0.00001894,-0.00019192,0.00022199,0.00010878,0.00057611,-0.0005
 4806,-0.00156246,0.00165219,-0.00058540,-0.00358709,0.12010653,-0.0528
 4625,0.09337923,0.00005494,0.00000591,0.00002303,-0.00002322,-0.000053
 55,-0.00003138,0.00009345,-0.00042183,0.00001308,-0.00058138,-0.000055
 79,-0.00007860,-0.00007217,-0.00000715,-0.00001113,0.00003926,0.000003
 73,-0.00000120,-0.00100083,0.00028210,0.00000535,-0.00034651,0.0018705
 9,-0.00016277,0.00055961,-0.00073441,0.00005007,0.00024130,0.00073691,
 0.00006064,0.00075496,0.00049462,-0.00020201,0.00229789,-0.00073223,0.
 00083928,-0.00230058,0.00186736,-0.00090242,0.00172644,-0.00182926,0.0
 0040494,-0.00004902,0.00003690,0.00000952,0.00004861,-0.00014332,-0.00
 001514,0.00023572,0.00009246,0.00008181,-0.00020104,-0.00036237,-0.000
 07411,0.00265971,-0.00289297,0.00224283,-0.00393870,0.01064373,0.00205
 778,0.01077402,-0.00839518,-0.01343052,-0.01138903,-0.00187286,0.00324
 645,-0.00003235,-0.00001665,-0.00001790,0.00003442,-0.00000896,0.00000
 190,0.00000796,0.00003341,-0.00001000,-0.00007920,0.00010551,0.0000294
 6,-0.00003430,-0.00015042,0.00008916,-0.00012426,-0.00016443,0.0001192
 9,0.00001850,-0.00000038,-0.00000582,0.00001876,-0.00000140,0.00001385
 ,0.00001130,0.00000224,-0.00000409,-0.00009037,-0.00007778,0.00000544,
 -0.00002631,-0.00000580,-0.00004336,0.00000179,0.00000206,-0.00000180,
 0.00000290,-0.00000056,0.00000108,0.00000281,0.00000322,0.00000049,-0.
 00000219,0.00000235,-0.00000167,0.00000383,0.00000154,-0.00000172,-0.0
 0000201,0.00000150,-0.00000082,0.00000435,0.00001278,-0.00000215,0.000
 00250,-0.00001513,0.00000950,0.00003273,-0.00001974,0.00000533,0.00023
 426,-0.00010401,-0.00021281,0.00026459,0.00015006,-0.00030970,-0.00007
 276,-0.00008336,-0.00010142,-0.00058554,0.00031820,0.00195225,0.000825
 17,-0.00004883,-0.00000205,-0.00001294,-0.00003384,0.00006697,-0.00000
 121,-0.00003629,0.00026794,0.00000946,0.00040745,0.00008703,0.00005543
 ,0.00006640,0.00005195,0.00000867,-0.00001700,-0.00004786,-0.00000060,
 0.00082054,-0.00009864,-0.00000493,0.00024275,-0.00141539,0.00016295,-
 0.00037264,0.00053496,-0.00003284,-0.00015669,-0.00051133,-0.00004546,
 -0.00066042,-0.00037836,0.00011423,-0.00155121,0.00062604,-0.00092124,
 0.00137437,-0.00140576,0.00068859,-0.00117253,0.00135888,-0.00037020,0
 .00002464,-0.00001106,-0.00000454,0.00000076,0.00010260,-0.00000223,-0
 .00021785,-0.00006995,-0.00006080,0.00016707,0.00018652,0.00007962,-0.
 00178812,0.00111951,-0.00077274,0.00479284,-0.00871298,-0.00326502,-0.
 00655960,0.00411089,0.00760896,0.00266813,0.00132335,0.00009711,-0.000
 01747,-0.00003045,-0.00000576,0.00001409,0.00000626,0.00000261,0.00002
 267,-0.00002807,-0.00001846,0.00002353,-0.00003080,0.00000047,-0.00001
 455,-0.00005189,-0.00006170,-0.00010756,0.00002219,0.00022029,-0.00003
 494,0.00001763,-0.00000163,0.00002811,-0.00009446,-0.00006668,0.000005
 55,0.00000848,0.00000150,0.00010110,-0.00009228,-0.00014218,-0.0000033
 4,0.00006760,0.00005133,-0.00000751,-0.00001702,-0.00000317,-0.0000029
 9,-0.00000401,-0.00000166,0.00000104,-0.00000385,0.00000242,0.00000286
 ,-0.00000132,0.00000227,-0.00000070,-0.00000106,0.00000238,-0.00000010
 ,0.00000381,0.00000188,-0.00000636,-0.00000438,0.00000074,0.00000332,0
 .00000732,-0.00000497,0.00000731,0.00001871,0.00000212,-0.00002963,0.0
 0005165,0.00000717,-0.00006175,-0.00006897,0.00006028,-0.00010345,0.00
 015081,0.00033297,0.00074848,-0.00002985,-0.00137411,0.00148234,0.0029
 2070,-0.00007320,0.00003242,-0.00004137,-0.00001494,0.00005656,0.00004
 965,-0.00010349,0.00074381,-0.00001287,0.00099636,0.00013567,0.0001176
 1,0.00015519,0.00001883,0.00002449,-0.00008030,-0.00005162,0.00000308,
 0.00186825,-0.00047846,0.00007188,0.00062893,-0.00351514,0.00035701,-0
 .00101447,0.00134752,-0.00010366,-0.00042592,-0.00131514,-0.00009590,-
 0.00124496,-0.00104706,0.00016528,-0.00387214,0.00154957,-0.00152893,0
 .00431207,-0.00350676,0.00152217,-0.00324543,0.00344685,-0.00083349,0.
 00004970,-0.00004264,-0.00001574,-0.00006467,0.00022861,0.00001192,-0.
 00045237,-0.00014665,-0.00012460,0.00035763,0.00059384,0.00013972,-0.0
 0465401,0.00438489,-0.00274410,0.00600096,-0.01676897,-0.00054303,-0.0
 2053684,0.01540739,0.01598133,0.01288212,0.00303671,-0.00080393,0.0000
 3472,0.00000454,0.00002119,-0.00003408,0.00001493,0.00000085,0.0000284
 3,-0.00004865,0.00000670,0.00016973,-0.00017322,-0.00010393,0.00004432
 ,0.00016690,-0.00003469,0.00018637,0.00017458,-0.00002653,-0.00001250,
 0.00004945,0.00004872,-0.00007765,-0.00001693,-0.00003734,0.00001203,0
 .00000897,-0.00001114,-0.00000626,0.00003339,-0.00007121,0.00004008,-0
 .00004954,0.00004286,-0.00000198,0.00000091,0.00000308,-0.00000296,0.0
 0000239,-0.00000157,-0.00000327,-0.00000447,0.00000108,0.00000375,-0.0
 0000256,0.00000337,-0.00000527,-0.00000117,0.00000318,0.00000179,-0.00
 000095,0.00000037,-0.00000885,-0.00002055,0.00000398,0.00000142,0.0000
 2433,-0.00001761,-0.00002782,0.00003847,-0.00002832,-0.00021510,0.0001
 1780,0.00004514,-0.00027129,-0.00015744,0.00035025,0.00004427,0.000105
 22,0.00028279,0.00427158,-0.00203828,-0.00907502,0.00436004,-0.0023383
 6,-0.00300272\\0.,-0.00000005,0.00000104,0.00000005,0.00000002,0.00000
 049,0.00000012,0.00000013,-0.00000004,0.00000013,0.00000018,0.00000010
 ,0.00000008,0.,0.00000112,0.00000013,0.00000011,0.00000061,-0.00000004
 ,0.00000026,-0.00000041,0.00000001,0.00000031,-0.00000104,0.00000009,0
 .00000031,-0.00000099,0.00000014,0.00000036,-0.00000045,0.00000003,0.0
 0000018,-0.00000037,-0.00000001,-0.00000010,-0.00000081,-0.00000023,0.
 00000003,-0.00000148,0.00000002,0.00000007,-0.00000145,0.00000001,-0.0
 0000016,0.00000148,0.00000005,-0.00000014,0.00000134,-0.00000002,-0.00
 000016,0.00000075,-0.00000001,-0.00000002,0.00000030,-0.00000016,-0.00
 000017,-0.00000187,-0.00000026,-0.00000010,-0.00000088,0.,-0.00000071,
 -0.00000163,-0.00000047,-0.00000035,-0.00000182,-0.00000009,-0.0000003
 7,0.00000169,-0.00000008,-0.00000033,0.00000168,0.00000007,-0.00000022
 ,0.00000117,0.00000008,0.00000003,0.00000063,0.00000019,0.00000031,0.0
 0000020,0.00000020,0.00000037,0.00000016,0.00000007,-0.00000010,0.0000
 0102,0.00000016,0.00000025,0.00000056,0.00000020,0.00000028,0.00000054
 ,0.00000033,0.00000064,-0.00000018,0.00000024,0.00000048,-0.00000012,0
 .00000002,-0.00000019,0.00000140,-0.00000008,-0.00000049,0.00000198,-0
 .00000008,-0.00000048,0.00000215,0.,-0.00000027,0.00000190,0.00000012,
 -0.00000003,0.00000152,0.00000018,0.00000019,0.00000071,0.00000018,0.0
 0000036,-0.00000049,0.00000010,0.00000038,-0.00000138,-0.00000003,0.00
 000021,-0.00000191,-0.00000019,-0.00000002,-0.00000232,-0.00000038,-0.
 00000034,-0.00000224,-0.00000027,-0.00000039,-0.00000040,-0.00000046,-
 0.00000059,-0.00000116,-0.00000014,0.00000031,-0.00000110\\\@


 MYSTERY IS THE WISDOM OF BLOCKHEADS... HORACE WALPOLE 
 Job cpu time:       2 days  6 hours 16 minutes 26.1 seconds.
 Elapsed time:       0 days  2 hours 43 minutes 16.7 seconds.
 File lengths (MBytes):  RWF=   4598 Int=      0 D2E=      0 Chk=     65 Scr=      1
 Normal termination of Gaussian 16 at Fri Jun 28 23:51:27 2019.
