 Entering Gaussian System, Link 0=g09
 Initial command:
 /usr/local/Cluster-Apps/gaussian/g09/l1.exe "/rds/user/am2145/hpc-work/scratch/19184724/Gau-207915.inp" -scrdir="/rds/user/am2145/hpc-work/scratch/19184724/"
 Entering Link 1 = /usr/local/Cluster-Apps/gaussian/g09/l1.exe PID=    207916.
  
 Copyright (c) 1988,1990,1992,1993,1995,1998,2003,2009,2013,
            Gaussian, Inc.  All Rights Reserved.
  
 This is part of the Gaussian(R) 09 program.  It is based on
 the Gaussian(R) 03 system (copyright 2003, Gaussian, Inc.),
 the Gaussian(R) 98 system (copyright 1998, Gaussian, Inc.),
 the Gaussian(R) 94 system (copyright 1995, Gaussian, Inc.),
 the Gaussian 92(TM) system (copyright 1992, Gaussian, Inc.),
 the Gaussian 90(TM) system (copyright 1990, Gaussian, Inc.),
 the Gaussian 88(TM) system (copyright 1988, Gaussian, Inc.),
 the Gaussian 86(TM) system (copyright 1986, Carnegie Mellon
 University), and the Gaussian 82(TM) system (copyright 1983,
 Carnegie Mellon University). Gaussian is a federally registered
 trademark of Gaussian, Inc.
  
 This software contains proprietary and confidential information,
 including trade secrets, belonging to Gaussian, Inc.
  
 This software is provided under written license and may be
 used, copied, transmitted, or stored only in accord with that
 written license.
  
 The following legend is applicable only to US Government
 contracts under FAR:
  
                    RESTRICTED RIGHTS LEGEND
  
 Use, reproduction and disclosure by the US Government is
 subject to restrictions as set forth in subparagraphs (a)
 and (c) of the Commercial Computer Software - Restricted
 Rights clause in FAR 52.227-19.
  
 Gaussian, Inc.
 340 Quinnipiac St., Bldg. 40, Wallingford CT 06492
  
  
 ---------------------------------------------------------------
 Warning -- This program may not be used in any manner that
 competes with the business of Gaussian, Inc. or will provide
 assistance to any competitor of Gaussian, Inc.  The licensee
 of this program is prohibited from giving any competitor of
 Gaussian, Inc. access to this program.  By using this program,
 the user acknowledges that Gaussian, Inc. is engaged in the
 business of creating and licensing software in the field of
 computational chemistry and represents and warrants to the
 licensee that it is not a competitor of Gaussian, Inc. and that
 it will not use this program in any manner prohibited above.
 ---------------------------------------------------------------
  

 Cite this work as:
 Gaussian 09, Revision D.01,
 M. J. Frisch, G. W. Trucks, H. B. Schlegel, G. E. Scuseria, 
 M. A. Robb, J. R. Cheeseman, G. Scalmani, V. Barone, B. Mennucci, 
 G. A. Petersson, H. Nakatsuji, M. Caricato, X. Li, H. P. Hratchian, 
 A. F. Izmaylov, J. Bloino, G. Zheng, J. L. Sonnenberg, M. Hada, 
 M. Ehara, K. Toyota, R. Fukuda, J. Hasegawa, M. Ishida, T. Nakajima, 
 Y. Honda, O. Kitao, H. Nakai, T. Vreven, J. A. Montgomery, Jr., 
 J. E. Peralta, F. Ogliaro, M. Bearpark, J. J. Heyd, E. Brothers, 
 K. N. Kudin, V. N. Staroverov, T. Keith, R. Kobayashi, J. Normand, 
 K. Raghavachari, A. Rendell, J. C. Burant, S. S. Iyengar, J. Tomasi, 
 M. Cossi, N. Rega, J. M. Millam, M. Klene, J. E. Knox, J. B. Cross, 
 V. Bakken, C. Adamo, J. Jaramillo, R. Gomperts, R. E. Stratmann, 
 O. Yazyev, A. J. Austin, R. Cammi, C. Pomelli, J. W. Ochterski, 
 R. L. Martin, K. Morokuma, V. G. Zakrzewski, G. A. Voth, 
 P. Salvador, J. J. Dannenberg, S. Dapprich, A. D. Daniels, 
 O. Farkas, J. B. Foresman, J. V. Ortiz, J. Cioslowski, 
 and D. J. Fox, Gaussian, Inc., Wallingford CT, 2013.
 
 ******************************************
 Gaussian 09:  ES64L-G09RevD.01 24-Apr-2013
                 1-Feb-2020 
 ******************************************
 %NProcShared=20
 Will use up to   20 processors via shared memory.
 %mem=64GB
 %Chk=DTS1ab_guess.chk
 --------------------------------------------------
 #n opt=(ts,calcfc,noeigen) freq b3lyp/6-311+g(d,p)
 --------------------------------------------------
 1/5=1,10=4,11=1,14=-1,18=20,26=3,38=1/1,3;
 2/9=110,12=2,17=6,18=5,40=1/2;
 3/5=4,6=6,7=111,11=2,16=1,25=1,30=1,71=2,74=-5,140=1/1,2,3;
 4//1;
 5/5=2,38=5/2;
 8/6=4,10=90,11=11/1;
 11/6=1,8=1,9=11,15=111,16=1/1,2,10;
 10/6=1,13=1/2;
 6/7=2,8=2,9=2,10=2,28=1/1;
 7/10=1,18=20,25=1/1,2,3,16;
 1/5=1,10=4,11=1,14=-1,18=20,26=3/3(2);
 2/9=110/2;
 99//99;
 2/9=110/2;
 3/5=4,6=6,7=111,11=2,16=1,25=1,30=1,71=1,74=-5/1,2,3;
 4/5=5,16=3,69=1/1;
 5/5=2,38=5/2;
 7//1,2,3,16;
 1/5=1,11=1,14=-1,18=20,26=3/3(-5);
 2/9=110/2;
 6/7=2,8=2,9=2,10=2,19=2,28=1/1;
 99/9=1/99;
 ------------
 DTS1ab_guess
 ------------
 Symbolic Z-matrix:
 Charge =  0 Multiplicity = 2
 C                    -1.88842   2.88016   0.00001 
 C                    -3.18506   2.3274    0. 
 C                    -3.34649   0.9439   -0.00001 
 C                    -2.15852   0.19189  -0.00001 
 C                    -0.8211    0.63263   0. 
 C                    -0.6826    2.04527   0.00001 
 C                     0.04689  -0.63619   0. 
 C                    -2.21635  -1.2034   -0.00001 
 C                    -0.90854  -1.69432   0. 
 C                    -4.57685   0.18003  -0.00001 
 C                    -3.36892  -1.95906  -0.00001 
 C                    -4.59459  -1.19447  -0.00001 
 C                    -0.70798  -3.07768   0. 
 C                    -3.16067  -3.38362  -0.00001 
 C                    -1.88851  -3.90904   0. 
 C                     1.41344  -1.05302   0. 
 C                     1.64833  -2.50213   0.00001 
 C                     0.62985  -3.46577   0.00001 
 C                     2.62142  -0.2106    0. 
 C                     2.98776  -3.02602   0.00001 
 C                     3.92775  -0.8077   -0.00001 
 C                     4.07479  -2.2309    0. 
 C                     0.54012   2.73864   0.00002 
 C                    -1.72947   4.29936   0.00002 
 C                    -0.49836   4.89584   0.00003 
 C                     0.67464   4.09187   0.00003 
 C                     2.63005   1.19081  -0.00001 
 C                     3.75767   1.97658  -0.00002 
 C                     5.08889  -0.00703  -0.00002 
 C                     5.02086   1.36898  -0.00002 
 H                    -5.54788  -1.71274  -0.00001 
 H                    -4.01424  -4.05345  -0.00001 
 H                    -1.75992  -4.98648   0. 
 H                     0.90967  -4.51412   0.00001 
 H                    -5.51791   0.7203   -0.00001 
 H                    -4.04067   2.99548   0. 
 H                    -2.62724   4.90843   0.00002 
 H                    -0.41056   5.97665   0.00003 
 H                     1.65157   4.56334   0.00004 
 H                     3.66992   3.05752  -0.00003 
 H                     5.92324   1.97022  -0.00003 
 H                     6.0519   -0.50612  -0.00002 
 H                     5.07505  -2.64993   0. 
 H                     3.09862  -4.10476   0.00001 
 H                     1.55827   1.92121   0. 
 

 GradGradGradGradGradGradGradGradGradGradGradGradGradGradGradGradGradGrad
 Berny optimization.
 Initialization pass.
                           ----------------------------
                           !    Initial Parameters    !
                           ! (Angstroms and Degrees)  !
 --------------------------                            --------------------------
 ! Name  Definition              Value          Derivative Info.                !
 --------------------------------------------------------------------------------
 ! R1    R(1,2)                  1.4095         calculate D2E/DX2 analytically  !
 ! R2    R(1,6)                  1.4666         calculate D2E/DX2 analytically  !
 ! R3    R(1,24)                 1.4281         calculate D2E/DX2 analytically  !
 ! R4    R(2,3)                  1.3929         calculate D2E/DX2 analytically  !
 ! R5    R(2,36)                 1.0855         calculate D2E/DX2 analytically  !
 ! R6    R(3,4)                  1.406          calculate D2E/DX2 analytically  !
 ! R7    R(3,10)                 1.4482         calculate D2E/DX2 analytically  !
 ! R8    R(4,5)                  1.4082         calculate D2E/DX2 analytically  !
 ! R9    R(4,8)                  1.3965         calculate D2E/DX2 analytically  !
 ! R10   R(5,6)                  1.4194         calculate D2E/DX2 analytically  !
 ! R11   R(5,7)                  1.5373         calculate D2E/DX2 analytically  !
 ! R12   R(6,23)                 1.4056         calculate D2E/DX2 analytically  !
 ! R13   R(7,9)                  1.4257         calculate D2E/DX2 analytically  !
 ! R14   R(7,16)                 1.4287         calculate D2E/DX2 analytically  !
 ! R15   R(8,9)                  1.3969         calculate D2E/DX2 analytically  !
 ! R16   R(8,11)                 1.3782         calculate D2E/DX2 analytically  !
 ! R17   R(9,13)                 1.3978         calculate D2E/DX2 analytically  !
 ! R18   R(10,12)                1.3746         calculate D2E/DX2 analytically  !
 ! R19   R(10,35)                1.0851         calculate D2E/DX2 analytically  !
 ! R20   R(11,12)                1.4446         calculate D2E/DX2 analytically  !
 ! R21   R(11,14)                1.4397         calculate D2E/DX2 analytically  !
 ! R22   R(12,31)                1.0851         calculate D2E/DX2 analytically  !
 ! R23   R(13,15)                1.4439         calculate D2E/DX2 analytically  !
 ! R24   R(13,18)                1.393          calculate D2E/DX2 analytically  !
 ! R25   R(14,15)                1.3764         calculate D2E/DX2 analytically  !
 ! R26   R(14,32)                1.085          calculate D2E/DX2 analytically  !
 ! R27   R(15,33)                1.0851         calculate D2E/DX2 analytically  !
 ! R28   R(16,17)                1.468          calculate D2E/DX2 analytically  !
 ! R29   R(16,19)                1.4727         calculate D2E/DX2 analytically  !
 ! R30   R(17,18)                1.4021         calculate D2E/DX2 analytically  !
 ! R31   R(17,20)                1.4382         calculate D2E/DX2 analytically  !
 ! R32   R(18,34)                1.0851         calculate D2E/DX2 analytically  !
 ! R33   R(19,21)                1.4363         calculate D2E/DX2 analytically  !
 ! R34   R(19,27)                1.4014         calculate D2E/DX2 analytically  !
 ! R35   R(20,22)                1.3468         calculate D2E/DX2 analytically  !
 ! R36   R(20,44)                1.0844         calculate D2E/DX2 analytically  !
 ! R37   R(21,22)                1.4308         calculate D2E/DX2 analytically  !
 ! R38   R(21,29)                1.4104         calculate D2E/DX2 analytically  !
 ! R39   R(22,43)                1.0845         calculate D2E/DX2 analytically  !
 ! R40   R(23,26)                1.3599         calculate D2E/DX2 analytically  !
 ! R41   R(24,25)                1.368          calculate D2E/DX2 analytically  !
 ! R42   R(24,37)                1.0849         calculate D2E/DX2 analytically  !
 ! R43   R(25,26)                1.4221         calculate D2E/DX2 analytically  !
 ! R44   R(25,38)                1.0844         calculate D2E/DX2 analytically  !
 ! R45   R(26,39)                1.0847         calculate D2E/DX2 analytically  !
 ! R46   R(27,28)                1.3744         calculate D2E/DX2 analytically  !
 ! R47   R(27,45)                1.297          calculate D2E/DX2 analytically  !
 ! R48   R(28,30)                1.4017         calculate D2E/DX2 analytically  !
 ! R49   R(28,40)                1.0845         calculate D2E/DX2 analytically  !
 ! R50   R(29,30)                1.3777         calculate D2E/DX2 analytically  !
 ! R51   R(29,42)                1.0847         calculate D2E/DX2 analytically  !
 ! R52   R(30,41)                1.0843         calculate D2E/DX2 analytically  !
 ! A1    A(2,1,6)              122.2133         calculate D2E/DX2 analytically  !
 ! A2    A(2,1,24)             119.4791         calculate D2E/DX2 analytically  !
 ! A3    A(6,1,24)             118.3076         calculate D2E/DX2 analytically  !
 ! A4    A(1,2,3)              119.744          calculate D2E/DX2 analytically  !
 ! A5    A(1,2,36)             118.9278         calculate D2E/DX2 analytically  !
 ! A6    A(3,2,36)             121.3282         calculate D2E/DX2 analytically  !
 ! A7    A(2,3,4)              115.6794         calculate D2E/DX2 analytically  !
 ! A8    A(2,3,10)             128.4894         calculate D2E/DX2 analytically  !
 ! A9    A(4,3,10)             115.8312         calculate D2E/DX2 analytically  !
 ! A10   A(3,4,5)              129.426          calculate D2E/DX2 analytically  !
 ! A11   A(3,4,8)              119.9613         calculate D2E/DX2 analytically  !
 ! A12   A(5,4,8)              110.6127         calculate D2E/DX2 analytically  !
 ! A13   A(4,5,6)              113.839          calculate D2E/DX2 analytically  !
 ! A14   A(4,5,7)              106.1364         calculate D2E/DX2 analytically  !
 ! A15   A(6,5,7)              140.0247         calculate D2E/DX2 analytically  !
 ! A16   A(1,6,5)              119.0985         calculate D2E/DX2 analytically  !
 ! A17   A(1,6,23)             115.7456         calculate D2E/DX2 analytically  !
 ! A18   A(5,6,23)             125.1559         calculate D2E/DX2 analytically  !
 ! A19   A(5,7,9)              103.5441         calculate D2E/DX2 analytically  !
 ! A20   A(5,7,16)             141.3387         calculate D2E/DX2 analytically  !
 ! A21   A(9,7,16)             115.1173         calculate D2E/DX2 analytically  !
 ! A22   A(4,8,9)              108.2016         calculate D2E/DX2 analytically  !
 ! A23   A(4,8,11)             125.6234         calculate D2E/DX2 analytically  !
 ! A24   A(9,8,11)             126.175          calculate D2E/DX2 analytically  !
 ! A25   A(7,9,8)              111.5053         calculate D2E/DX2 analytically  !
 ! A26   A(7,9,13)             129.6705         calculate D2E/DX2 analytically  !
 ! A27   A(8,9,13)             118.8242         calculate D2E/DX2 analytically  !
 ! A28   A(3,10,12)            122.5736         calculate D2E/DX2 analytically  !
 ! A29   A(3,10,35)            118.3054         calculate D2E/DX2 analytically  !
 ! A30   A(12,10,35)           119.121          calculate D2E/DX2 analytically  !
 ! A31   A(8,11,12)            114.7934         calculate D2E/DX2 analytically  !
 ! A32   A(8,11,14)            114.9332         calculate D2E/DX2 analytically  !
 ! A33   A(12,11,14)           130.2734         calculate D2E/DX2 analytically  !
 ! A34   A(10,12,11)           121.217          calculate D2E/DX2 analytically  !
 ! A35   A(10,12,31)           119.2708         calculate D2E/DX2 analytically  !
 ! A36   A(11,12,31)           119.5122         calculate D2E/DX2 analytically  !
 ! A37   A(9,13,15)            116.9049         calculate D2E/DX2 analytically  !
 ! A38   A(9,13,18)            114.4262         calculate D2E/DX2 analytically  !
 ! A39   A(15,13,18)           128.6689         calculate D2E/DX2 analytically  !
 ! A40   A(11,14,15)           120.7582         calculate D2E/DX2 analytically  !
 ! A41   A(11,14,32)           119.8058         calculate D2E/DX2 analytically  !
 ! A42   A(15,14,32)           119.436          calculate D2E/DX2 analytically  !
 ! A43   A(13,15,14)           122.4045         calculate D2E/DX2 analytically  !
 ! A44   A(13,15,33)           118.3483         calculate D2E/DX2 analytically  !
 ! A45   A(14,15,33)           119.2472         calculate D2E/DX2 analytically  !
 ! A46   A(7,16,17)            116.1701         calculate D2E/DX2 analytically  !
 ! A47   A(7,16,19)            128.1459         calculate D2E/DX2 analytically  !
 ! A48   A(17,16,19)           115.684          calculate D2E/DX2 analytically  !
 ! A49   A(16,17,18)           124.208          calculate D2E/DX2 analytically  !
 ! A50   A(16,17,20)           120.5691         calculate D2E/DX2 analytically  !
 ! A51   A(18,17,20)           115.2229         calculate D2E/DX2 analytically  !
 ! A52   A(13,18,17)           120.4079         calculate D2E/DX2 analytically  !
 ! A53   A(13,18,34)           121.1216         calculate D2E/DX2 analytically  !
 ! A54   A(17,18,34)           118.4705         calculate D2E/DX2 analytically  !
 ! A55   A(16,19,21)           120.5446         calculate D2E/DX2 analytically  !
 ! A56   A(16,19,27)           125.2439         calculate D2E/DX2 analytically  !
 ! A57   A(21,19,27)           114.2115         calculate D2E/DX2 analytically  !
 ! A58   A(17,20,22)           122.4541         calculate D2E/DX2 analytically  !
 ! A59   A(17,20,44)           117.2295         calculate D2E/DX2 analytically  !
 ! A60   A(22,20,44)           120.3164         calculate D2E/DX2 analytically  !
 ! A61   A(19,21,22)           120.463          calculate D2E/DX2 analytically  !
 ! A62   A(19,21,29)           120.8473         calculate D2E/DX2 analytically  !
 ! A63   A(22,21,29)           118.6897         calculate D2E/DX2 analytically  !
 ! A64   A(20,22,21)           120.2853         calculate D2E/DX2 analytically  !
 ! A65   A(20,22,43)           121.0861         calculate D2E/DX2 analytically  !
 ! A66   A(21,22,43)           118.6285         calculate D2E/DX2 analytically  !
 ! A67   A(6,23,26)            125.2333         calculate D2E/DX2 analytically  !
 ! A68   A(1,24,25)            122.2409         calculate D2E/DX2 analytically  !
 ! A69   A(1,24,37)            117.7635         calculate D2E/DX2 analytically  !
 ! A70   A(25,24,37)           119.9956         calculate D2E/DX2 analytically  !
 ! A71   A(24,25,26)           119.7229         calculate D2E/DX2 analytically  !
 ! A72   A(24,25,38)           120.4947         calculate D2E/DX2 analytically  !
 ! A73   A(26,25,38)           119.7824         calculate D2E/DX2 analytically  !
 ! A74   A(23,26,25)           118.7497         calculate D2E/DX2 analytically  !
 ! A75   A(23,26,39)           121.4391         calculate D2E/DX2 analytically  !
 ! A76   A(25,26,39)           119.8113         calculate D2E/DX2 analytically  !
 ! A77   A(19,27,28)           125.2231         calculate D2E/DX2 analytically  !
 ! A78   A(19,27,45)           123.9209         calculate D2E/DX2 analytically  !
 ! A79   A(28,27,45)           110.8559         calculate D2E/DX2 analytically  !
 ! A80   A(27,28,30)           119.4419         calculate D2E/DX2 analytically  !
 ! A81   A(27,28,40)           120.2292         calculate D2E/DX2 analytically  !
 ! A82   A(30,28,40)           120.3288         calculate D2E/DX2 analytically  !
 ! A83   A(21,29,30)           121.758          calculate D2E/DX2 analytically  !
 ! A84   A(21,29,42)           118.0157         calculate D2E/DX2 analytically  !
 ! A85   A(30,29,42)           120.2263         calculate D2E/DX2 analytically  !
 ! A86   A(28,30,29)           118.5182         calculate D2E/DX2 analytically  !
 ! A87   A(28,30,41)           120.6374         calculate D2E/DX2 analytically  !
 ! A88   A(29,30,41)           120.8444         calculate D2E/DX2 analytically  !
 ! D1    D(6,1,2,3)              0.0            calculate D2E/DX2 analytically  !
 ! D2    D(6,1,2,36)          -180.0            calculate D2E/DX2 analytically  !
 ! D3    D(24,1,2,3)           180.0            calculate D2E/DX2 analytically  !
 ! D4    D(24,1,2,36)            0.0            calculate D2E/DX2 analytically  !
 ! D5    D(2,1,6,5)              0.0            calculate D2E/DX2 analytically  !
 ! D6    D(2,1,6,23)           180.0            calculate D2E/DX2 analytically  !
 ! D7    D(24,1,6,5)          -180.0            calculate D2E/DX2 analytically  !
 ! D8    D(24,1,6,23)            0.0            calculate D2E/DX2 analytically  !
 ! D9    D(2,1,24,25)          180.0            calculate D2E/DX2 analytically  !
 ! D10   D(2,1,24,37)            0.0            calculate D2E/DX2 analytically  !
 ! D11   D(6,1,24,25)            0.0            calculate D2E/DX2 analytically  !
 ! D12   D(6,1,24,37)         -180.0            calculate D2E/DX2 analytically  !
 ! D13   D(1,2,3,4)              0.0            calculate D2E/DX2 analytically  !
 ! D14   D(1,2,3,10)           179.9994         calculate D2E/DX2 analytically  !
 ! D15   D(36,2,3,4)           179.9999         calculate D2E/DX2 analytically  !
 ! D16   D(36,2,3,10)           -0.0006         calculate D2E/DX2 analytically  !
 ! D17   D(2,3,4,5)              0.0001         calculate D2E/DX2 analytically  !
 ! D18   D(2,3,4,8)            179.9995         calculate D2E/DX2 analytically  !
 ! D19   D(10,3,4,5)          -179.9995         calculate D2E/DX2 analytically  !
 ! D20   D(10,3,4,8)             0.0            calculate D2E/DX2 analytically  !
 ! D21   D(2,3,10,12)         -179.9995         calculate D2E/DX2 analytically  !
 ! D22   D(2,3,10,35)            0.0005         calculate D2E/DX2 analytically  !
 ! D23   D(4,3,10,12)            0.0            calculate D2E/DX2 analytically  !
 ! D24   D(4,3,10,35)          180.0            calculate D2E/DX2 analytically  !
 ! D25   D(3,4,5,6)             -0.0001         calculate D2E/DX2 analytically  !
 ! D26   D(3,4,5,7)            179.9998         calculate D2E/DX2 analytically  !
 ! D27   D(8,4,5,6)           -179.9996         calculate D2E/DX2 analytically  !
 ! D28   D(8,4,5,7)              0.0003         calculate D2E/DX2 analytically  !
 ! D29   D(3,4,8,9)           -179.9996         calculate D2E/DX2 analytically  !
 ! D30   D(3,4,8,11)             0.0            calculate D2E/DX2 analytically  !
 ! D31   D(5,4,8,9)              0.0            calculate D2E/DX2 analytically  !
 ! D32   D(5,4,8,11)           179.9996         calculate D2E/DX2 analytically  !
 ! D33   D(4,5,6,1)              0.0            calculate D2E/DX2 analytically  !
 ! D34   D(4,5,6,23)          -179.9999         calculate D2E/DX2 analytically  !
 ! D35   D(7,5,6,1)           -179.9997         calculate D2E/DX2 analytically  !
 ! D36   D(7,5,6,23)             0.0003         calculate D2E/DX2 analytically  !
 ! D37   D(4,5,7,9)             -0.0004         calculate D2E/DX2 analytically  !
 ! D38   D(4,5,7,16)           179.9996         calculate D2E/DX2 analytically  !
 ! D39   D(6,5,7,9)            179.9994         calculate D2E/DX2 analytically  !
 ! D40   D(6,5,7,16)            -0.0006         calculate D2E/DX2 analytically  !
 ! D41   D(1,6,23,26)            0.0            calculate D2E/DX2 analytically  !
 ! D42   D(5,6,23,26)         -180.0            calculate D2E/DX2 analytically  !
 ! D43   D(5,7,9,8)              0.0004         calculate D2E/DX2 analytically  !
 ! D44   D(5,7,9,13)           180.0            calculate D2E/DX2 analytically  !
 ! D45   D(16,7,9,8)          -179.9996         calculate D2E/DX2 analytically  !
 ! D46   D(16,7,9,13)            0.0            calculate D2E/DX2 analytically  !
 ! D47   D(5,7,16,17)          179.9996         calculate D2E/DX2 analytically  !
 ! D48   D(5,7,16,19)            0.0            calculate D2E/DX2 analytically  !
 ! D49   D(9,7,16,17)           -0.0004         calculate D2E/DX2 analytically  !
 ! D50   D(9,7,16,19)          180.0            calculate D2E/DX2 analytically  !
 ! D51   D(4,8,9,7)             -0.0003         calculate D2E/DX2 analytically  !
 ! D52   D(4,8,9,13)          -179.9999         calculate D2E/DX2 analytically  !
 ! D53   D(11,8,9,7)          -179.9999         calculate D2E/DX2 analytically  !
 ! D54   D(11,8,9,13)            0.0005         calculate D2E/DX2 analytically  !
 ! D55   D(4,8,11,12)            0.0            calculate D2E/DX2 analytically  !
 ! D56   D(4,8,11,14)          180.0            calculate D2E/DX2 analytically  !
 ! D57   D(9,8,11,12)          179.9995         calculate D2E/DX2 analytically  !
 ! D58   D(9,8,11,14)           -0.0005         calculate D2E/DX2 analytically  !
 ! D59   D(7,9,13,15)          180.0            calculate D2E/DX2 analytically  !
 ! D60   D(7,9,13,18)            0.0005         calculate D2E/DX2 analytically  !
 ! D61   D(8,9,13,15)           -0.0005         calculate D2E/DX2 analytically  !
 ! D62   D(8,9,13,18)          180.0            calculate D2E/DX2 analytically  !
 ! D63   D(3,10,12,11)           0.0            calculate D2E/DX2 analytically  !
 ! D64   D(3,10,12,31)         180.0            calculate D2E/DX2 analytically  !
 ! D65   D(35,10,12,11)        180.0            calculate D2E/DX2 analytically  !
 ! D66   D(35,10,12,31)          0.0            calculate D2E/DX2 analytically  !
 ! D67   D(8,11,12,10)           0.0            calculate D2E/DX2 analytically  !
 ! D68   D(8,11,12,31)         180.0            calculate D2E/DX2 analytically  !
 ! D69   D(14,11,12,10)        180.0            calculate D2E/DX2 analytically  !
 ! D70   D(14,11,12,31)          0.0            calculate D2E/DX2 analytically  !
 ! D71   D(8,11,14,15)           0.0005         calculate D2E/DX2 analytically  !
 ! D72   D(8,11,14,32)         180.0            calculate D2E/DX2 analytically  !
 ! D73   D(12,11,14,15)       -179.9995         calculate D2E/DX2 analytically  !
 ! D74   D(12,11,14,32)          0.0            calculate D2E/DX2 analytically  !
 ! D75   D(9,13,15,14)           0.0005         calculate D2E/DX2 analytically  !
 ! D76   D(9,13,15,33)         180.0            calculate D2E/DX2 analytically  !
 ! D77   D(18,13,15,14)        180.0            calculate D2E/DX2 analytically  !
 ! D78   D(18,13,15,33)         -0.0005         calculate D2E/DX2 analytically  !
 ! D79   D(9,13,18,17)          -0.0004         calculate D2E/DX2 analytically  !
 ! D80   D(9,13,18,34)        -179.9999         calculate D2E/DX2 analytically  !
 ! D81   D(15,13,18,17)       -179.9999         calculate D2E/DX2 analytically  !
 ! D82   D(15,13,18,34)          0.0006         calculate D2E/DX2 analytically  !
 ! D83   D(11,14,15,13)         -0.0005         calculate D2E/DX2 analytically  !
 ! D84   D(11,14,15,33)        180.0            calculate D2E/DX2 analytically  !
 ! D85   D(32,14,15,13)        180.0            calculate D2E/DX2 analytically  !
 ! D86   D(32,14,15,33)          0.0005         calculate D2E/DX2 analytically  !
 ! D87   D(7,16,17,18)           0.0005         calculate D2E/DX2 analytically  !
 ! D88   D(7,16,17,20)         180.0            calculate D2E/DX2 analytically  !
 ! D89   D(19,16,17,18)       -179.9999         calculate D2E/DX2 analytically  !
 ! D90   D(19,16,17,20)         -0.0004         calculate D2E/DX2 analytically  !
 ! D91   D(7,16,19,21)        -179.9995         calculate D2E/DX2 analytically  !
 ! D92   D(7,16,19,27)          -0.0005         calculate D2E/DX2 analytically  !
 ! D93   D(17,16,19,21)          0.0009         calculate D2E/DX2 analytically  !
 ! D94   D(17,16,19,27)        179.9999         calculate D2E/DX2 analytically  !
 ! D95   D(16,17,18,13)          0.0            calculate D2E/DX2 analytically  !
 ! D96   D(16,17,18,34)        179.9995         calculate D2E/DX2 analytically  !
 ! D97   D(20,17,18,13)       -179.9995         calculate D2E/DX2 analytically  !
 ! D98   D(20,17,18,34)          0.0            calculate D2E/DX2 analytically  !
 ! D99   D(16,17,20,22)         -0.0001         calculate D2E/DX2 analytically  !
 ! D100  D(16,17,20,44)       -179.9995         calculate D2E/DX2 analytically  !
 ! D101  D(18,17,20,22)        179.9995         calculate D2E/DX2 analytically  !
 ! D102  D(18,17,20,44)          0.0            calculate D2E/DX2 analytically  !
 ! D103  D(16,19,21,22)         -0.0009         calculate D2E/DX2 analytically  !
 ! D104  D(16,19,21,29)        179.9995         calculate D2E/DX2 analytically  !
 ! D105  D(27,19,21,22)        179.9999         calculate D2E/DX2 analytically  !
 ! D106  D(27,19,21,29)          0.0004         calculate D2E/DX2 analytically  !
 ! D107  D(16,19,27,28)       -179.9995         calculate D2E/DX2 analytically  !
 ! D108  D(16,19,27,45)          0.0011         calculate D2E/DX2 analytically  !
 ! D109  D(21,19,27,28)         -0.0004         calculate D2E/DX2 analytically  !
 ! D110  D(21,19,27,45)       -179.9998         calculate D2E/DX2 analytically  !
 ! D111  D(17,20,22,21)          0.0001         calculate D2E/DX2 analytically  !
 ! D112  D(17,20,22,43)       -180.0            calculate D2E/DX2 analytically  !
 ! D113  D(44,20,22,21)        179.9995         calculate D2E/DX2 analytically  !
 ! D114  D(44,20,22,43)         -0.0005         calculate D2E/DX2 analytically  !
 ! D115  D(19,21,22,20)          0.0004         calculate D2E/DX2 analytically  !
 ! D116  D(19,21,22,43)       -179.9995         calculate D2E/DX2 analytically  !
 ! D117  D(29,21,22,20)        180.0            calculate D2E/DX2 analytically  !
 ! D118  D(29,21,22,43)          0.0            calculate D2E/DX2 analytically  !
 ! D119  D(19,21,29,30)          0.0            calculate D2E/DX2 analytically  !
 ! D120  D(19,21,29,42)        179.9996         calculate D2E/DX2 analytically  !
 ! D121  D(22,21,29,30)       -179.9995         calculate D2E/DX2 analytically  !
 ! D122  D(22,21,29,42)          0.0            calculate D2E/DX2 analytically  !
 ! D123  D(6,23,26,25)           0.0            calculate D2E/DX2 analytically  !
 ! D124  D(6,23,26,39)         179.9998         calculate D2E/DX2 analytically  !
 ! D125  D(1,24,25,26)           0.0            calculate D2E/DX2 analytically  !
 ! D126  D(1,24,25,38)         179.9995         calculate D2E/DX2 analytically  !
 ! D127  D(37,24,25,26)        180.0            calculate D2E/DX2 analytically  !
 ! D128  D(37,24,25,38)         -0.0005         calculate D2E/DX2 analytically  !
 ! D129  D(24,25,26,23)          0.0            calculate D2E/DX2 analytically  !
 ! D130  D(24,25,26,39)       -179.9999         calculate D2E/DX2 analytically  !
 ! D131  D(38,25,26,23)       -179.9995         calculate D2E/DX2 analytically  !
 ! D132  D(38,25,26,39)          0.0006         calculate D2E/DX2 analytically  !
 ! D133  D(19,27,28,30)          0.0            calculate D2E/DX2 analytically  !
 ! D134  D(19,27,28,40)        179.9998         calculate D2E/DX2 analytically  !
 ! D135  D(45,27,28,30)        179.9995         calculate D2E/DX2 analytically  !
 ! D136  D(45,27,28,40)         -0.0007         calculate D2E/DX2 analytically  !
 ! D137  D(27,28,30,29)          0.0005         calculate D2E/DX2 analytically  !
 ! D138  D(27,28,30,41)        179.9999         calculate D2E/DX2 analytically  !
 ! D139  D(40,28,30,29)       -179.9994         calculate D2E/DX2 analytically  !
 ! D140  D(40,28,30,41)          0.0            calculate D2E/DX2 analytically  !
 ! D141  D(21,29,30,28)         -0.0005         calculate D2E/DX2 analytically  !
 ! D142  D(21,29,30,41)       -179.9999         calculate D2E/DX2 analytically  !
 ! D143  D(42,29,30,28)        180.0            calculate D2E/DX2 analytically  !
 ! D144  D(42,29,30,41)          0.0006         calculate D2E/DX2 analytically  !
 --------------------------------------------------------------------------------
 Trust Radius=3.00D-01 FncErr=1.00D-07 GrdErr=1.00D-06
 Number of steps in this run=    270 maximum allowed number of steps=    270.
 Search for a saddle point of order  1.
 GradGradGradGradGradGradGradGradGradGradGradGradGradGradGradGradGradGrad

                          Input orientation:                          
 ---------------------------------------------------------------------
 Center     Atomic      Atomic             Coordinates (Angstroms)
 Number     Number       Type             X           Y           Z
 ---------------------------------------------------------------------
      1          6           0       -1.888420    2.880160    0.000010
      2          6           0       -3.185060    2.327400    0.000000
      3          6           0       -3.346490    0.943900   -0.000010
      4          6           0       -2.158520    0.191890   -0.000010
      5          6           0       -0.821100    0.632630    0.000000
      6          6           0       -0.682600    2.045270    0.000010
      7          6           0        0.046890   -0.636190    0.000000
      8          6           0       -2.216350   -1.203400   -0.000010
      9          6           0       -0.908540   -1.694320    0.000000
     10          6           0       -4.576850    0.180030   -0.000010
     11          6           0       -3.368920   -1.959060   -0.000010
     12          6           0       -4.594590   -1.194470   -0.000010
     13          6           0       -0.707980   -3.077680    0.000000
     14          6           0       -3.160670   -3.383620   -0.000010
     15          6           0       -1.888510   -3.909040    0.000000
     16          6           0        1.413440   -1.053020    0.000000
     17          6           0        1.648330   -2.502130    0.000010
     18          6           0        0.629850   -3.465770    0.000010
     19          6           0        2.621420   -0.210600    0.000000
     20          6           0        2.987760   -3.026020    0.000010
     21          6           0        3.927750   -0.807700   -0.000010
     22          6           0        4.074790   -2.230900    0.000000
     23          6           0        0.540120    2.738640    0.000020
     24          6           0       -1.729470    4.299360    0.000020
     25          6           0       -0.498360    4.895840    0.000030
     26          6           0        0.674640    4.091870    0.000030
     27          6           0        2.630050    1.190810   -0.000010
     28          6           0        3.757670    1.976580   -0.000020
     29          6           0        5.088890   -0.007030   -0.000020
     30          6           0        5.020860    1.368980   -0.000020
     31          1           0       -5.547880   -1.712740   -0.000010
     32          1           0       -4.014240   -4.053450   -0.000010
     33          1           0       -1.759920   -4.986480    0.000000
     34          1           0        0.909670   -4.514120    0.000010
     35          1           0       -5.517910    0.720300   -0.000010
     36          1           0       -4.040670    2.995480    0.000000
     37          1           0       -2.627240    4.908430    0.000020
     38          1           0       -0.410560    5.976650    0.000030
     39          1           0        1.651570    4.563340    0.000040
     40          1           0        3.669920    3.057520   -0.000030
     41          1           0        5.923240    1.970220   -0.000030
     42          1           0        6.051900   -0.506120   -0.000020
     43          1           0        5.075050   -2.649930    0.000000
     44          1           0        3.098620   -4.104760    0.000010
     45          1           0        1.558270    1.921210    0.000000
 ---------------------------------------------------------------------
                    Distance matrix (angstroms):
                    1          2          3          4          5
     1  C    0.000000
     2  C    1.409546   0.000000
     3  C    2.423855   1.392886   0.000000
     4  C    2.701805   2.369428   1.405984   0.000000
     5  C    2.488084   2.908703   2.544501   1.408170   0.000000
     6  C    1.466644   2.518314   2.882590   2.369252   1.419413
     7  C    4.013744   4.385016   3.743222   2.355748   1.537306
     8  C    4.096706   3.661277   2.426544   1.396488   2.306020
     9  C    4.678251   4.621339   3.592187   2.262794   2.328592
    10  C    3.810296   2.558960   1.448200   2.418359   3.782923
    11  C    5.060626   4.290401   2.903047   2.468128   3.634315
    12  C    4.891418   3.793461   2.475960   2.802933   4.192555
    13  C    6.073656   5.945655   4.809869   3.576892   3.712034
    14  C    6.391679   5.711072   4.331508   3.713297   4.647994
    15  C    6.789200   6.369790   5.067221   4.109809   4.665419
    16  C    5.135386   5.707315   5.161843   3.782684   2.799033
    17  C    6.440314   6.832717   6.068225   4.663674   3.990590
    18  C    6.827336   6.936451   5.937716   4.599292   4.347659
    19  C    5.467308   6.336928   6.078554   4.796856   3.544288
    20  C    7.658988   8.170851   7.475492   6.069526   5.281395
    21  C    6.886809   7.773089   7.482157   6.167809   4.962472
    22  C    7.853840   8.572253   8.071849   6.687605   5.671820
    23  C    2.432660   3.747811   4.280985   3.710606   2.507628
    24  C    1.428073   2.450993   3.724764   4.129818   3.777571
    25  C    2.448516   3.716886   4.871311   4.988314   4.275409
    26  C    2.835052   4.243894   5.106780   4.820440   3.768764
    27  C    4.823948   5.925145   5.981638   4.891650   3.495998
    28  C    5.717936   6.951588   7.178824   6.179516   4.771932
    29  C    7.551074   8.596965   8.488810   7.250139   5.944506
    30  C    7.072610   8.261700   8.378141   7.275235   5.888184
    31  H    5.872510   4.680347   3.450196   3.887850   5.276667
    32  H    7.252176   6.434500   5.041765   4.633207   5.670581
    33  H    7.867689   7.451434   6.138942   5.193688   5.696997
    34  H    7.905990   7.973281   6.921335   5.617857   5.429972
    35  H    4.223528   2.832836   2.182902   3.400694   4.697628
    36  H    2.155337   1.085541   2.165841   3.376774   3.993581
    37  H    2.158642   2.640621   4.029245   4.739773   4.641617
    38  H    3.431082   4.584198   5.826513   6.043080   5.359766
    39  H    3.919773   5.328454   6.170976   5.798824   4.643768
    40  H    5.561169   6.893753   7.327851   6.494809   5.103857
    41  H    7.864479   9.115301   9.326373   8.275101   6.875701
    42  H    8.632240   9.661794   9.509590   8.240037   6.966698
    43  H    8.892233   9.643818   9.156307   7.771774   6.748317
    44  H    8.582522   8.992070   8.187088   6.789604   6.148745
    45  H    3.577605   4.760690   5.001180   4.099399   2.705890
                    6          7          8          9         10
     6  C    0.000000
     7  C    2.778918   0.000000
     8  C    3.592526   2.333234   0.000000
     9  C    3.746409   1.425653   1.396914   0.000000
    10  C    4.317905   4.695230   2.736026   4.119428   0.000000
    11  C    4.821926   3.663024   1.378202   2.474582   2.456583
    12  C    5.079329   4.674935   2.378257   3.719787   1.374614
    13  C    5.123013   2.555524   2.405848   1.397823   5.057749
    14  C    5.967720   4.223365   2.375942   2.815284   3.834732
    15  C    6.075198   3.802278   2.725430   2.421843   4.893635
    16  C    3.740693   1.428708   3.632904   2.408912   6.115880
    17  C    5.109998   2.458931   4.077064   2.681444   6.778410
    18  C    5.665164   2.889008   3.635818   2.346205   6.356224
    19  C    4.000687   2.609470   4.938590   3.829105   7.208861
    20  C    6.260154   3.789460   5.514046   4.117594   8.215965
    21  C    5.421694   3.884648   6.156829   4.916889   8.561766
    22  C    6.396748   4.332099   6.374496   5.012135   8.981284
    23  C    1.405634   3.410682   4.810177   4.663663   5.721002
    24  C    2.485329   5.245485   5.524257   6.049639   5.007639
    25  C    2.856518   5.558836   6.336578   6.602913   6.234817
    26  C    2.455743   4.769551   6.033051   5.998871   6.548331
    27  C    3.421075   3.163960   5.405537   4.565698   7.277437
    28  C    4.440801   4.538332   6.767657   5.937089   8.525950
    29  C    6.125523   5.081103   7.402556   6.230258   9.667550
    30  C    5.743416   5.362936   7.680778   6.673949   9.671072
    31  H    6.147649   5.697404   3.370240   4.639377   2.127317
    32  H    6.949404   5.307584   3.369747   3.900111   4.270701
    33  H    7.113798   4.710582   3.810515   3.400465   5.884549
    34  H    6.749883   3.972748   4.553336   3.355169   7.220592
    35  H    5.013558   5.727745   3.821115   5.203526   1.085120
    36  H    3.489919   5.467831   4.578071   5.639545   2.866051
    37  H    3.461114   6.155793   6.125626   6.822773   5.114562
    38  H    3.940781   6.628643   7.403647   7.687117   7.138542
    39  H    3.433515   5.441517   6.943781   6.761100   7.616208
    40  H    4.468678   5.173958   7.266610   6.598657   8.734367
    41  H    6.606266   6.428442   8.736406   7.752553  10.651604
    42  H    7.201603   6.006419   8.297599   7.061129  10.650875
    43  H    7.429363   5.416414   7.433503   6.059417  10.058223
    44  H    7.219452   4.619960   6.055311   4.676275   8.790464
    45  H    2.244302   2.970617   4.900096   4.376895   6.377414
                   11         12         13         14         15
    11  C    0.000000
    12  C    1.444598   0.000000
    13  C    2.886505   4.318821   0.000000
    14  C    1.439701   2.616965   2.471697   0.000000
    15  C    2.448272   3.832983   1.443887   1.376393   0.000000
    16  C    4.867430   6.009695   2.932520   5.133632   4.365744
    17  C    5.046556   6.378403   2.425583   4.889121   3.806394
    18  C    4.273212   5.696804   1.392983   3.791410   2.557074
    19  C    6.240295   7.282774   4.393751   6.595500   5.832489
    20  C    6.445602   7.800424   3.696101   6.158820   4.955576
    21  C    7.386950   8.531112   5.161667   7.541953   6.591448
    22  C    7.448672   8.731113   4.857152   7.326708   6.194925
    23  C    6.111381   6.467967   5.948725   7.153874   7.077421
    24  C    6.469592   6.196054   7.447426   7.815147   8.209941
    25  C    7.431673   7.339685   7.976275   8.696974   8.913946
    26  C    7.277646   7.463925   7.301649   8.401937   8.401446
    27  C    6.775642   7.608218   5.418713   7.379556   6.813652
    28  C    8.141102   8.933969   6.744448   8.751867   8.155972
    29  C    8.680148   9.756013   6.559923   8.913843   7.994360
    30  C    9.025755   9.951289   7.252061   9.461746   8.694647
    31  H    2.192838   1.085065   5.028687   2.913865   4.267871
    32  H    2.191554   2.917289   3.447243   1.085013   2.130630
    33  H    3.428433   4.734416   2.179471   2.128676   1.085086
    34  H    4.983439   6.427827   2.163366   4.224417   2.862854
    35  H    3.434695   2.125762   6.128628   4.732731   5.882460
    36  H    4.999871   4.226406   6.927488   6.439512   7.232164
    37  H    6.907424   6.412165   8.213496   8.309190   8.848361
    38  H    8.469202   8.302474   9.059214   9.755909   9.995559
    39  H    8.230858   8.495110   7.997041   9.290416   9.182232
    40  H    8.643572   9.294167   7.537021   9.388570   8.912301
    41  H   10.088780  10.983625   8.333929  10.544241   9.776970
    42  H    9.532202  10.668719   7.232489   9.651500   8.638864
    43  H    8.472186   9.778563   5.798828   8.268336   7.076477
    44  H    6.814184   8.225282   3.942727   6.300695   4.990969
    45  H    6.271658   6.896749   5.488605   7.099973   6.772895
                   16         17         18         19         20
    16  C    0.000000
    17  C    1.468024   0.000000
    18  C    2.536804   1.402107   0.000000
    19  C    1.472714   2.489581   3.816082   0.000000
    20  C    2.524126   1.438240   2.398566   2.839154   0.000000
    21  C    2.526250   2.840220   4.235738   1.436324   2.409258
    22  C    2.910358   2.441572   3.659579   2.488754   1.346792
    23  C    3.890935   5.356659   6.205059   3.609685   6.262767
    24  C    6.206920   7.594063   8.115641   6.266577   8.712833
    25  C    6.248513   7.703132   8.437380   5.984042   8.654993
    26  C    5.197665   6.665501   7.557773   4.722415   7.484309
    27  C    2.552433   3.821201   5.067991   1.401437   4.231975
    28  C    3.830651   4.950572   6.277136   2.464715   5.061499
    29  C    3.821391   4.250056   5.643219   2.475853   3.678185
    30  C    4.345062   5.134146   6.531139   2.872697   4.842471
    31  H    6.992511   7.239377   6.421640   8.306256   8.636079
    32  H    6.201797   5.871226   4.681126   7.668082   7.076978
    33  H    5.053941   4.217602   2.832589   6.481140   5.136523
    34  H    3.497570   2.143297   1.085052   4.631455   2.555954
    35  H    7.154598   7.857420   7.437616   8.192391   9.294156
    36  H    6.792471   7.911285   7.972547   7.393402   9.255122
    37  H    7.201804   8.555519   8.985314   7.331637   9.720274
    38  H    7.262454   8.725178   9.499566   6.890208   9.622715
    39  H    5.621406   7.065471   8.093857   4.871459   7.706088
    40  H    4.689162   5.915787   7.196898   3.432195   6.121667
    41  H    5.429390   6.186822   7.587487   3.957018   5.794778
    42  H    4.670590   4.834820   6.177229   3.443185   3.967222
    43  H    3.994685   3.429906   4.519447   3.459860   2.120902
    44  H    3.486108   2.161426   2.550124   3.923290   1.084421
    45  H    2.977754   4.424257   5.466399   2.382205   5.149614
                   21         22         23         24         25
    21  C    0.000000
    22  C    1.430776   0.000000
    23  C    4.904341   6.098378   0.000000
    24  C    7.621430   8.736918   2.754430   0.000000
    25  C    7.219475   8.467829   2.394150   1.367999   0.000000
    26  C    5.881200   7.179028   1.359900   2.413047   1.422075
    27  C    2.382870   3.714212   2.600689   5.354297   4.849144
    28  C    2.789470   4.219414   3.306564   5.958524   5.160995
    29  C    1.410432   2.444176   5.313192   8.064430   7.433404
    30  C    2.435739   3.722121   4.685403   7.358946   6.549850
    31  H    9.518753   9.636611   7.541785   7.122191   8.316909
    32  H    8.579633   8.291809   8.177694   8.659654   9.615155
    33  H    7.057747   6.452679   8.060252   9.285890   9.962519
    34  H    4.779786   3.902701   7.262169   9.200135   9.514720
    35  H    9.568452  10.036407   6.385407   5.211713   6.529243
    36  H    8.829490   9.652758   4.587985   2.653629   4.019867
    37  H    8.697243   9.792203   3.839291   1.084877   2.128917
    38  H    8.052847   9.353194   3.374685   2.133735   1.084370
    39  H    5.833444   7.213438   2.136551   3.391330   2.175490
    40  H    3.873810   5.303895   3.146003   5.540359   4.555653
    41  H    3.420354   4.589790   5.437688   7.999304   7.056642
    42  H    2.145452   2.623705   6.395951   9.145620   8.490411
    43  H    2.170278   1.084484   7.042888   9.725951   9.380914
    44  H    3.399715   2.112879   7.306028   9.692249   9.692733
    45  H    3.614054   4.855192   1.305688   4.057688   3.616373
                   26         27         28         29         30
    26  C    0.000000
    27  C    3.498539   0.000000
    28  C    3.738920   1.374395   0.000000
    29  C    6.023835   2.735090   2.388903   0.000000
    30  C    5.128719   2.397440   1.401723   1.377691   0.000000
    31  H    8.509598   8.678084  10.010212  10.772666  11.008872
    32  H    9.398502   8.464565   9.836862   9.961952  10.537352
    33  H    9.399123   7.578308   8.884143   8.467651   9.293592
    34  H    8.609199   5.958686   7.088039   6.146523   7.177238
    35  H    7.050898   8.161534   9.360268  10.631708  10.558715
    36  H    4.841097   6.910524   7.864621   9.610616   9.206347
    37  H    3.401350   6.438928   7.025868   9.148793   8.427404
    38  H    2.174869   5.670059   5.777084   8.127015   7.122566
    39  H    1.084747   3.511607   3.335713   5.718693   4.642849
    40  H    3.168846   2.136805   1.084496   3.377120   2.162454
    41  H    5.661201   3.384166   2.165579   2.146080   1.084334
    42  H    7.075057   3.819506   3.380428   1.084656   2.139870
    43  H    8.050806   4.552945   4.810414   2.642936   4.019275
    44  H    8.547539   5.316260   6.116947   4.555498   5.801451
    45  H    2.343623   1.296995   2.200097   4.022858   3.506350
                   31         32         33         34         35
    31  H    0.000000
    32  H    2.798388   0.000000
    33  H    5.006597   2.439775   0.000000
    34  H    7.039011   4.945413   2.711058   0.000000
    35  H    2.433225   5.004969   6.832995   8.289327   0.000000
    36  H    4.943583   7.048980   8.301416   8.994440   2.712689
    37  H    7.236714   9.068576   9.932849  10.064501   5.088851
    38  H    9.247636  10.657834  11.045859  10.573517   7.329000
    39  H    9.550982  10.312637  10.140874   9.107727   8.134519
    40  H   10.378980  10.469585   9.705107   8.059076   9.480444
    41  H   12.047854  11.620590  10.364681   8.196496  11.509223
    42  H   11.662368  10.672897   9.005452   6.519708  11.634630
    43  H   10.664191   9.197014   7.223315   4.563507  11.116171
    44  H    8.971272   7.113045   4.937898   2.226899   9.875515
    45  H    7.981413   8.170032   7.663326   6.467933   7.177361
                   36         37         38         39         40
    36  H    0.000000
    37  H    2.378479   0.000000
    38  H    4.697347   2.460643   0.000000
    39  H    5.904217   4.292703   2.499965   0.000000
    40  H    7.710840   6.563543   5.017134   2.518180   0.000000
    41  H   10.016519   9.041227   7.494565   4.997143   2.501934
    42  H   10.682751  10.229605   9.153671   6.712848   4.286416
    43  H   10.722267  10.791389  10.223003   7.984452   5.877872
    44  H   10.068906  10.678158  10.674698   8.788055   7.185029
    45  H    5.701069   5.142176   4.508091   2.643777   2.397971
                   41         42         43         44         45
    41  H    0.000000
    42  H    2.479680   0.000000
    43  H    4.697362   2.355877   0.000000
    44  H    6.699542   4.655327   2.454141   0.000000
    45  H    4.365245   5.107313   5.767414   6.219726   0.000000
 Stoichiometry    C30H15(2)
 Framework group  C1[X(C30H15)]
 Deg. of freedom   129
 Full point group                 C1      NOp   1
 Largest Abelian subgroup         C1      NOp   1
 Largest concise Abelian subgroup C1      NOp   1
                         Standard orientation:                         
 ---------------------------------------------------------------------
 Center     Atomic      Atomic             Coordinates (Angstroms)
 Number     Number       Type             X           Y           Z
 ---------------------------------------------------------------------
      1          6           0       -1.888423    2.880158    0.000010
      2          6           0       -3.185062    2.327397    0.000000
      3          6           0       -3.346491    0.943897   -0.000010
      4          6           0       -2.158520    0.191888   -0.000010
      5          6           0       -0.821101    0.632629    0.000000
      6          6           0       -0.682602    2.045269    0.000010
      7          6           0        0.046891   -0.636190    0.000000
      8          6           0       -2.216349   -1.203402   -0.000010
      9          6           0       -0.908538   -1.694321    0.000000
     10          6           0       -4.576850    0.180026   -0.000010
     11          6           0       -3.368918   -1.959063   -0.000010
     12          6           0       -4.594589   -1.194474   -0.000010
     13          6           0       -0.707977   -3.077681    0.000000
     14          6           0       -3.160667   -3.383623   -0.000010
     15          6           0       -1.888506   -3.909042    0.000000
     16          6           0        1.413441   -1.053019    0.000000
     17          6           0        1.648332   -2.502129    0.000010
     18          6           0        0.629853   -3.465769    0.000010
     19          6           0        2.621420   -0.210598    0.000000
     20          6           0        2.987763   -3.026017    0.000010
     21          6           0        3.927751   -0.807696   -0.000010
     22          6           0        4.074792   -2.230896    0.000000
     23          6           0        0.540117    2.738640    0.000020
     24          6           0       -1.729474    4.299358    0.000020
     25          6           0       -0.498365    4.895839    0.000030
     26          6           0        0.674636    4.091871    0.000030
     27          6           0        2.630049    1.190812   -0.000010
     28          6           0        3.757668    1.976583   -0.000020
     29          6           0        5.088890   -0.007025   -0.000020
     30          6           0        5.020859    1.368985   -0.000020
     31          1           0       -5.547878   -1.712745   -0.000010
     32          1           0       -4.014236   -4.053454   -0.000010
     33          1           0       -1.759915   -4.986482    0.000000
     34          1           0        0.909674   -4.514119    0.000010
     35          1           0       -5.517911    0.720295   -0.000010
     36          1           0       -4.040673    2.995476    0.000000
     37          1           0       -2.627245    4.908428    0.000020
     38          1           0       -0.410566    5.976650    0.000030
     39          1           0        1.651566    4.563341    0.000040
     40          1           0        3.669917    3.057523   -0.000030
     41          1           0        5.923238    1.970225   -0.000030
     42          1           0        6.051900   -0.506114   -0.000020
     43          1           0        5.075052   -2.649925    0.000000
     44          1           0        3.098624   -4.104757    0.000010
     45          1           0        1.558268    1.921211    0.000000
 ---------------------------------------------------------------------
 Rotational constants (GHZ):      0.2216663      0.1669050      0.0952135
 Standard basis: 6-311+G(d,p) (5D, 7F)
 There are   780 symmetry adapted cartesian basis functions of A   symmetry.
 There are   750 symmetry adapted basis functions of A   symmetry.
   750 basis functions,  1200 primitive gaussians,   780 cartesian basis functions
    98 alpha electrons       97 beta electrons
       nuclear repulsion energy      2548.2602742715 Hartrees.
 NAtoms=   45 NActive=   45 NUniq=   45 SFac= 1.00D+00 NAtFMM=   60 NAOKFM=F Big=F
 Integral buffers will be    131072 words long.
 Raffenetti 2 integral format.
 Two-electron integral symmetry is turned on.
 One-electron integrals computed using PRISM.
 NBasis=   750 RedAO= T EigKep=  1.05D-06  NBF=   750
 NBsUse=   726 1.00D-06 EigRej=  8.54D-07 NBFU=   726
 ExpMin= 4.38D-02 ExpMax= 4.56D+03 ExpMxC= 6.82D+02 IAcc=2 IRadAn=         4 AccDes= 0.00D+00
 Harris functional with IExCor=  402 and IRadAn=       4 diagonalized for initial guess.
 HarFok:  IExCor=  402 AccDes= 0.00D+00 IRadAn=         4 IDoV= 1 UseB2=F ITyADJ=14
 ICtDFT=  3500011 ScaDFX=  1.000000  1.000000  1.000000  1.000000
 FoFCou: FMM=F IPFlag=           0 FMFlag=      100000 FMFlg1=           0
         NFxFlg=           0 DoJE=T BraDBF=F KetDBF=T FulRan=T
         wScrn=  0.000000 ICntrl=     500 IOpCl=  0 I1Cent=   200000004 NGrid=           0
         NMat0=    1 NMatS0=      1 NMatT0=    0 NMatD0=    1 NMtDS0=    0 NMtDT0=    0
 Petite list used in FoFCou.
 Initial guess <Sx>= 0.0000 <Sy>= 0.0000 <Sz>= 0.5000 <S**2>= 0.7500 S= 0.5000
 Requested convergence on RMS density matrix=1.00D-08 within 128 cycles.
 Requested convergence on MAX density matrix=1.00D-06.
 Requested convergence on             energy=1.00D-06.
 No special actions if energy rises.
 Restarting incremental Fock formation.
 SCF Done:  E(UB3LYP) =  -1152.42958066     A.U. after   26 cycles
            NFock= 26  Conv=0.51D-08     -V/T= 2.0044
 <Sx>= 0.0000 <Sy>= 0.0000 <Sz>= 0.5000 <S**2>= 0.7621 S= 0.5060
 <L.S>= 0.000000000000E+00
 Annihilation of the first spin contaminant:
 S**2 before annihilation     0.7621,   after     0.7501
 DoSCS=F DFT=T ScalE2(SS,OS)=  1.000000  1.000000
 Range of M.O.s used for correlation:     1   726
 NBasis=   750 NAE=    98 NBE=    97 NFC=     0 NFV=     0
 NROrb=    726 NOA=    98 NOB=    97 NVA=   628 NVB=   629

 **** Warning!!: The largest alpha MO coefficient is  0.14814267D+03


 **** Warning!!: The largest beta MO coefficient is  0.13163090D+03

 Symmetrizing basis deriv contribution to polar:
 IMax=3 JMax=2 DiffMx= 0.00D+00
 G2DrvN: will do    46 centers at a time, making    1 passes.
 Calling FoFCou, ICntrl=  3107 FMM=F I1Cent=   0 AccDes= 0.00D+00.
 End of G2Drv F.D. properties file   721 does not exist.
 End of G2Drv F.D. properties file   722 does not exist.
 End of G2Drv F.D. properties file   788 does not exist.
          IDoAtm=111111111111111111111111111111111111111111111
          Differentiating once with respect to nuclear coordinates.
          There are   138 degrees of freedom in the 1st order CPHF.  IDoFFX=6 NUNeed=     0.
    132 vectors produced by pass  0 Test12= 1.23D-13 1.00D-09 XBig12= 5.37D-01 1.30D-01.
 AX will form   132 AO Fock derivatives at one time.
    132 vectors produced by pass  1 Test12= 1.23D-13 1.00D-09 XBig12= 1.21D-01 5.21D-02.
    132 vectors produced by pass  2 Test12= 1.23D-13 1.00D-09 XBig12= 1.85D-03 8.86D-03.
    132 vectors produced by pass  3 Test12= 1.23D-13 1.00D-09 XBig12= 2.76D-05 1.23D-03.
    132 vectors produced by pass  4 Test12= 1.23D-13 1.00D-09 XBig12= 3.25D-07 7.42D-05.
    132 vectors produced by pass  5 Test12= 1.23D-13 1.00D-09 XBig12= 2.10D-09 4.73D-06.
    132 vectors produced by pass  6 Test12= 1.23D-13 1.00D-09 XBig12= 7.38D-11 6.21D-07.
    132 vectors produced by pass  7 Test12= 1.23D-13 1.00D-09 XBig12= 1.06D-11 1.52D-07.
    130 vectors produced by pass  8 Test12= 1.23D-13 1.00D-09 XBig12= 7.17D-13 4.82D-08.
     49 vectors produced by pass  9 Test12= 1.23D-13 1.00D-09 XBig12= 2.33D-15 2.13D-09.
     37 vectors produced by pass 10 Test12= 1.23D-13 1.00D-09 XBig12= 1.23D-15 2.05D-09.
     37 vectors produced by pass 11 Test12= 1.23D-13 1.00D-09 XBig12= 2.10D-13 2.37D-08.
     37 vectors produced by pass 12 Test12= 1.23D-13 1.00D-09 XBig12= 1.60D-12 5.12D-08.
     37 vectors produced by pass 13 Test12= 1.23D-13 1.00D-09 XBig12= 2.59D-13 2.23D-08.
     37 vectors produced by pass 14 Test12= 1.23D-13 1.00D-09 XBig12= 7.53D-13 3.16D-08.
     37 vectors produced by pass 15 Test12= 1.23D-13 1.00D-09 XBig12= 3.56D-13 2.62D-08.
     37 vectors produced by pass 16 Test12= 1.23D-13 1.00D-09 XBig12= 3.43D-13 2.16D-08.
     37 vectors produced by pass 17 Test12= 1.23D-13 1.00D-09 XBig12= 3.90D-13 2.43D-08.
     37 vectors produced by pass 18 Test12= 1.23D-13 1.00D-09 XBig12= 3.50D-13 2.12D-08.
     37 vectors produced by pass 19 Test12= 1.23D-13 1.00D-09 XBig12= 2.83D-13 1.91D-08.
     37 vectors produced by pass 20 Test12= 1.23D-13 1.00D-09 XBig12= 3.82D-13 2.58D-08.
     37 vectors produced by pass 21 Test12= 1.23D-13 1.00D-09 XBig12= 1.54D-13 1.47D-08.
     36 vectors produced by pass 22 Test12= 1.23D-13 1.00D-09 XBig12= 1.33D-13 1.48D-08.
     36 vectors produced by pass 23 Test12= 1.23D-13 1.00D-09 XBig12= 2.31D-13 1.71D-08.
     36 vectors produced by pass 24 Test12= 1.23D-13 1.00D-09 XBig12= 2.79D-13 1.95D-08.
     34 vectors produced by pass 25 Test12= 1.23D-13 1.00D-09 XBig12= 1.47D-13 1.30D-08.
     34 vectors produced by pass 26 Test12= 1.23D-13 1.00D-09 XBig12= 1.88D-13 1.44D-08.
     34 vectors produced by pass 27 Test12= 1.23D-13 1.00D-09 XBig12= 2.61D-13 1.76D-08.
     34 vectors produced by pass 28 Test12= 1.23D-13 1.00D-09 XBig12= 1.87D-13 1.44D-08.
     30 vectors produced by pass 29 Test12= 1.23D-13 1.00D-09 XBig12= 1.56D-13 1.27D-08.
     27 vectors produced by pass 30 Test12= 1.23D-13 1.00D-09 XBig12= 1.44D-13 1.20D-08.
     27 vectors produced by pass 31 Test12= 1.23D-13 1.00D-09 XBig12= 2.10D-13 1.68D-08.
     22 vectors produced by pass 32 Test12= 1.23D-13 1.00D-09 XBig12= 1.12D-13 1.14D-08.
     22 vectors produced by pass 33 Test12= 1.23D-13 1.00D-09 XBig12= 1.74D-13 1.63D-08.
     18 vectors produced by pass 34 Test12= 1.23D-13 1.00D-09 XBig12= 8.04D-14 8.54D-09.
     18 vectors produced by pass 35 Test12= 1.23D-13 1.00D-09 XBig12= 1.42D-13 1.23D-08.
     18 vectors produced by pass 36 Test12= 1.23D-13 1.00D-09 XBig12= 8.34D-14 9.43D-09.
     17 vectors produced by pass 37 Test12= 1.23D-13 1.00D-09 XBig12= 1.23D-13 1.36D-08.
     17 vectors produced by pass 38 Test12= 1.23D-13 1.00D-09 XBig12= 8.45D-14 9.68D-09.
     17 vectors produced by pass 39 Test12= 1.23D-13 1.00D-09 XBig12= 1.25D-13 1.27D-08.
     17 vectors produced by pass 40 Test12= 1.23D-13 1.00D-09 XBig12= 1.45D-13 1.10D-08.
     17 vectors produced by pass 41 Test12= 1.23D-13 1.00D-09 XBig12= 1.40D-13 1.35D-08.
     17 vectors produced by pass 42 Test12= 1.23D-13 1.00D-09 XBig12= 1.31D-13 1.22D-08.
     17 vectors produced by pass 43 Test12= 1.23D-13 1.00D-09 XBig12= 1.13D-13 1.09D-08.
     17 vectors produced by pass 44 Test12= 1.23D-13 1.00D-09 XBig12= 1.40D-13 1.35D-08.
     16 vectors produced by pass 45 Test12= 1.23D-13 1.00D-09 XBig12= 1.03D-13 1.06D-08.
     16 vectors produced by pass 46 Test12= 1.23D-13 1.00D-09 XBig12= 1.00D-13 9.29D-09.
     15 vectors produced by pass 47 Test12= 1.23D-13 1.00D-09 XBig12= 5.92D-14 8.23D-09.
     14 vectors produced by pass 48 Test12= 1.23D-13 1.00D-09 XBig12= 7.57D-14 1.01D-08.
     14 vectors produced by pass 49 Test12= 1.23D-13 1.00D-09 XBig12= 7.33D-14 8.91D-09.
     14 vectors produced by pass 50 Test12= 1.23D-13 1.00D-09 XBig12= 1.14D-13 1.13D-08.
     14 vectors produced by pass 51 Test12= 1.23D-13 1.00D-09 XBig12= 7.11D-14 8.16D-09.
     14 vectors produced by pass 52 Test12= 1.23D-13 1.00D-09 XBig12= 9.93D-14 9.39D-09.
     14 vectors produced by pass 53 Test12= 1.23D-13 1.00D-09 XBig12= 1.25D-13 1.09D-08.
     14 vectors produced by pass 54 Test12= 1.23D-13 1.00D-09 XBig12= 7.55D-14 8.82D-09.
     14 vectors produced by pass 55 Test12= 1.23D-13 1.00D-09 XBig12= 5.58D-14 7.35D-09.
     14 vectors produced by pass 56 Test12= 1.23D-13 1.00D-09 XBig12= 5.83D-14 7.74D-09.
     14 vectors produced by pass 57 Test12= 1.23D-13 1.00D-09 XBig12= 1.10D-13 1.03D-08.
     14 vectors produced by pass 58 Test12= 1.23D-13 1.00D-09 XBig12= 5.44D-14 6.86D-09.
     13 vectors produced by pass 59 Test12= 1.23D-13 1.00D-09 XBig12= 4.70D-14 6.98D-09.
     13 vectors produced by pass 60 Test12= 1.23D-13 1.00D-09 XBig12= 5.96D-14 7.48D-09.
     13 vectors produced by pass 61 Test12= 1.23D-13 1.00D-09 XBig12= 9.26D-14 8.47D-09.
     12 vectors produced by pass 62 Test12= 1.23D-13 1.00D-09 XBig12= 3.34D-14 5.79D-09.
     12 vectors produced by pass 63 Test12= 1.23D-13 1.00D-09 XBig12= 4.80D-14 8.95D-09.
     12 vectors produced by pass 64 Test12= 1.23D-13 1.00D-09 XBig12= 7.83D-14 9.00D-09.
     12 vectors produced by pass 65 Test12= 1.23D-13 1.00D-09 XBig12= 4.85D-14 7.33D-09.
     12 vectors produced by pass 66 Test12= 1.23D-13 1.00D-09 XBig12= 8.31D-14 9.25D-09.
     12 vectors produced by pass 67 Test12= 1.23D-13 1.00D-09 XBig12= 4.87D-14 6.55D-09.
      9 vectors produced by pass 68 Test12= 1.23D-13 1.00D-09 XBig12= 2.00D-14 4.45D-09.
      9 vectors produced by pass 69 Test12= 1.23D-13 1.00D-09 XBig12= 7.27D-14 7.50D-09.
      9 vectors produced by pass 70 Test12= 1.23D-13 1.00D-09 XBig12= 7.11D-14 7.58D-09.
      9 vectors produced by pass 71 Test12= 1.23D-13 1.00D-09 XBig12= 7.19D-14 8.79D-09.
      9 vectors produced by pass 72 Test12= 1.23D-13 1.00D-09 XBig12= 4.79D-14 6.60D-09.
      9 vectors produced by pass 73 Test12= 1.23D-13 1.00D-09 XBig12= 5.97D-14 9.96D-09.
      9 vectors produced by pass 74 Test12= 1.23D-13 1.00D-09 XBig12= 8.87D-14 9.16D-09.
      9 vectors produced by pass 75 Test12= 1.23D-13 1.00D-09 XBig12= 5.43D-14 6.82D-09.
      9 vectors produced by pass 76 Test12= 1.23D-13 1.00D-09 XBig12= 4.42D-14 5.68D-09.
      9 vectors produced by pass 77 Test12= 1.23D-13 1.00D-09 XBig12= 4.13D-14 6.36D-09.
      9 vectors produced by pass 78 Test12= 1.23D-13 1.00D-09 XBig12= 4.72D-14 7.27D-09.
      9 vectors produced by pass 79 Test12= 1.23D-13 1.00D-09 XBig12= 5.72D-14 7.98D-09.
      9 vectors produced by pass 80 Test12= 1.23D-13 1.00D-09 XBig12= 3.43D-14 5.66D-09.
      9 vectors produced by pass 81 Test12= 1.23D-13 1.00D-09 XBig12= 7.96D-14 7.59D-09.
      9 vectors produced by pass 82 Test12= 1.23D-13 1.00D-09 XBig12= 6.60D-14 1.01D-08.
      9 vectors produced by pass 83 Test12= 1.23D-13 1.00D-09 XBig12= 3.94D-14 6.35D-09.
      9 vectors produced by pass 84 Test12= 1.23D-13 1.00D-09 XBig12= 2.83D-14 5.14D-09.
      9 vectors produced by pass 85 Test12= 1.23D-13 1.00D-09 XBig12= 4.98D-14 8.74D-09.
      9 vectors produced by pass 86 Test12= 1.23D-13 1.00D-09 XBig12= 3.13D-14 4.95D-09.
      9 vectors produced by pass 87 Test12= 1.23D-13 1.00D-09 XBig12= 4.87D-14 7.76D-09.
      7 vectors produced by pass 88 Test12= 1.23D-13 1.00D-09 XBig12= 1.72D-14 3.78D-09.
      7 vectors produced by pass 89 Test12= 1.23D-13 1.00D-09 XBig12= 5.54D-14 6.73D-09.
      7 vectors produced by pass 90 Test12= 1.23D-13 1.00D-09 XBig12= 3.74D-14 5.59D-09.
      7 vectors produced by pass 91 Test12= 1.23D-13 1.00D-09 XBig12= 5.58D-14 8.53D-09.
      7 vectors produced by pass 92 Test12= 1.23D-13 1.00D-09 XBig12= 3.41D-14 5.01D-09.
      7 vectors produced by pass 93 Test12= 1.23D-13 1.00D-09 XBig12= 6.11D-14 8.17D-09.
      7 vectors produced by pass 94 Test12= 1.23D-13 1.00D-09 XBig12= 4.27D-14 6.57D-09.
      7 vectors produced by pass 95 Test12= 1.23D-13 1.00D-09 XBig12= 3.34D-14 6.80D-09.
      7 vectors produced by pass 96 Test12= 1.23D-13 1.00D-09 XBig12= 3.67D-14 5.55D-09.
      7 vectors produced by pass 97 Test12= 1.23D-13 1.00D-09 XBig12= 2.42D-14 4.53D-09.
      7 vectors produced by pass 98 Test12= 1.23D-13 1.00D-09 XBig12= 4.04D-14 7.19D-09.
      7 vectors produced by pass 99 Test12= 1.23D-13 1.00D-09 XBig12= 3.90D-14 5.50D-09.
      7 vectors produced by pass100 Test12= 1.23D-13 1.00D-09 XBig12= 3.14D-14 5.40D-09.
      7 vectors produced by pass101 Test12= 1.23D-13 1.00D-09 XBig12= 4.22D-14 6.11D-09.
      7 vectors produced by pass102 Test12= 1.23D-13 1.00D-09 XBig12= 2.47D-14 4.62D-09.
      7 vectors produced by pass103 Test12= 1.23D-13 1.00D-09 XBig12= 4.61D-14 7.35D-09.
      7 vectors produced by pass104 Test12= 1.23D-13 1.00D-09 XBig12= 5.47D-14 8.30D-09.
      6 vectors produced by pass105 Test12= 1.23D-13 1.00D-09 XBig12= 2.11D-14 5.18D-09.
      6 vectors produced by pass106 Test12= 1.23D-13 1.00D-09 XBig12= 4.77D-14 6.47D-09.
      6 vectors produced by pass107 Test12= 1.23D-13 1.00D-09 XBig12= 3.51D-14 6.20D-09.
      6 vectors produced by pass108 Test12= 1.23D-13 1.00D-09 XBig12= 4.01D-14 6.25D-09.
      6 vectors produced by pass109 Test12= 1.23D-13 1.00D-09 XBig12= 3.24D-14 4.69D-09.
      6 vectors produced by pass110 Test12= 1.23D-13 1.00D-09 XBig12= 3.45D-14 6.15D-09.
      6 vectors produced by pass111 Test12= 1.23D-13 1.00D-09 XBig12= 4.26D-14 6.23D-09.
      6 vectors produced by pass112 Test12= 1.23D-13 1.00D-09 XBig12= 2.78D-14 4.92D-09.
      6 vectors produced by pass113 Test12= 1.23D-13 1.00D-09 XBig12= 4.17D-14 6.01D-09.
      6 vectors produced by pass114 Test12= 1.23D-13 1.00D-09 XBig12= 2.12D-14 5.09D-09.
      6 vectors produced by pass115 Test12= 1.23D-13 1.00D-09 XBig12= 2.23D-14 4.89D-09.
      6 vectors produced by pass116 Test12= 1.23D-13 1.00D-09 XBig12= 3.32D-14 5.26D-09.
      6 vectors produced by pass117 Test12= 1.23D-13 1.00D-09 XBig12= 2.23D-14 4.46D-09.
      6 vectors produced by pass118 Test12= 1.23D-13 1.00D-09 XBig12= 2.13D-14 4.93D-09.
      6 vectors produced by pass119 Test12= 1.23D-13 1.00D-09 XBig12= 3.35D-14 5.72D-09.
      6 vectors produced by pass120 Test12= 1.23D-13 1.00D-09 XBig12= 4.50D-14 6.44D-09.
      6 vectors produced by pass121 Test12= 1.23D-13 1.00D-09 XBig12= 3.44D-14 6.48D-09.
      6 vectors produced by pass122 Test12= 1.23D-13 1.00D-09 XBig12= 4.10D-14 7.87D-09.
      6 vectors produced by pass123 Test12= 1.23D-13 1.00D-09 XBig12= 2.75D-14 4.43D-09.
      6 vectors produced by pass124 Test12= 1.23D-13 1.00D-09 XBig12= 4.23D-14 7.09D-09.
      6 vectors produced by pass125 Test12= 1.23D-13 1.00D-09 XBig12= 4.61D-14 7.39D-09.
      6 vectors produced by pass126 Test12= 1.23D-13 1.00D-09 XBig12= 3.65D-14 7.34D-09.
      6 vectors produced by pass127 Test12= 1.23D-13 1.00D-09 XBig12= 2.72D-14 5.18D-09.
      6 vectors produced by pass128 Test12= 1.23D-13 1.00D-09 XBig12= 2.77D-14 4.64D-09.
      6 vectors produced by pass129 Test12= 1.23D-13 1.00D-09 XBig12= 3.31D-14 5.36D-09.
      6 vectors produced by pass130 Test12= 1.23D-13 1.00D-09 XBig12= 3.61D-14 5.51D-09.
      6 vectors produced by pass131 Test12= 1.23D-13 1.00D-09 XBig12= 2.74D-14 4.51D-09.
      6 vectors produced by pass132 Test12= 1.23D-13 1.00D-09 XBig12= 3.43D-14 5.26D-09.
      6 vectors produced by pass133 Test12= 1.23D-13 1.00D-09 XBig12= 3.12D-14 5.74D-09.
      6 vectors produced by pass134 Test12= 1.23D-13 1.00D-09 XBig12= 3.65D-14 5.96D-09.
      6 vectors produced by pass135 Test12= 1.23D-13 1.00D-09 XBig12= 3.51D-14 5.24D-09.
      6 vectors produced by pass136 Test12= 1.23D-13 1.00D-09 XBig12= 1.96D-14 4.82D-09.
      6 vectors produced by pass137 Test12= 1.23D-13 1.00D-09 XBig12= 1.88D-14 4.07D-09.
      6 vectors produced by pass138 Test12= 1.23D-13 1.00D-09 XBig12= 2.50D-14 5.44D-09.
      6 vectors produced by pass139 Test12= 1.23D-13 1.00D-09 XBig12= 1.50D-14 4.15D-09.
      6 vectors produced by pass140 Test12= 1.23D-13 1.00D-09 XBig12= 2.87D-14 5.20D-09.
      6 vectors produced by pass141 Test12= 1.23D-13 1.00D-09 XBig12= 2.76D-14 5.52D-09.
      6 vectors produced by pass142 Test12= 1.23D-13 1.00D-09 XBig12= 2.66D-14 5.92D-09.
      6 vectors produced by pass143 Test12= 1.23D-13 1.00D-09 XBig12= 2.91D-14 4.99D-09.
      6 vectors produced by pass144 Test12= 1.23D-13 1.00D-09 XBig12= 2.09D-14 4.16D-09.
      6 vectors produced by pass145 Test12= 1.23D-13 1.00D-09 XBig12= 3.08D-14 5.31D-09.
      6 vectors produced by pass146 Test12= 1.23D-13 1.00D-09 XBig12= 2.37D-14 5.05D-09.
      6 vectors produced by pass147 Test12= 1.23D-13 1.00D-09 XBig12= 3.42D-14 5.54D-09.
      6 vectors produced by pass148 Test12= 1.23D-13 1.00D-09 XBig12= 2.69D-14 4.71D-09.
      6 vectors produced by pass149 Test12= 1.23D-13 1.00D-09 XBig12= 2.84D-14 5.32D-09.
      6 vectors produced by pass150 Test12= 1.23D-13 1.00D-09 XBig12= 1.55D-14 3.83D-09.
      6 vectors produced by pass151 Test12= 1.23D-13 1.00D-09 XBig12= 4.04D-14 7.36D-09.
      6 vectors produced by pass152 Test12= 1.23D-13 1.00D-09 XBig12= 2.14D-14 4.31D-09.
      6 vectors produced by pass153 Test12= 1.23D-13 1.00D-09 XBig12= 2.15D-14 4.63D-09.
      6 vectors produced by pass154 Test12= 1.23D-13 1.00D-09 XBig12= 2.80D-14 5.06D-09.
      6 vectors produced by pass155 Test12= 1.23D-13 1.00D-09 XBig12= 1.94D-14 4.06D-09.
      6 vectors produced by pass156 Test12= 1.23D-13 1.00D-09 XBig12= 3.29D-14 5.84D-09.
      6 vectors produced by pass157 Test12= 1.23D-13 1.00D-09 XBig12= 1.00D-14 2.82D-09.
      6 vectors produced by pass158 Test12= 1.23D-13 1.00D-09 XBig12= 4.11D-14 6.60D-09.
      6 vectors produced by pass159 Test12= 1.23D-13 1.00D-09 XBig12= 1.52D-14 3.86D-09.
      6 vectors produced by pass160 Test12= 1.23D-13 1.00D-09 XBig12= 1.69D-14 3.69D-09.
      6 vectors produced by pass161 Test12= 1.23D-13 1.00D-09 XBig12= 1.74D-14 3.48D-09.
      6 vectors produced by pass162 Test12= 1.23D-13 1.00D-09 XBig12= 2.00D-14 4.40D-09.
      6 vectors produced by pass163 Test12= 1.23D-13 1.00D-09 XBig12= 1.35D-14 3.48D-09.
      6 vectors produced by pass164 Test12= 1.23D-13 1.00D-09 XBig12= 2.32D-14 4.77D-09.
      6 vectors produced by pass165 Test12= 1.23D-13 1.00D-09 XBig12= 2.66D-14 4.59D-09.
      6 vectors produced by pass166 Test12= 1.23D-13 1.00D-09 XBig12= 1.35D-14 3.50D-09.
      6 vectors produced by pass167 Test12= 1.23D-13 1.00D-09 XBig12= 2.24D-14 4.61D-09.
      6 vectors produced by pass168 Test12= 1.23D-13 1.00D-09 XBig12= 2.41D-14 4.22D-09.
      6 vectors produced by pass169 Test12= 1.23D-13 1.00D-09 XBig12= 1.41D-14 3.76D-09.
      6 vectors produced by pass170 Test12= 1.23D-13 1.00D-09 XBig12= 2.28D-14 4.17D-09.
      6 vectors produced by pass171 Test12= 1.23D-13 1.00D-09 XBig12= 1.82D-14 3.64D-09.
      6 vectors produced by pass172 Test12= 1.23D-13 1.00D-09 XBig12= 1.79D-14 4.33D-09.
      6 vectors produced by pass173 Test12= 1.23D-13 1.00D-09 XBig12= 3.47D-14 6.01D-09.
      6 vectors produced by pass174 Test12= 1.23D-13 1.00D-09 XBig12= 1.34D-14 3.12D-09.
      6 vectors produced by pass175 Test12= 1.23D-13 1.00D-09 XBig12= 1.77D-14 3.84D-09.
      6 vectors produced by pass176 Test12= 1.23D-13 1.00D-09 XBig12= 1.51D-14 3.47D-09.
      6 vectors produced by pass177 Test12= 1.23D-13 1.00D-09 XBig12= 2.69D-14 4.77D-09.
      6 vectors produced by pass178 Test12= 1.23D-13 1.00D-09 XBig12= 1.64D-14 4.38D-09.
      6 vectors produced by pass179 Test12= 1.23D-13 1.00D-09 XBig12= 2.83D-14 5.53D-09.
      6 vectors produced by pass180 Test12= 1.23D-13 1.00D-09 XBig12= 1.27D-14 3.50D-09.
      6 vectors produced by pass181 Test12= 1.23D-13 1.00D-09 XBig12= 1.40D-14 3.92D-09.
      6 vectors produced by pass182 Test12= 1.23D-13 1.00D-09 XBig12= 2.26D-14 4.22D-09.
      6 vectors produced by pass183 Test12= 1.23D-13 1.00D-09 XBig12= 3.54D-14 5.55D-09.
      6 vectors produced by pass184 Test12= 1.23D-13 1.00D-09 XBig12= 2.16D-14 3.87D-09.
      6 vectors produced by pass185 Test12= 1.23D-13 1.00D-09 XBig12= 1.75D-14 4.80D-09.
      6 vectors produced by pass186 Test12= 1.23D-13 1.00D-09 XBig12= 1.60D-14 3.66D-09.
      6 vectors produced by pass187 Test12= 1.23D-13 1.00D-09 XBig12= 2.13D-14 4.57D-09.
      6 vectors produced by pass188 Test12= 1.23D-13 1.00D-09 XBig12= 3.42D-14 6.40D-09.
      5 vectors produced by pass189 Test12= 1.23D-13 1.00D-09 XBig12= 1.45D-14 3.94D-09.
      5 vectors produced by pass190 Test12= 1.23D-13 1.00D-09 XBig12= 2.24D-14 4.38D-09.
      5 vectors produced by pass191 Test12= 1.23D-13 1.00D-09 XBig12= 2.74D-14 4.20D-09.
      5 vectors produced by pass192 Test12= 1.23D-13 1.00D-09 XBig12= 2.42D-14 4.91D-09.
      5 vectors produced by pass193 Test12= 1.23D-13 1.00D-09 XBig12= 1.29D-14 2.96D-09.
      5 vectors produced by pass194 Test12= 1.23D-13 1.00D-09 XBig12= 1.73D-14 3.79D-09.
      5 vectors produced by pass195 Test12= 1.23D-13 1.00D-09 XBig12= 2.00D-14 3.84D-09.
      5 vectors produced by pass196 Test12= 1.23D-13 1.00D-09 XBig12= 2.14D-14 5.49D-09.
      5 vectors produced by pass197 Test12= 1.23D-13 1.00D-09 XBig12= 1.31D-14 3.36D-09.
      5 vectors produced by pass198 Test12= 1.23D-13 1.00D-09 XBig12= 1.59D-14 3.30D-09.
      5 vectors produced by pass199 Test12= 1.23D-13 1.00D-09 XBig12= 1.47D-14 3.48D-09.
      5 vectors produced by pass200 Test12= 1.23D-13 1.00D-09 XBig12= 1.53D-14 3.54D-09.
      5 vectors produced by pass201 Test12= 1.23D-13 1.00D-09 XBig12= 2.39D-14 4.81D-09.
      5 vectors produced by pass202 Test12= 1.23D-13 1.00D-09 XBig12= 2.04D-14 4.31D-09.
      5 vectors produced by pass203 Test12= 1.23D-13 1.00D-09 XBig12= 2.60D-14 4.66D-09.
      5 vectors produced by pass204 Test12= 1.23D-13 1.00D-09 XBig12= 2.19D-14 4.61D-09.
      5 vectors produced by pass205 Test12= 1.23D-13 1.00D-09 XBig12= 1.58D-14 4.03D-09.
      5 vectors produced by pass206 Test12= 1.23D-13 1.00D-09 XBig12= 1.17D-14 3.18D-09.
      5 vectors produced by pass207 Test12= 1.23D-13 1.00D-09 XBig12= 1.77D-14 4.06D-09.
      5 vectors produced by pass208 Test12= 1.23D-13 1.00D-09 XBig12= 1.76D-14 3.58D-09.
      5 vectors produced by pass209 Test12= 1.23D-13 1.00D-09 XBig12= 1.83D-14 4.05D-09.
      5 vectors produced by pass210 Test12= 1.23D-13 1.00D-09 XBig12= 1.62D-14 3.28D-09.
      5 vectors produced by pass211 Test12= 1.23D-13 1.00D-09 XBig12= 2.03D-14 3.99D-09.
      5 vectors produced by pass212 Test12= 1.23D-13 1.00D-09 XBig12= 1.44D-14 3.69D-09.
      5 vectors produced by pass213 Test12= 1.23D-13 1.00D-09 XBig12= 1.82D-14 3.86D-09.
      5 vectors produced by pass214 Test12= 1.23D-13 1.00D-09 XBig12= 1.65D-14 4.15D-09.
      5 vectors produced by pass215 Test12= 1.23D-13 1.00D-09 XBig12= 2.05D-14 3.66D-09.
      5 vectors produced by pass216 Test12= 1.23D-13 1.00D-09 XBig12= 1.23D-14 3.72D-09.
      5 vectors produced by pass217 Test12= 1.23D-13 1.00D-09 XBig12= 1.25D-14 3.31D-09.
      5 vectors produced by pass218 Test12= 1.23D-13 1.00D-09 XBig12= 6.67D-15 2.79D-09.
      5 vectors produced by pass219 Test12= 1.23D-13 1.00D-09 XBig12= 1.19D-14 3.18D-09.
      5 vectors produced by pass220 Test12= 1.23D-13 1.00D-09 XBig12= 1.11D-14 3.60D-09.
      5 vectors produced by pass221 Test12= 1.23D-13 1.00D-09 XBig12= 1.47D-14 3.19D-09.
      5 vectors produced by pass222 Test12= 1.23D-13 1.00D-09 XBig12= 1.36D-14 3.88D-09.
      5 vectors produced by pass223 Test12= 1.23D-13 1.00D-09 XBig12= 1.42D-14 3.30D-09.
      5 vectors produced by pass224 Test12= 1.23D-13 1.00D-09 XBig12= 1.49D-14 3.82D-09.
      5 vectors produced by pass225 Test12= 1.23D-13 1.00D-09 XBig12= 2.24D-14 4.41D-09.
      5 vectors produced by pass226 Test12= 1.23D-13 1.00D-09 XBig12= 1.76D-14 3.40D-09.
      4 vectors produced by pass227 Test12= 1.23D-13 1.00D-09 XBig12= 9.91D-15 2.74D-09.
      4 vectors produced by pass228 Test12= 1.23D-13 1.00D-09 XBig12= 2.03D-14 4.03D-09.
      4 vectors produced by pass229 Test12= 1.23D-13 1.00D-09 XBig12= 1.26D-14 3.09D-09.
      4 vectors produced by pass230 Test12= 1.23D-13 1.00D-09 XBig12= 1.03D-14 2.79D-09.
      4 vectors produced by pass231 Test12= 1.23D-13 1.00D-09 XBig12= 1.77D-14 3.94D-09.
      3 vectors produced by pass232 Test12= 1.23D-13 1.00D-09 XBig12= 8.89D-15 3.01D-09.
      3 vectors produced by pass233 Test12= 1.23D-13 1.00D-09 XBig12= 2.06D-14 4.25D-09.
      3 vectors produced by pass234 Test12= 1.23D-13 1.00D-09 XBig12= 1.78D-14 3.66D-09.
      3 vectors produced by pass235 Test12= 1.23D-13 1.00D-09 XBig12= 1.88D-14 4.35D-09.
      3 vectors produced by pass236 Test12= 1.23D-13 1.00D-09 XBig12= 1.34D-14 3.51D-09.
      3 vectors produced by pass237 Test12= 1.23D-13 1.00D-09 XBig12= 7.72D-15 2.80D-09.
      3 vectors produced by pass238 Test12= 1.23D-13 1.00D-09 XBig12= 2.13D-14 4.08D-09.
      3 vectors produced by pass239 Test12= 1.23D-13 1.00D-09 XBig12= 1.86D-14 4.02D-09.
      2 vectors produced by pass240 Test12= 1.23D-13 1.00D-09 XBig12= 7.41D-15 2.59D-09.
 InvSVY:  IOpt=1 It=  1 EMax= 2.00D-15
 Solved reduced A of dimension  3592 with   138 vectors.
 End of Minotr F.D. properties file   721 does not exist.
 End of Minotr F.D. properties file   722 does not exist.
 End of Minotr F.D. properties file   788 does not exist.

 **********************************************************************

            Population analysis using the SCF density.

 **********************************************************************

 Orbital symmetries:
 Alpha Orbitals:
       Occupied  (A) (A) (A) (A) (A) (A) (A) (A) (A) (A) (A) (A)
                 (A) (A) (A) (A) (A) (A) (A) (A) (A) (A) (A) (A)
                 (A) (A) (A) (A) (A) (A) (A) (A) (A) (A) (A) (A)
                 (A) (A) (A) (A) (A) (A) (A) (A) (A) (A) (A) (A)
                 (A) (A) (A) (A) (A) (A) (A) (A) (A) (A) (A) (A)
                 (A) (A) (A) (A) (A) (A) (A) (A) (A) (A) (A) (A)
                 (A) (A) (A) (A) (A) (A) (A) (A) (A) (A) (A) (A)
                 (A) (A) (A) (A) (A) (A) (A) (A) (A) (A) (A) (A)
                 (A) (A)
       Virtual   (A) (A) (A) (A) (A) (A) (A) (A) (A) (A) (A) (A)
                 (A) (A) (A) (A) (A) (A) (A) (A) (A) (A) (A) (A)
                 (A) (A) (A) (A) (A) (A) (A) (A) (A) (A) (A) (A)
                 (A) (A) (A) (A) (A) (A) (A) (A) (A) (A) (A) (A)
                 (A) (A) (A) (A) (A) (A) (A) (A) (A) (A) (A) (A)
                 (A) (A) (A) (A) (A) (A) (A) (A) (A) (A) (A) (A)
                 (A) (A) (A) (A) (A) (A) (A) (A) (A) (A) (A) (A)
                 (A) (A) (A) (A) (A) (A) (A) (A) (A) (A) (A) (A)
                 (A) (A) (A) (A) (A) (A) (A) (A) (A) (A) (A) (A)
                 (A) (A) (A) (A) (A) (A) (A) (A) (A) (A) (A) (A)
                 (A) (A) (A) (A) (A) (A) (A) (A) (A) (A) (A) (A)
                 (A) (A) (A) (A) (A) (A) (A) (A) (A) (A) (A) (A)
                 (A) (A) (A) (A) (A) (A) (A) (A) (A) (A) (A) (A)
                 (A) (A) (A) (A) (A) (A) (A) (A) (A) (A) (A) (A)
                 (A) (A) (A) (A) (A) (A) (A) (A) (A) (A) (A) (A)
                 (A) (A) (A) (A) (A) (A) (A) (A) (A) (A) (A) (A)
                 (A) (A) (A) (A) (A) (A) (A) (A) (A) (A) (A) (A)
                 (A) (A) (A) (A) (A) (A) (A) (A) (A) (A) (A) (A)
                 (A) (A) (A) (A) (A) (A) (A) (A) (A) (A) (A) (A)
[...]
 026575,0.00058706,0.,0.00002584,0.00001429,0.,-0.00111471,0.00093030,0
 .,0.00004508,0.00001064,0.,0.00021768,0.00010280,0.,-0.00016255,-0.000
 38868,0.,-0.00112230,-0.01499633,-0.00000003,0.02477142,-0.32896907,-0
 .00000056,0.00294325,0.00100832,-0.00000001,-0.00157706,-0.00974000,-0
 .00000002,-0.00000508,-0.00000051,0.,-0.00000496,0.00000015,0.,0.00000
 044,-0.00000525,0.,-0.00001545,-0.00002236,0.,-0.00000230,0.00000256,0
 .,-0.00000972,0.00000074,0.,0.00000818,0.00000466,0.,-0.00003139,0.000
 03512,0.,0.00067219,0.00022978,0.,-0.02419421,0.35263935,0.,0.00000001
 ,-0.00003586,0.,0.,0.00003904,0.,0.,-0.00002345,-0.00000001,0.,-0.0000
 0175,0.,0.,0.00005166,0.,0.,-0.00008088,0.,0.,-0.00007110,0.00000001,0
 .,0.00002370,0.,0.,-0.00001169,0.,0.,0.00000383,0.,0.,0.00001033,0.,0.
 ,-0.00001818,0.,0.00000001,-0.00003144,0.,0.,0.00000655,0.,-0.00000002
 ,0.00000592,-0.00000002,0.,0.00049155,0.,0.00000001,-0.00037017,0.,0.,
 0.00002646,0.,-0.00000001,0.00720217,0.,-0.00000001,0.00013966,0.,0.,-
 0.00089146,0.,0.,-0.00083378,0.,-0.00000002,-0.00000134,0.,0.,0.000041
 01,0.00000002,0.,-0.00015780,-0.00000001,0.,-0.00021080,0.,-0.00000001
 ,0.00039686,0.00000006,-0.00000054,-0.03416966,0.00000002,-0.00000002,
 0.00588947,0.,-0.00000004,0.00398735,0.,0.,0.00000086,0.,0.,0.00000191
 ,0.,0.,0.00000062,0.,0.,-0.00004304,0.,0.,0.00000531,0.,0.,0.00000287,
 0.,0.,0.00001599,0.,0.,0.00001196,0.,0.,0.00053622,-0.00000007,0.00000
 062,0.02316022,-0.00006567,-0.00016115,0.,-0.00000206,0.00007267,0.,-0
 .00001172,-0.00001887,0.,0.00002055,0.00001369,0.,0.00000683,0.0000318
 8,0.,-0.00016742,0.00041639,0.,0.00005672,0.00004251,0.,-0.00000711,-0
 .00002469,0.,-0.00002555,-0.00006078,0.,0.00002253,0.00001138,0.,-0.00
 002314,0.00000375,0.,0.00000484,-0.00002022,0.,-0.00002057,0.00002348,
 0.,0.00001095,0.00000916,0.,0.00000202,-0.00000688,0.,-0.00008718,-0.0
 0018239,0.,-0.00011367,0.00000792,0.,0.00005289,0.00000645,0.,0.000286
 20,0.00099711,0.,0.00014856,-0.00000872,0.,0.00160515,0.00122824,0.000
 00001,0.00001649,0.00006343,0.,0.00069168,-0.00049629,0.,-0.00003357,0
 .00005092,0.,0.00009142,0.00007160,0.,-0.00043813,0.00005043,0.,-0.003
 50431,0.00256553,0.,-0.01763793,-0.01745559,-0.00000002,0.00516277,0.0
 0317598,0.,-0.24989325,-0.12785438,-0.00000009,-0.00000464,-0.00000432
 ,0.,-0.00000491,-0.00000433,0.,0.00000143,-0.00000470,0.,0.00000047,-0
 .00000719,0.,-0.00000500,0.00000303,0.,-0.00002382,-0.00000302,0.,-0.0
 0001300,0.00000322,0.,-0.00005286,0.00004583,0.,0.00003937,0.00001233,
 0.,0.00101576,0.00016417,0.,0.26312565,0.00003159,0.00007652,0.,-0.000
 00621,-0.00003535,0.,0.00001682,0.00001369,0.,-0.00005530,0.00000119,0
 .,0.00002798,-0.00004384,0.,0.00009062,-0.00020789,0.,-0.00014553,-0.0
 0008243,0.,-0.00002403,0.00000657,0.,0.00003694,0.00011298,0.,-0.00003
 023,-0.00000903,0.,0.00001690,-0.00000602,0.,0.00000409,0.00002763,0.,
 0.00003853,-0.00004101,0.,-0.00001829,-0.00000111,0.,0.00000683,0.0000
 2517,0.,0.00016911,0.00023689,0.,0.00021734,-0.00003583,0.,-0.00008162
 ,-0.00000078,0.,0.00044948,-0.00084684,0.,0.00005762,-0.00059549,0.,0.
 00199064,-0.00489745,-0.00000003,-0.00151403,0.00005041,0.,-0.00047655
 ,0.00047922,0.,0.00000839,-0.00002133,0.,-0.00003371,-0.00003703,0.,0.
 00018847,-0.00004069,0.,0.00236373,0.00049520,-0.00000001,0.01313480,0
 .01084325,0.,-0.02797221,-0.01167765,0.,-0.12676251,-0.14368016,-0.000
 00012,-0.00000395,0.00000014,0.,-0.00000411,-0.00000023,0.,0.00000077,
 -0.00000311,0.,0.00000564,0.00000443,0.,-0.00000131,0.00000169,0.,0.00
 000776,0.00000436,0.,0.00000085,-0.00000044,0.,0.00002126,-0.00001321,
 0.,0.00000311,-0.00001824,0.,-0.00071896,0.00070153,0.,0.13772581,0.14
 881644,0.,0.,0.00001535,0.,0.,-0.00000997,0.,0.,0.00000571,0.,0.,-0.00
 001794,0.,0.,0.00000822,0.,0.,-0.00001448,0.,0.,0.00007238,0.,0.,0.000
 01136,0.,0.,0.00003312,0.,0.,0.00000336,0.,0.,-0.00000329,0.,0.,-0.000
 00721,0.,0.,-0.00001063,0.,0.,0.00000162,0.,0.,0.00000856,0.00000001,0
 .,-0.00109606,0.,0.,0.00013984,0.,0.,0.00003189,0.,0.,-0.00065336,0.,0
 .,-0.00041943,0.,-0.00000002,0.00814323,0.,0.,0.00019448,0.,0.00000002
 ,0.00013106,0.,0.,-0.00000075,-0.00000001,0.,-0.00002031,0.,0.,0.00001
 097,0.00000001,-0.00000001,0.00589773,0.00000004,0.00000001,0.00357935
 ,-0.00000006,-0.00000003,0.00358411,-0.00000010,-0.00000012,-0.0367913
 5,0.,0.,0.00000120,0.,0.,-0.00000095,0.,0.,-0.00000070,0.,0.,-0.000003
 37,0.,0.,0.00000080,0.,0.,-0.00000185,0.,0.,0.00000715,0.,0.,0.0000012
 3,0.,0.,0.00002142,0.,0.,-0.00322988,0.00000010,0.00000014,0.02484472,
 -0.00001233,-0.00001989,0.,-0.00001594,0.00000718,0.,-0.00000059,0.000
 01487,0.,-0.00002812,-0.00001143,0.,0.00004916,-0.00003658,0.,-0.00005
 211,0.00005161,0.,-0.00016430,-0.00041476,0.,-0.00004648,-0.00001967,0
 .,-0.00004243,0.00010144,0.,0.00000539,-0.00000102,0.,-0.00000819,-0.0
 0002388,0.,-0.00000212,-0.00000295,0.,-0.00005191,-0.00003125,0.,-0.00
 003419,0.00001593,0.,0.00004838,0.00001263,0.,-0.00064802,0.00123642,0
 .,0.00007601,0.00012285,0.,0.00010961,-0.00006831,0.,-0.00198827,-0.00
 374782,0.,0.00025377,-0.00050047,0.,-0.02011557,0.01341568,0.00000004,
 0.00056388,0.00241735,0.,0.00013944,-0.00010238,0.,-0.00000638,0.00000
 631,0.,0.00001433,0.00000131,0.,-0.00004442,0.00002656,0.,0.00036964,-
 0.00105519,0.,0.00198145,0.00011004,0.,-0.27508725,0.11137322,0.000000
 37,0.00207806,-0.00147877,0.,-0.00000574,-0.00000182,0.,-0.00000412,-0
 .00000226,0.,-0.00000265,-0.00000918,0.,-0.00001580,-0.00003080,0.,-0.
 00000435,0.00000238,0.,-0.00000567,0.00000188,0.,-0.00000566,0.0000017
 9,0.,-0.00000680,0.00000982,0.,0.00000313,-0.00000463,0.,-0.00004119,-
 0.00014789,0.,0.00072327,0.00038572,0.,0.29160134,0.00002032,0.0000292
 3,0.,-0.00000146,-0.00001466,0.,0.00000625,0.00000598,0.,-0.00000040,0
 .00000643,0.,0.00001272,0.00000346,0.,0.00001212,-0.00009538,0.,-0.000
 02927,-0.00023034,0.,0.00000142,-0.00002522,0.,-0.00009170,0.00000500,
 0.,-0.00000899,-0.00000838,0.,0.00000115,-0.00000808,0.,-0.00000570,0.
 00000723,0.,-0.00004873,0.00003518,0.,-0.00001031,0.00001219,0.,0.0000
 2088,-0.00000070,0.,-0.00079882,0.00044362,0.,-0.00021578,0.00013906,0
 .,0.00011437,-0.00001193,0.,-0.00274877,-0.00142814,-0.00000002,0.0003
 4122,0.00015606,0.,-0.01560021,0.00948983,0.00000003,-0.00226520,0.000
 72081,0.,-0.00015582,0.00015145,0.,0.00001835,-0.00001663,0.,0.0000005
 5,0.00002480,0.,0.00002269,-0.00003892,0.,-0.00101083,-0.00073376,0.,-
 0.00073493,-0.00568164,-0.00000002,0.11233149,-0.11563643,-0.00000023,
 0.02984741,-0.00943842,-0.00000005,0.00000199,0.00000272,0.,0.00000323
 ,0.00000178,0.,-0.00000173,0.00000227,0.,-0.00001179,-0.00000728,0.,0.
 00000248,-0.00000199,0.,0.00000616,-0.00000065,0.,0.00000854,0.0000007
 8,0.,0.00000666,-0.00000933,0.,-0.00000808,0.00005214,0.,0.00141621,-0
 .00058344,0.,-0.00041387,0.00095043,0.00000001,-0.12043313,0.12209702,
 0.,0.,-0.00000918,0.,0.,0.00000313,0.,0.,-0.00001130,0.,0.,0.00000817,
 0.,0.,0.00001346,0.,0.,-0.00000140,0.,0.,0.00006824,0.,0.,-0.00004012,
 0.,0.,-0.00000192,0.,0.,0.00000017,0.,0.,-0.00000227,0.,0.,0.00000828,
 0.,0.,-0.00002741,0.,0.,-0.00000211,0.,0.,-0.00000109,0.,0.,0.00014793
 ,0.,0.,0.00010003,0.,0.,0.00002375,0.,0.,0.00536174,0.,0.,-0.00011044,
 0.,0.,0.00275659,-0.00000001,0.,-0.00355733,0.,0.,-0.00011059,0.,0.,0.
 00000066,0.,0.,-0.00000046,0.,0.,0.00001479,0.,0.,-0.00094870,0.,-0.00
 000002,0.00727270,0.00000038,-0.00000023,-0.03513323,0.00000006,-0.000
 00002,0.00377350,0.,0.,0.00000075,0.,0.,0.00000225,0.,0.,-0.00000080,0
 .,0.,0.00001735,0.,0.,0.00000184,0.,0.,0.00000697,0.,0.,-0.00000083,0.
 ,0.,0.00000282,0.,0.,0.00000884,0.,0.,0.00017258,0.,0.,-0.00438321,-0.
 00000041,0.00000026,0.02447637,-0.00000712,-0.00001319,0.00000001,-0.0
 0002142,-0.00000470,-0.00000001,0.00000569,0.00003645,0.,-0.00003724,0
 .00000452,0.,0.00002217,-0.00001588,0.,-0.00005647,0.00003894,0.,0.000
 07830,0.00005648,0.,0.00001535,0.00001100,0.,0.00003478,-0.00007439,0.
 ,-0.00000909,-0.00001394,0.,-0.00000243,-0.00009140,0.,0.00000318,0.00
 002241,0.,-0.00038833,-0.00037239,0.,-0.00010016,0.00001489,0.,0.00002
 269,0.00013629,0.,0.00011326,-0.00013354,0.,-0.00077269,-0.00415052,0.
 ,-0.00074709,0.00090508,0.00000002,0.00146573,-0.00014306,0.00000001,-
 0.01956362,0.01257547,0.00000003,-0.00157627,-0.00053441,0.,-0.2912242
 4,0.09895677,0.00000037,0.00002621,-0.00002565,0.00000001,-0.00000391,
 0.00000050,0.,0.00001481,0.00000371,0.,-0.00003174,0.00001730,-0.00000
 001,-0.00028619,-0.00010624,0.,0.00028404,-0.00010460,0.,0.00056583,-0
 .00201841,0.,0.00017149,0.00041414,0.,-0.00000721,-0.00000304,0.,-0.00
 002123,0.00000420,0.,0.00000188,-0.00001523,0.,0.00000919,-0.00006169,
 0.,-0.00000530,0.00000432,0.,-0.00000596,0.00000317,0.,-0.00000622,0.0
 0000237,0.,-0.00000546,0.00001054,0.,0.00000656,-0.00000112,0.,0.00002
 888,0.00002125,0.,0.00000861,0.00005753,0.,0.00058178,0.00016298,0.,0.
 31048079,0.00003939,0.00008180,-0.00000001,0.00000063,-0.00004676,0.,0
 .00002340,0.00001966,0.,-0.00002901,0.00003696,0.,-0.00002339,0.000014
 86,0.,0.00005538,-0.00020759,0.,0.00013898,0.00016399,0.,0.00005447,-0
 .00002117,0.,-0.00001819,-0.00012887,0.,-0.00005111,-0.00003077,0.,0.0
 0001974,-0.00006682,0.,-0.00000271,0.00005846,0.,-0.00032022,-0.000141
 40,0.,-0.00006743,0.00003722,0.,0.00001010,0.00009872,0.,-0.00059466,-
 0.00047921,0.,-0.00280596,-0.00219048,-0.00000002,-0.00038333,0.000698
 60,-0.00000001,-0.00127925,-0.00482415,-0.00000002,-0.01934527,0.01135
 025,0.00000004,0.02849398,-0.00860290,-0.00000003,0.09940957,-0.099465
 43,-0.00000019,-0.00025677,0.00021594,-0.00000001,0.00001899,-0.000033
 64,0.,-0.00003809,-0.00002107,0.,0.00020254,-0.00003714,0.00000001,0.0
 0129764,-0.00016568,0.,-0.00014067,0.00010941,0.,0.00223734,0.00108105
 ,0.,-0.00043031,0.00001517,0.,-0.00000145,0.00000207,0.,-0.00001207,0.
 00000496,0.,0.00000252,-0.00000335,0.,0.00001196,-0.00004687,0.,0.0000
 0177,0.00000066,0.,0.00001048,0.00000279,0.,0.00000627,-0.00000007,0.,
 0.00002375,-0.00001797,0.,-0.00001205,0.00000075,0.,-0.00008044,0.0000
 1329,0.,-0.00001788,-0.00002202,0.,-0.00124688,-0.00026067,0.,-0.10529
 831,0.10224950,0.,0.,-0.00002340,0.,0.,-0.00000053,0.,0.,0.00002295,0.
 ,0.,0.00001817,0.,0.,0.00001225,0.,0.,-0.00001991,0.,0.,-0.00058351,0.
 ,0.,-0.00005746,0.,0.,0.00019390,0.,0.,-0.00000280,0.,0.,-0.00001420,0
 .,0.,0.00000178,0.,0.,-0.00085874,0.,0.,0.00006331,0.,0.,-0.00006462,0
 .,0.,-0.00053746,0.,-0.00000002,0.00955997,0.,0.,0.00017710,0.,-0.0000
 0002,0.00366087,-0.00000002,0.,0.00453562,0.00000005,-0.00000002,0.002
 51802,0.00000036,-0.00000018,-0.03574386,0.,0.,0.00005851,0.,0.,-0.000
 00371,0.,0.,0.00000560,0.,0.,-0.00000376,0.,0.,-0.00004762,0.,0.,0.000
 05308,0.,0.,-0.00192094,0.,0.,-0.00028264,0.,0.,0.00000321,0.,0.,0.000
 01407,0.,0.,-0.00000427,0.,0.,0.00025006,0.,0.,-0.00000705,0.,0.,0.000
 00807,0.,0.,0.00000092,0.,0.,0.00000122,0.,0.,-0.00000288,0.,0.,0.0001
 1565,0.,0.,0.00005879,0.,0.,0.00032809,-0.00000040,0.00000022,0.024167
 00,0.00001239,0.00003096,0.,0.00000994,-0.00000445,0.,-0.00002059,-0.0
 0003883,0.,-0.00005640,0.00018090,0.,-0.00026007,-0.00008698,0.,-0.000
 03803,-0.00006531,0.,0.00015276,0.00136742,0.,0.00002353,-0.00016156,0
 .,0.00001158,0.00011106,0.,-0.00002550,0.00000886,0.,-0.00003847,0.000
 01089,0.,0.00000173,-0.00000249,0.,0.00009899,-0.00043478,0.,-0.000000
 02,0.00003816,0.,0.00000071,0.00002337,0.,-0.00460997,0.00009792,0.,-0
 .00145531,0.02786863,0.00000005,0.00001856,0.00275255,0.,-0.00052323,-
 0.00019930,0.,-0.05998276,0.02867125,0.00000007,-0.00418313,-0.0021077
 8,0.,0.00671445,-0.02762684,-0.00000005,-0.00005304,0.00005492,0.,-0.0
 0000295,-0.00000319,0.,-0.00000787,-0.00000025,0.,0.00003550,-0.000007
 52,0.,0.00013687,0.00010096,0.,-0.00009502,0.00002953,0.,0.00072936,-0
 .00093118,0.,-0.00029960,-0.00024865,0.,-0.00000380,0.00000157,0.,0.00
 000517,-0.00000553,0.,-0.00003054,-0.00001363,0.,-0.00075624,-0.000923
 42,0.,-0.00000353,-0.00000287,0.,0.00000048,0.00000213,0.,0.00000123,0
 .00000322,0.,0.00000369,-0.00000211,0.,-0.00000132,0.00000744,0.,0.000
 01026,-0.00000275,0.,0.00000370,-0.00013380,0.,-0.00004909,0.00003169,
 0.,0.00087568,0.00029224,0.,0.06361520,0.00000096,-0.00000420,0.,0.000
 00078,0.00000823,0.,0.00000117,0.00000783,0.,0.00000667,-0.00010248,0.
 ,0.00008547,0.00005902,0.,0.00005970,-0.00002137,0.,-0.00036114,-0.000
 61520,0.,-0.00002746,0.00014906,0.,-0.00015784,0.00022767,0.,0.0000403
 4,0.00001639,0.,0.00003164,0.00008604,0.,-0.00000015,-0.00003790,0.,0.
 00050889,0.00043418,0.,0.00008918,-0.00009561,0.,-0.00009807,-0.000095
 54,0.,0.00177482,0.00121096,0.,-0.00053835,-0.00991635,-0.00000002,-0.
 00296104,0.00032649,0.,0.00006253,0.00040813,0.,0.02931411,-0.32991507
 ,-0.00000056,-0.00360559,0.00059948,-0.00000002,0.00445709,-0.01533905
 ,-0.00000004,-0.00006585,0.00004195,0.,0.00000847,-0.00000106,0.,-0.00
 001187,0.00000063,0.,0.00002285,-0.00001520,0.,-0.00000976,0.00005235,
 0.,-0.00005881,0.00004294,0.,0.00058961,-0.00076399,0.,-0.00036733,-0.
 00017074,0.,0.00000960,0.00000158,0.,0.00001179,0.00000272,0.,0.000011
 60,0.00002226,0.,0.00005447,0.00114763,0.,0.00000562,-0.00000237,0.,0.
 00000580,-0.00000265,0.,0.00000553,-0.00000353,0.,0.00000371,-0.000009
 05,0.,-0.00000556,0.00000157,0.,0.00000068,-0.00002080,0.,0.00000899,-
 0.00010262,0.,-0.00004154,0.00001508,0.,-0.00026898,0.00089947,0.00000
 001,-0.02862374,0.35149964,0.,0.,-0.00000021,0.,0.,-0.00000767,0.,0.,0
 .00000010,0.,0.,-0.00002050,0.,0.,0.00005317,0.,0.,-0.00001255,0.,0.,0
 .00016962,0.,0.,0.00001169,0.,0.,-0.00000747,0.,0.,-0.00000301,0.,0.,-
 0.00000006,0.,0.,0.00000225,0.,0.,-0.00002968,0.,0.,0.00000529,0.,0.,0
 .00002785,0.00000002,0.,0.00363519,0.,-0.00000005,0.00235317,0.,0.,-0.
 00197005,0.,0.,-0.00060832,0.00000007,-0.00000055,-0.03702592,0.,-0.00
 000001,0.00964141,0.,-0.00000002,0.00520653,0.,0.00000001,-0.00000321,
 0.,0.,-0.00000420,0.,0.,0.00000432,0.,0.,-0.00000010,0.,0.,-0.00068801
 ,0.,0.,0.00015036,0.,0.,0.00010235,0.,0.,-0.00074718,0.,0.,0.00000300,
 0.,0.,-0.00001086,0.,0.,0.00002593,0.,0.,0.00032723,0.,0.,-0.00000202,
 0.,0.,0.00000658,0.,0.,0.00000031,0.,0.,0.00000105,0.,0.,-0.00000038,0
 .,0.,0.00004304,0.,0.,0.00000379,0.,0.,0.00018634,0.,0.00000001,-0.005
 61802,-0.00000008,0.00000062,0.02478265,-0.00142773,-0.00511716,-0.000
 00005,-0.00056229,0.00181380,0.00000005,-0.00016284,-0.00007426,-0.000
 00003,0.00044833,0.00015336,0.00000001,0.00049970,0.00181125,-0.000000
 02,-0.02428884,0.01711515,0.00000007,0.00046697,0.00012032,0.00000001,
 0.00017172,-0.00003790,0.00000002,-0.00028272,-0.00034998,-0.00000002,
 0.00033610,0.00014978,-0.00000002,-0.00022356,0.00023236,-0.00000002,-
 0.00000977,-0.00033634,0.00000004,0.00022911,0.00009059,0.00000003,0.0
 0021354,-0.00009990,-0.00000002,-0.00020133,-0.00013546,0.00000003,-0.
 00074034,-0.00208092,-0.00000001,0.00003450,0.00019339,0.,-0.00012833,
 -0.00010264,-0.00000003,-0.00394257,0.00300866,-0.00000001,-0.00005161
 ,0.00012973,0.00000001,0.00396973,0.00010085,0.00000005,-0.00049767,-0
 .00057857,0.,0.02245740,-0.05304137,-0.00000010,-0.00033620,-0.0004168
 3,0.,0.00364120,-0.00103728,0.,-0.00317497,0.00574714,0.00000002,0.021
 92299,-0.04448493,-0.00000010,-0.02880200,0.01357139,0.00000005,-0.000
 05984,-0.00076072,-0.00000003,-0.00149638,-0.00452986,0.,0.00000691,-0
 .00002279,0.,0.00000294,-0.00001139,0.,0.00000682,0.00000125,0.,0.0000
 0568,0.00000393,0.,0.00000064,0.00000902,0.,-0.00039337,-0.00020267,0.
 ,-0.00018141,0.00007951,0.,-0.00037789,-0.00035402,0.,-0.00049762,-0.0
 0147554,0.,0.00093155,0.00171388,0.,-0.00096237,0.00092401,0.,-0.00010
 892,0.00020464,0.,0.00006248,0.00010433,0.,0.00003470,0.00003103,0.,0.
 01346754,-0.00175213,0.00286011,0.00000004,-0.00015792,-0.00078423,-0.
 00000004,0.00010693,0.00018150,0.00000003,-0.00024234,-0.00004644,-0.0
 0000001,-0.00200713,-0.00144729,0.00000002,0.00334472,-0.00182037,-0.0
 0000003,-0.00010848,-0.00058999,0.,0.00013031,0.00006003,-0.00000002,-
 0.00016797,0.00028530,0.00000002,-0.00025812,-0.00012021,0.00000002,0.
 00013052,-0.00026709,0.00000002,0.00000912,0.00025037,-0.00000003,-0.0
 0021898,0.00001593,-0.00000002,-0.00024958,0.00014026,0.00000002,0.000
 21993,0.00018473,-0.00000002,0.00114727,0.00183010,0.00000001,-0.00010
 792,-0.00013635,0.,0.00018731,0.00019767,0.00000002,0.01771332,-0.0074
 0601,-0.00000001,0.00031645,-0.00010864,-0.00000001,-0.00264574,-0.002
 91243,-0.00000005,0.00109624,0.00026562,0.,-0.04716464,0.01167966,0.00
 000007,-0.00026231,-0.00040555,0.,-0.00289988,-0.00205303,0.,0.0169365
 5,-0.01223472,-0.00000004,-0.05291136,0.00707151,0.00000009,0.00390057
 ,0.00008484,-0.00000001,-0.00030815,-0.00064751,0.00000002,-0.00216654
 ,0.00236107,0.,-0.00000043,0.00001710,0.,-0.00000126,0.00001720,0.,0.0
 0000353,0.00000704,0.,0.00000142,0.00001412,0.,0.00001599,-0.00000651,
 0.,0.00005214,0.00008306,0.,0.00017924,-0.00001176,0.,0.00094591,-0.00
 018036,0.,0.00068179,0.00146103,0.,-0.00141816,-0.00112241,0.,-0.00006
 064,-0.00042794,0.,0.00011752,-0.00012054,0.,-0.00000963,-0.00034154,0
 .,-0.00005871,-0.00002649,0.,0.06794121,0.00414916,0.,0.,0.00252107,0.
 ,0.,-0.00002668,0.,0.,-0.00005109,0.,0.,0.00000128,0.,0.,-0.00173180,0
 .00000003,-0.00000002,0.00377258,0.,0.,0.00038979,0.,0.,0.00005723,0.,
 0.,0.00000204,0.,0.,0.00002710,0.,0.,0.00002427,0.,0.,-0.00001535,0.,0
 .,0.00000747,0.,0.,-0.00001016,0.,0.,-0.00001324,0.00000001,0.,-0.0017
 0103,0.,-0.00000001,-0.00003168,0.,0.,0.00003521,0.00000004,-0.0000000
 2,0.00203895,0.,0.,-0.00002615,-0.00000001,-0.00000001,0.00298110,0.,0
 .,0.00015676,-0.00000009,0.00000010,-0.02530049,0.,0.,-0.00037863,-0.0
 0000001,-0.00000001,0.00363844,0.00000004,-0.00000003,0.00254416,-0.00
 000011,0.00000007,-0.02586002,0.00000002,-0.00000002,0.00405079,0.,0.,
 -0.00043601,0.,0.,0.00370803,0.,0.,0.00000504,0.,0.,-0.00000513,0.,0.,
 0.00000429,0.,0.,-0.00000262,0.,0.,0.00000124,0.,0.,0.00000047,0.,0.,-
 0.00042184,0.,0.,0.00002782,0.,0.,-0.00227469,0.,0.,-0.00220049,0.,0.,
 -0.00014667,0.,0.,-0.00041497,0.,0.,-0.00003085,0.,0.,0.00001622,0.000
 00011,-0.00000007,0.03506824\\0.00000159,0.00000146,0.,0.00000170,0.00
 000200,0.,0.00000031,0.00000233,0.,0.00000033,0.00000084,0.,0.00000060
 ,0.00000131,0.,0.00000095,0.00000017,0.,-0.00000027,-0.00000015,0.,-0.
 00000062,0.00000152,0.,-0.00000162,0.00000126,0.,0.00000051,0.00000105
 ,0.,-0.00000142,0.00000219,0.,-0.00000072,0.00000479,0.,-0.00000178,0.
 00000007,0.,0.,0.00000117,0.,-0.00000416,0.00000212,0.,-0.00000055,-0.
 00000079,0.,-0.00000165,-0.00000167,0.,-0.00000235,0.00000026,0.,-0.00
 000043,-0.00000123,0.,-0.00000075,-0.00000052,0.,0.00000001,-0.0000023
 2,0.,-0.00000300,-0.00000344,0.,0.00000165,0.00000058,0.,0.00000415,0.
 00000142,0.,0.00000158,-0.00000067,0.,0.00000189,-0.00000132,0.,0.0000
 0110,-0.00000109,0.,0.00000154,-0.00000325,0.,-0.00000063,-0.00000239,
 0.,0.00000003,-0.00000391,0.,-0.00000106,0.00000354,0.,-0.00000252,0.0
 0000258,0.,-0.00000312,0.00000119,0.,-0.00000262,-0.00000060,0.,0.0000
 0050,0.00000352,0.,0.00000179,0.00000246,0.,0.00000302,0.00000158,0.,0
 .00000368,0.00000028,0.,0.00000276,-0.00000091,0.,0.00000188,-0.000002
 27,0.,0.00000116,-0.00000362,0.,-0.00000041,-0.00000359,0.,-0.00000168
 ,-0.00000306,0.,-0.00000276,-0.00000176,0.,0.00000140,-0.00000110,0.\\
 \@


 TERENCE, THIS IS STUPID STUFF:
 YOU EAT YOUR VICTUALS FAST ENOUGH;
 THERE CAN'T BE MUCH AMISS, 'TIS CLEAR
 TO SEE THE RATE YOU DRINK YOUR BEER.
 BUT OH, GOOD LORD, THE VERSE YOU MAKE,
 IT GIVES A CHAP THE BELLY-ACHE.
 THE COW, THE OLD COW, SHE IS DEAD;
 IT SLEEPS WELL, THE HORNED HEAD:
 WE POOR LADS, 'TIS OUR TURN NOW
 TO HEAR SUCH TUNES AS KILLED THE COW.
 PRETTY FRIENDSHIP 'TIS TO RHYME
 YOUR FRIENDS TO DEATH BEFORE THEIR TIME.
 MOPING, MELANCHOLY MAD:
 COME PIPE A TUNE TO DANCE TO, LAD.

     -- A. E. HOUSMAN
 Job cpu time:       5 days 13 hours 11 minutes 18.4 seconds.
 File lengths (MBytes):  RWF=  14532 Int=      0 D2E=      0 Chk=     58 Scr=      1
 Normal termination of Gaussian 09 at Sun Feb  2 11:16:45 2020.
