 Entering Gaussian System, Link 0=/share/apps/gaussian16/g16/g16
 Initial command:
 /share/apps/gaussian16/g16/l1.exe "/home/am2145//scratch/4143/Gau-23041.inp" -scrdir="/home/am2145//scratch/4143/"
 Entering Link 1 = /share/apps/gaussian16/g16/l1.exe PID=     23042.
  
 Copyright (c) 1988,1990,1992,1993,1995,1998,2003,2009,2016,
            Gaussian, Inc.  All Rights Reserved.
  
 This is part of the Gaussian(R) 16 program.  It is based on
 the Gaussian(R) 09 system (copyright 2009, Gaussian, Inc.),
 the Gaussian(R) 03 system (copyright 2003, Gaussian, Inc.),
 the Gaussian(R) 98 system (copyright 1998, Gaussian, Inc.),
 the Gaussian(R) 94 system (copyright 1995, Gaussian, Inc.),
 the Gaussian 92(TM) system (copyright 1992, Gaussian, Inc.),
 the Gaussian 90(TM) system (copyright 1990, Gaussian, Inc.),
 the Gaussian 88(TM) system (copyright 1988, Gaussian, Inc.),
 the Gaussian 86(TM) system (copyright 1986, Carnegie Mellon
 University), and the Gaussian 82(TM) system (copyright 1983,
 Carnegie Mellon University). Gaussian is a federally registered
 trademark of Gaussian, Inc.
  
 This software contains proprietary and confidential information,
 including trade secrets, belonging to Gaussian, Inc.
  
 This software is provided under written license and may be
 used, copied, transmitted, or stored only in accord with that
 written license.
  
 The following legend is applicable only to US Government
 contracts under FAR:
  
                    RESTRICTED RIGHTS LEGEND
  
 Use, reproduction and disclosure by the US Government is
 subject to restrictions as set forth in subparagraphs (a)
 and (c) of the Commercial Computer Software - Restricted
 Rights clause in FAR 52.227-19.
  
 Gaussian, Inc.
 340 Quinnipiac St., Bldg. 40, Wallingford CT 06492
  
  
 ---------------------------------------------------------------
 Warning -- This program may not be used in any manner that
 competes with the business of Gaussian, Inc. or will provide
 assistance to any competitor of Gaussian, Inc.  The licensee
 of this program is prohibited from giving any competitor of
 Gaussian, Inc. access to this program.  By using this program,
 the user acknowledges that Gaussian, Inc. is engaged in the
 business of creating and licensing software in the field of
 computational chemistry and represents and warrants to the
 licensee that it is not a competitor of Gaussian, Inc. and that
 it will not use this program in any manner prohibited above.
 ---------------------------------------------------------------
  

 Cite this work as:
 Gaussian 16, Revision A.03,
 M. J. Frisch, G. W. Trucks, H. B. Schlegel, G. E. Scuseria, 
 M. A. Robb, J. R. Cheeseman, G. Scalmani, V. Barone, 
 G. A. Petersson, H. Nakatsuji, X. Li, M. Caricato, A. V. Marenich, 
 J. Bloino, B. G. Janesko, R. Gomperts, B. Mennucci, H. P. Hratchian, 
 J. V. Ortiz, A. F. Izmaylov, J. L. Sonnenberg, D. Williams-Young, 
 F. Ding, F. Lipparini, F. Egidi, J. Goings, B. Peng, A. Petrone, 
 T. Henderson, D. Ranasinghe, V. G. Zakrzewski, J. Gao, N. Rega, 
 G. Zheng, W. Liang, M. Hada, M. Ehara, K. Toyota, R. Fukuda, 
 J. Hasegawa, M. Ishida, T. Nakajima, Y. Honda, O. Kitao, H. Nakai, 
 T. Vreven, K. Throssell, J. A. Montgomery, Jr., J. E. Peralta, 
 F. Ogliaro, M. J. Bearpark, J. J. Heyd, E. N. Brothers, K. N. Kudin, 
 V. N. Staroverov, T. A. Keith, R. Kobayashi, J. Normand, 
 K. Raghavachari, A. P. Rendell, J. C. Burant, S. S. Iyengar, 
 J. Tomasi, M. Cossi, J. M. Millam, M. Klene, C. Adamo, R. Cammi, 
 J. W. Ochterski, R. L. Martin, K. Morokuma, O. Farkas, 
 J. B. Foresman, and D. J. Fox, Gaussian, Inc., Wallingford CT, 2016.
 
 ******************************************
 Gaussian 16:  ES64L-G16RevA.03 25-Dec-2016
                 1-May-2019 
 ******************************************
 %nprocshared=20
 Will use up to   20 processors via shared memory.
 %mem=100GB
 %chk=7-path-TSguess-1.chk
 ----------------------------------------------------------------------
 # opt=(ts,modredundant,noeigen) freq b3lyp/6-311+g(d,p) int=grid=fine 
 scf=xqc
 ----------------------------------------------------------------------
 1/5=1,11=1,18=120,26=3,38=1/1,3;
 2/9=110,12=2,17=6,18=5,40=1/2;
 3/5=4,6=6,7=111,11=2,25=1,30=1,71=1,74=-5,75=-4/1,2,3;
 4//1;
 5/5=2,8=3,13=1,38=5/2,8;
 6/7=2,8=2,9=2,10=2,28=1/1;
 7//1,2,3,16;
 1/5=1,11=1,18=20,26=3/3(2);
 2/9=110/2;
 99//99;
 2/9=110/2;
 3/5=4,6=6,7=111,11=2,25=1,30=1,71=1,74=-5,75=-4/1,2,3;
 4/5=5,16=3,69=1/1;
 5/5=2,8=3,13=1,38=5/2,8;
 7//1,2,3,16;
 1/5=1,11=1,18=20,26=3/3(-5);
 2/9=110/2;
 6/7=2,8=2,9=2,10=2,19=2,28=1/1;
 99/9=1/99;
 ----------------
 7-path-TSguess-1
 ----------------
 Symbolic Z-matrix:
 Charge =  0 Multiplicity = 2
 C                     1.8217    2.8537   -0.0998 
 C                     3.1       2.3325    0.2047 
 C                     3.2801    0.9535    0.3316 
 C                     2.1054    0.191     0.2512 
 C                     0.782     0.6223    0.0305 
 C                     0.6405    2.0053   -0.2562 
 C                    -0.0529   -0.6427   -0.0428 
 C                     2.176    -1.2079    0.2127 
 C                     0.8904   -1.7035   -0.0095 
 C                     4.5088    0.194     0.4652 
 C                     3.3286   -1.9587    0.2656 
 C                     4.539    -1.1832    0.4324 
 C                     0.6811   -3.0717   -0.1919 
 C                     3.125    -3.377     0.0952 
 C                     1.8655   -3.8989   -0.1258 
 C                    -1.4037   -1.0497   -0.0876 
 C                    -1.6577   -2.4465   -0.431 
 C                    -0.6486   -3.4219   -0.4754 
 C                    -2.5614   -0.2312    0.2614 
 C                    -3.0076   -2.8379   -0.7521 
 C                    -3.8725   -0.678    -0.0694 
 C                    -4.0522   -1.9842   -0.6419 
 C                    -0.5406    2.614    -0.7702 
 C                     1.6859    4.255    -0.3419 
 C                     0.5109    4.7993   -0.7835 
 C                    -0.6059    3.9594   -1.0257 
 C                    -2.4408    0.9437    1.0321 
 C                    -3.5486    1.6963    1.3806 
 C                    -4.9842    0.1235    0.2601 
 C                    -4.829     1.3015    0.9665 
 H                     5.4947   -1.6908    0.5129 
 H                     3.9757   -4.0501    0.1245 
 H                     1.7598   -4.97     -0.2651 
 H                    -0.921    -4.4417   -0.7287 
 H                     5.443     0.7362    0.5704 
 H                     3.9374    3.0196    0.2773 
 H                     2.5572    4.8846   -0.1935 
 H                     0.4376    5.8639   -0.9742 
 H                    -1.5198    4.3857   -1.4244 
 H                    -1.4646    1.2461    1.3849 
 H                    -3.4232    2.5887    1.983 
 H                    -5.6949    1.8991    1.228 
 H                    -5.9748   -0.2197   -0.0197 
 H                    -5.0547   -2.3001   -0.9099 
 H                    -3.167    -3.8545   -1.0958 
 H                    -1.59858   1.76234  -0.96865 
 H                    -1.97138   1.29527  -0.94562 
 
 Add virtual bond connecting atoms H46        and C23        Dist= 2.59D+00.
 The following ModRedundant input section has been read:
 

 GradGradGradGradGradGradGradGradGradGradGradGradGradGradGradGradGradGrad
 Berny optimization.
 Initialization pass.
                           ----------------------------
                           !    Initial Parameters    !
                           ! (Angstroms and Degrees)  !
 --------------------------                            --------------------------
 ! Name  Definition              Value          Derivative Info.                !
 --------------------------------------------------------------------------------
 ! R1    R(1,2)                  1.4137         estimate D2E/DX2                !
 ! R2    R(1,6)                  1.4627         estimate D2E/DX2                !
 ! R3    R(1,24)                 1.4285         estimate D2E/DX2                !
 ! R4    R(2,3)                  1.3965         estimate D2E/DX2                !
 ! R5    R(2,36)                 1.0856         estimate D2E/DX2                !
 ! R6    R(3,4)                  1.4028         estimate D2E/DX2                !
 ! R7    R(3,10)                 1.4507         estimate D2E/DX2                !
 ! R8    R(4,5)                  1.4093         estimate D2E/DX2                !
 ! R9    R(4,8)                  1.4012         estimate D2E/DX2                !
 ! R10   R(5,6)                  1.4195         estimate D2E/DX2                !
 ! R11   R(5,7)                  1.5175         estimate D2E/DX2                !
 ! R12   R(6,23)                 1.4247         estimate D2E/DX2                !
 ! R13   R(7,9)                  1.4199         estimate D2E/DX2                !
 ! R14   R(7,16)                 1.4115         estimate D2E/DX2                !
 ! R15   R(8,9)                  1.3956         estimate D2E/DX2                !
 ! R16   R(8,11)                 1.3766         estimate D2E/DX2                !
 ! R17   R(9,13)                 1.3961         estimate D2E/DX2                !
 ! R18   R(10,12)                1.3779         estimate D2E/DX2                !
 ! R19   R(10,35)                1.0853         estimate D2E/DX2                !
 ! R20   R(11,12)                1.4472         estimate D2E/DX2                !
 ! R21   R(11,14)                1.4429         estimate D2E/DX2                !
 ! R22   R(12,31)                1.0851         estimate D2E/DX2                !
 ! R23   R(13,15)                1.4462         estimate D2E/DX2                !
 ! R24   R(13,18)                1.404          estimate D2E/DX2                !
 ! R25   R(14,15)                1.3811         estimate D2E/DX2                !
 ! R26   R(14,32)                1.0852         estimate D2E/DX2                !
 ! R27   R(15,33)                1.0853         estimate D2E/DX2                !
 ! R28   R(16,17)                1.4606         estimate D2E/DX2                !
 ! R29   R(16,19)                1.4601         estimate D2E/DX2                !
 ! R30   R(17,18)                1.4042         estimate D2E/DX2                !
 ! R31   R(17,20)                1.4417         estimate D2E/DX2                !
 ! R32   R(18,34)                1.0855         estimate D2E/DX2                !
 ! R33   R(19,21)                1.4241         estimate D2E/DX2                !
 ! R34   R(19,27)                1.4103         estimate D2E/DX2                !
 ! R35   R(20,22)                1.3536         estimate D2E/DX2                !
 ! R36   R(20,45)                1.0849         estimate D2E/DX2                !
 ! R37   R(21,22)                1.4374         estimate D2E/DX2                !
 ! R38   R(21,29)                1.4096         estimate D2E/DX2                !
 ! R39   R(22,44)                1.0847         estimate D2E/DX2                !
 ! R40   R(23,26)                1.371          estimate D2E/DX2                !
 ! R41   R(23,46)                1.3726         estimate D2E/DX2                !
 ! R42   R(24,25)                1.3682         estimate D2E/DX2                !
 ! R43   R(24,37)                1.0852         estimate D2E/DX2                !
 ! R44   R(25,26)                1.4182         estimate D2E/DX2                !
 ! R45   R(25,38)                1.084          estimate D2E/DX2                !
 ! R46   R(26,39)                1.0844         estimate D2E/DX2                !
 ! R47   R(27,28)                1.3839         estimate D2E/DX2                !
 ! R48   R(27,40)                1.0811         estimate D2E/DX2                !
 ! R49   R(28,30)                1.4024         estimate D2E/DX2                !
 ! R50   R(28,41)                1.084          estimate D2E/DX2                !
 ! R51   R(29,30)                1.3823         estimate D2E/DX2                !
 ! R52   R(29,43)                1.0851         estimate D2E/DX2                !
 ! R53   R(30,42)                1.0841         estimate D2E/DX2                !
 ! R54   R(46,47)                0.5981         estimate D2E/DX2                !
 ! A1    A(2,1,6)              122.6436         estimate D2E/DX2                !
 ! A2    A(2,1,24)             118.9553         estimate D2E/DX2                !
 ! A3    A(6,1,24)             118.2995         estimate D2E/DX2                !
 ! A4    A(1,2,3)              120.0175         estimate D2E/DX2                !
 ! A5    A(1,2,36)             118.5906         estimate D2E/DX2                !
 ! A6    A(3,2,36)             121.2932         estimate D2E/DX2                !
 ! A7    A(2,3,4)              115.059          estimate D2E/DX2                !
 ! A8    A(2,3,10)             129.3906         estimate D2E/DX2                !
 ! A9    A(4,3,10)             115.466          estimate D2E/DX2                !
 ! A10   A(3,4,5)              128.9759         estimate D2E/DX2                !
 ! A11   A(3,4,8)              120.1357         estimate D2E/DX2                !
 ! A12   A(5,4,8)              110.3984         estimate D2E/DX2                !
 ! A13   A(4,5,6)              115.0503         estimate D2E/DX2                !
 ! A14   A(4,5,7)              105.611          estimate D2E/DX2                !
 ! A15   A(6,5,7)              138.3839         estimate D2E/DX2                !
 ! A16   A(1,6,5)              117.5824         estimate D2E/DX2                !
 ! A17   A(1,6,23)             117.4027         estimate D2E/DX2                !
 ! A18   A(5,6,23)             124.8749         estimate D2E/DX2                !
 ! A19   A(5,7,9)              104.8414         estimate D2E/DX2                !
 ! A20   A(5,7,16)             140.2149         estimate D2E/DX2                !
 ! A21   A(9,7,16)             114.9032         estimate D2E/DX2                !
 ! A22   A(4,8,9)              108.2092         estimate D2E/DX2                !
 ! A23   A(4,8,11)             125.8482         estimate D2E/DX2                !
 ! A24   A(9,8,11)             125.7127         estimate D2E/DX2                !
 ! A25   A(7,9,8)              110.5114         estimate D2E/DX2                !
 ! A26   A(7,9,13)             129.0129         estimate D2E/DX2                !
 ! A27   A(8,9,13)             120.4589         estimate D2E/DX2                !
 ! A28   A(3,10,12)            122.6601         estimate D2E/DX2                !
 ! A29   A(3,10,35)            118.4545         estimate D2E/DX2                !
 ! A30   A(12,10,35)           118.8675         estimate D2E/DX2                !
 ! A31   A(8,11,12)            114.3596         estimate D2E/DX2                !
 ! A32   A(8,11,14)            114.4195         estimate D2E/DX2                !
 ! A33   A(12,11,14)           131.1744         estimate D2E/DX2                !
 ! A34   A(10,12,11)           121.3327         estimate D2E/DX2                !
 ! A35   A(10,12,31)           119.0172         estimate D2E/DX2                !
 ! A36   A(11,12,31)           119.6376         estimate D2E/DX2                !
 ! A37   A(9,13,15)            115.5827         estimate D2E/DX2                !
 ! A38   A(9,13,18)            114.3825         estimate D2E/DX2                !
 ! A39   A(15,13,18)           129.9575         estimate D2E/DX2                !
 ! A40   A(11,14,15)           121.2647         estimate D2E/DX2                !
 ! A41   A(11,14,32)           119.7275         estimate D2E/DX2                !
 ! A42   A(15,14,32)           119.0006         estimate D2E/DX2                !
 ! A43   A(13,15,14)           122.5494         estimate D2E/DX2                !
 ! A44   A(13,15,33)           118.6127         estimate D2E/DX2                !
 ! A45   A(14,15,33)           118.8352         estimate D2E/DX2                !
 ! A46   A(7,16,17)            116.7195         estimate D2E/DX2                !
 ! A47   A(7,16,19)            126.1253         estimate D2E/DX2                !
 ! A48   A(17,16,19)           117.0248         estimate D2E/DX2                !
 ! A49   A(16,17,18)           123.1444         estimate D2E/DX2                !
 ! A50   A(16,17,20)           118.3463         estimate D2E/DX2                !
 ! A51   A(18,17,20)           118.5065         estimate D2E/DX2                !
 ! A52   A(13,18,17)           120.0649         estimate D2E/DX2                !
 ! A53   A(13,18,34)           121.2732         estimate D2E/DX2                !
 ! A54   A(17,18,34)           118.6616         estimate D2E/DX2                !
 ! A55   A(16,19,21)           119.9051         estimate D2E/DX2                !
 ! A56   A(16,19,27)           121.9931         estimate D2E/DX2                !
 ! A57   A(21,19,27)           117.8429         estimate D2E/DX2                !
 ! A58   A(17,20,22)           122.2244         estimate D2E/DX2                !
 ! A59   A(17,20,45)           117.5498         estimate D2E/DX2                !
 ! A60   A(22,20,45)           120.2253         estimate D2E/DX2                !
 ! A61   A(19,21,22)           119.519          estimate D2E/DX2                !
 ! A62   A(19,21,29)           119.5649         estimate D2E/DX2                !
 ! A63   A(22,21,29)           120.7446         estimate D2E/DX2                !
 ! A64   A(20,22,21)           120.602          estimate D2E/DX2                !
 ! A65   A(20,22,44)           120.6271         estimate D2E/DX2                !
 ! A66   A(21,22,44)           118.5927         estimate D2E/DX2                !
 ! A67   A(6,23,26)            121.7354         estimate D2E/DX2                !
 ! A68   A(6,23,46)            115.2182         estimate D2E/DX2                !
 ! A69   A(26,23,46)           123.0404         estimate D2E/DX2                !
 ! A70   A(1,24,25)            121.7752         estimate D2E/DX2                !
 ! A71   A(1,24,37)            118.01           estimate D2E/DX2                !
 ! A72   A(25,24,37)           120.1906         estimate D2E/DX2                !
 ! A73   A(24,25,26)           119.7227         estimate D2E/DX2                !
 ! A74   A(24,25,38)           120.368          estimate D2E/DX2                !
 ! A75   A(26,25,38)           119.8889         estimate D2E/DX2                !
 ! A76   A(23,26,25)           120.7859         estimate D2E/DX2                !
 ! A77   A(23,26,39)           119.633          estimate D2E/DX2                !
 ! A78   A(25,26,39)           119.5797         estimate D2E/DX2                !
 ! A79   A(19,27,28)           121.4823         estimate D2E/DX2                !
 ! A80   A(19,27,40)           119.246          estimate D2E/DX2                !
 ! A81   A(28,27,40)           119.243          estimate D2E/DX2                !
 ! A82   A(27,28,30)           120.2256         estimate D2E/DX2                !
 ! A83   A(27,28,41)           119.6744         estimate D2E/DX2                !
 ! A84   A(30,28,41)           120.0979         estimate D2E/DX2                !
 ! A85   A(21,29,30)           121.0298         estimate D2E/DX2                !
 ! A86   A(21,29,43)           118.6786         estimate D2E/DX2                !
 ! A87   A(30,29,43)           120.2533         estimate D2E/DX2                !
 ! A88   A(28,30,29)           119.5583         estimate D2E/DX2                !
 ! A89   A(28,30,42)           120.187          estimate D2E/DX2                !
 ! A90   A(29,30,42)           120.222          estimate D2E/DX2                !
 ! A91   A(23,46,47)           163.6356         estimate D2E/DX2                !
 ! D1    D(6,1,2,3)              1.7897         estimate D2E/DX2                !
 ! D2    D(6,1,2,36)           178.2254         estimate D2E/DX2                !
 ! D3    D(24,1,2,3)          -174.4799         estimate D2E/DX2                !
 ! D4    D(24,1,2,36)            1.9558         estimate D2E/DX2                !
 ! D5    D(2,1,6,5)              5.7221         estimate D2E/DX2                !
 ! D6    D(2,1,6,23)          -170.1895         estimate D2E/DX2                !
 ! D7    D(24,1,6,5)          -177.985          estimate D2E/DX2                !
 ! D8    D(24,1,6,23)            6.1034         estimate D2E/DX2                !
 ! D9    D(2,1,24,25)          172.7117         estimate D2E/DX2                !
 ! D10   D(2,1,24,37)           -5.5014         estimate D2E/DX2                !
 ! D11   D(6,1,24,25)           -3.7209         estimate D2E/DX2                !
 ! D12   D(6,1,24,37)          178.066          estimate D2E/DX2                !
 ! D13   D(1,2,3,4)             -5.2701         estimate D2E/DX2                !
 ! D14   D(1,2,3,10)           171.1977         estimate D2E/DX2                !
 ! D15   D(36,2,3,4)           178.3926         estimate D2E/DX2                !
 ! D16   D(36,2,3,10)           -5.1396         estimate D2E/DX2                !
 ! D17   D(2,3,4,5)              1.6208         estimate D2E/DX2                !
 ! D18   D(2,3,4,8)            172.7714         estimate D2E/DX2                !
 ! D19   D(10,3,4,5)          -175.3561         estimate D2E/DX2                !
 ! D20   D(10,3,4,8)            -4.2055         estimate D2E/DX2                !
 ! D21   D(2,3,10,12)         -172.5548         estimate D2E/DX2                !
 ! D22   D(2,3,10,35)            5.8894         estimate D2E/DX2                !
 ! D23   D(4,3,10,12)            3.9011         estimate D2E/DX2                !
 ! D24   D(4,3,10,35)         -177.6547         estimate D2E/DX2                !
 ! D25   D(3,4,5,6)              5.6462         estimate D2E/DX2                !
 ! D26   D(3,4,5,7)            176.5539         estimate D2E/DX2                !
 ! D27   D(8,4,5,6)           -166.1933         estimate D2E/DX2                !
 ! D28   D(8,4,5,7)              4.7144         estimate D2E/DX2                !
 ! D29   D(3,4,8,9)           -173.7583         estimate D2E/DX2                !
 ! D30   D(3,4,8,11)             0.9726         estimate D2E/DX2                !
 ! D31   D(5,4,8,9)             -1.0891         estimate D2E/DX2                !
 ! D32   D(5,4,8,11)           173.6418         estimate D2E/DX2                !
 ! D33   D(4,5,6,1)             -8.7553         estimate D2E/DX2                !
 ! D34   D(4,5,6,23)           166.8198         estimate D2E/DX2                !
 ! D35   D(7,5,6,1)           -175.5075         estimate D2E/DX2                !
 ! D36   D(7,5,6,23)             0.0676         estimate D2E/DX2                !
 ! D37   D(4,5,7,9)             -6.4587         estimate D2E/DX2                !
 ! D38   D(4,5,7,16)           170.9326         estimate D2E/DX2                !
 ! D39   D(6,5,7,9)            161.0929         estimate D2E/DX2                !
 ! D40   D(6,5,7,16)           -21.5158         estimate D2E/DX2                !
 ! D41   D(1,6,23,26)           -4.3409         estimate D2E/DX2                !
 ! D42   D(1,6,23,46)          176.526          estimate D2E/DX2                !
 ! D43   D(5,6,23,26)         -179.9233         estimate D2E/DX2                !
 ! D44   D(5,6,23,46)            0.9436         estimate D2E/DX2                !
 ! D45   D(5,7,9,8)              6.0582         estimate D2E/DX2                !
 ! D46   D(5,7,9,13)          -172.4325         estimate D2E/DX2                !
 ! D47   D(16,7,9,8)          -172.1016         estimate D2E/DX2                !
 ! D48   D(16,7,9,13)            9.4077         estimate D2E/DX2                !
 ! D49   D(5,7,16,17)          167.8218         estimate D2E/DX2                !
 ! D50   D(5,7,16,19)          -16.4742         estimate D2E/DX2                !
 ! D51   D(9,7,16,17)          -14.9585         estimate D2E/DX2                !
 ! D52   D(9,7,16,19)          160.7455         estimate D2E/DX2                !
 ! D53   D(4,8,9,7)             -3.3651         estimate D2E/DX2                !
 ! D54   D(4,8,9,13)           175.2744         estimate D2E/DX2                !
 ! D55   D(11,8,9,7)          -178.105          estimate D2E/DX2                !
 ! D56   D(11,8,9,13)            0.5345         estimate D2E/DX2                !
 ! D57   D(4,8,11,12)            2.7317         estimate D2E/DX2                !
 ! D58   D(4,8,11,14)         -175.0702         estimate D2E/DX2                !
 ! D59   D(9,8,11,12)          176.564          estimate D2E/DX2                !
 ! D60   D(9,8,11,14)           -1.2378         estimate D2E/DX2                !
 ! D61   D(7,9,13,15)          178.6714         estimate D2E/DX2                !
 ! D62   D(7,9,13,18)            1.5465         estimate D2E/DX2                !
 ! D63   D(8,9,13,15)            0.3114         estimate D2E/DX2                !
 ! D64   D(8,9,13,18)         -176.8136         estimate D2E/DX2                !
 ! D65   D(3,10,12,11)          -0.2428         estimate D2E/DX2                !
 ! D66   D(3,10,12,31)         178.4651         estimate D2E/DX2                !
 ! D67   D(35,10,12,11)       -178.6808         estimate D2E/DX2                !
 ! D68   D(35,10,12,31)          0.0271         estimate D2E/DX2                !
 ! D69   D(8,11,12,10)          -3.0176         estimate D2E/DX2                !
 ! D70   D(8,11,12,31)         178.2824         estimate D2E/DX2                !
 ! D71   D(14,11,12,10)        174.323          estimate D2E/DX2                !
 ! D72   D(14,11,12,31)         -4.377          estimate D2E/DX2                !
 ! D73   D(8,11,14,15)           1.1417         estimate D2E/DX2                !
 ! D74   D(8,11,14,32)        -179.8432         estimate D2E/DX2                !
 ! D75   D(12,11,14,15)       -176.1977         estimate D2E/DX2                !
 ! D76   D(12,11,14,32)          2.8175         estimate D2E/DX2                !
 ! D77   D(9,13,15,14)          -0.3534         estimate D2E/DX2                !
 ! D78   D(9,13,15,33)        -179.7434         estimate D2E/DX2                !
 ! D79   D(18,13,15,14)        176.2297         estimate D2E/DX2                !
 ! D80   D(18,13,15,33)         -3.1603         estimate D2E/DX2                !
 ! D81   D(9,13,18,17)          -5.9738         estimate D2E/DX2                !
 ! D82   D(9,13,18,34)         174.2073         estimate D2E/DX2                !
 ! D83   D(15,13,18,17)        177.4099         estimate D2E/DX2                !
 ! D84   D(15,13,18,34)         -2.4091         estimate D2E/DX2                !
 ! D85   D(11,14,15,13)         -0.4014         estimate D2E/DX2                !
 ! D86   D(11,14,15,33)        178.9874         estimate D2E/DX2                !
 ! D87   D(32,14,15,13)       -179.4235         estimate D2E/DX2                !
 ! D88   D(32,14,15,33)         -0.0348         estimate D2E/DX2                !
 ! D89   D(7,16,17,18)          11.7272         estimate D2E/DX2                !
 ! D90   D(7,16,17,20)        -167.6504         estimate D2E/DX2                !
 ! D91   D(19,16,17,18)       -164.3782         estimate D2E/DX2                !
 ! D92   D(19,16,17,20)         16.2442         estimate D2E/DX2                !
 ! D93   D(7,16,19,21)         168.0374         estimate D2E/DX2                !
 ! D94   D(7,16,19,27)         -17.9348         estimate D2E/DX2                !
 ! D95   D(17,16,19,21)        -16.2702         estimate D2E/DX2                !
 ! D96   D(17,16,19,27)        157.7576         estimate D2E/DX2                !
 ! D97   D(16,17,18,13)         -0.505          estimate D2E/DX2                !
 ! D98   D(16,17,18,34)        179.3187         estimate D2E/DX2                !
 ! D99   D(20,17,18,13)        178.8717         estimate D2E/DX2                !
 ! D100  D(20,17,18,34)         -1.3046         estimate D2E/DX2                !
 ! D101  D(16,17,20,22)         -5.3761         estimate D2E/DX2                !
 ! D102  D(16,17,20,45)        174.3507         estimate D2E/DX2                !
 ! D103  D(18,17,20,22)        175.2169         estimate D2E/DX2                !
 ! D104  D(18,17,20,45)         -5.0562         estimate D2E/DX2                !
 ! D105  D(16,19,21,22)          5.2945         estimate D2E/DX2                !
 ! D106  D(16,19,21,29)       -179.4295         estimate D2E/DX2                !
 ! D107  D(27,19,21,22)       -168.9781         estimate D2E/DX2                !
 ! D108  D(27,19,21,29)          6.2979         estimate D2E/DX2                !
 ! D109  D(16,19,27,28)       -178.6148         estimate D2E/DX2                !
 ! D110  D(16,19,27,40)         -0.5785         estimate D2E/DX2                !
 ! D111  D(21,19,27,28)         -4.4692         estimate D2E/DX2                !
 ! D112  D(21,19,27,40)        173.5671         estimate D2E/DX2                !
 ! D113  D(17,20,22,21)         -6.18           estimate D2E/DX2                !
 ! D114  D(17,20,22,44)        178.7395         estimate D2E/DX2                !
 ! D115  D(45,20,22,21)        174.1003         estimate D2E/DX2                !
 ! D116  D(45,20,22,44)         -0.9803         estimate D2E/DX2                !
 ! D117  D(19,21,22,20)          6.252          estimate D2E/DX2                !
 ! D118  D(19,21,22,44)       -178.5689         estimate D2E/DX2                !
 ! D119  D(29,21,22,20)       -168.967          estimate D2E/DX2                !
 ! D120  D(29,21,22,44)          6.212          estimate D2E/DX2                !
 ! D121  D(19,21,29,30)         -3.681          estimate D2E/DX2                !
 ! D122  D(19,21,29,43)        178.5616         estimate D2E/DX2                !
 ! D123  D(22,21,29,30)        171.5359         estimate D2E/DX2                !
 ! D124  D(22,21,29,43)         -6.2215         estimate D2E/DX2                !
 ! D125  D(6,23,26,25)          -0.0535         estimate D2E/DX2                !
 ! D126  D(6,23,26,39)         179.5057         estimate D2E/DX2                !
 ! D127  D(46,23,26,25)        179.0109         estimate D2E/DX2                !
 ! D128  D(46,23,26,39)         -1.4299         estimate D2E/DX2                !
 ! D129  D(6,23,46,47)          19.9494         estimate D2E/DX2                !
 ! D130  D(26,23,46,47)       -159.1711         estimate D2E/DX2                !
 ! D131  D(1,24,25,26)          -0.7145         estimate D2E/DX2                !
 ! D132  D(1,24,25,38)        -179.071          estimate D2E/DX2                !
 ! D133  D(37,24,25,26)        177.4604         estimate D2E/DX2                !
 ! D134  D(37,24,25,38)         -0.8962         estimate D2E/DX2                !
 ! D135  D(24,25,26,23)          2.7144         estimate D2E/DX2                !
 ! D136  D(24,25,26,39)       -176.845          estimate D2E/DX2                !
 ! D137  D(38,25,26,23)       -178.9211         estimate D2E/DX2                !
 ! D138  D(38,25,26,39)          1.5195         estimate D2E/DX2                !
 ! D139  D(19,27,28,30)         -0.1275         estimate D2E/DX2                !
 ! D140  D(19,27,28,41)        179.345          estimate D2E/DX2                !
 ! D141  D(40,27,28,30)       -178.1638         estimate D2E/DX2                !
 ! D142  D(40,27,28,41)          1.3086         estimate D2E/DX2                !
 ! D143  D(27,28,30,29)          2.9395         estimate D2E/DX2                !
 ! D144  D(27,28,30,42)       -179.135          estimate D2E/DX2                !
 ! D145  D(41,28,30,29)       -176.5307         estimate D2E/DX2                !
 ! D146  D(41,28,30,42)          1.3948         estimate D2E/DX2                !
 ! D147  D(21,29,30,28)         -1.0025         estimate D2E/DX2                !
 ! D148  D(21,29,30,42)       -178.9273         estimate D2E/DX2                !
 ! D149  D(43,29,30,28)        176.7198         estimate D2E/DX2                !
 ! D150  D(43,29,30,42)         -1.2051         estimate D2E/DX2                !
 --------------------------------------------------------------------------------
 Trust Radius=3.00D-01 FncErr=1.00D-07 GrdErr=1.00D-06 EigMax=2.50D+02 EigMin=1.00D-04
 Number of steps in this run=    282 maximum allowed number of steps=    282.
 Search for a saddle point of order  1.
 GradGradGradGradGradGradGradGradGradGradGradGradGradGradGradGradGradGrad

                          Input orientation:                          
 ---------------------------------------------------------------------
 Center     Atomic      Atomic             Coordinates (Angstroms)
 Number     Number       Type             X           Y           Z
 ---------------------------------------------------------------------
      1          6           0        1.821700    2.853700   -0.099800
      2          6           0        3.100000    2.332500    0.204700
      3          6           0        3.280100    0.953500    0.331600
      4          6           0        2.105400    0.191000    0.251200
      5          6           0        0.782000    0.622300    0.030500
      6          6           0        0.640500    2.005300   -0.256200
      7          6           0       -0.052900   -0.642700   -0.042800
      8          6           0        2.176000   -1.207900    0.212700
      9          6           0        0.890400   -1.703500   -0.009500
     10          6           0        4.508800    0.194000    0.465200
     11          6           0        3.328600   -1.958700    0.265600
     12          6           0        4.539000   -1.183200    0.432400
     13          6           0        0.681100   -3.071700   -0.191900
     14          6           0        3.125000   -3.377000    0.095200
     15          6           0        1.865500   -3.898900   -0.125800
     16          6           0       -1.403700   -1.049700   -0.087600
     17          6           0       -1.657700   -2.446500   -0.431000
     18          6           0       -0.648600   -3.421900   -0.475400
     19          6           0       -2.561400   -0.231200    0.261400
     20          6           0       -3.007600   -2.837900   -0.752100
     21          6           0       -3.872500   -0.678000   -0.069400
     22          6           0       -4.052200   -1.984200   -0.641900
     23          6           0       -0.540600    2.614000   -0.770200
     24          6           0        1.685900    4.255000   -0.341900
     25          6           0        0.510900    4.799300   -0.783500
     26          6           0       -0.605900    3.959400   -1.025700
     27          6           0       -2.440800    0.943700    1.032100
     28          6           0       -3.548600    1.696300    1.380600
     29          6           0       -4.984200    0.123500    0.260100
     30          6           0       -4.829000    1.301500    0.966500
     31          1           0        5.494700   -1.690800    0.512900
     32          1           0        3.975700   -4.050100    0.124500
     33          1           0        1.759800   -4.970000   -0.265100
     34          1           0       -0.921000   -4.441700   -0.728700
     35          1           0        5.443000    0.736200    0.570400
     36          1           0        3.937400    3.019600    0.277300
     37          1           0        2.557200    4.884600   -0.193500
     38          1           0        0.437600    5.863900   -0.974200
     39          1           0       -1.519800    4.385700   -1.424400
     40          1           0       -1.464600    1.246100    1.384900
     41          1           0       -3.423200    2.588700    1.983000
     42          1           0       -5.694900    1.899100    1.228000
     43          1           0       -5.974800   -0.219700   -0.019700
     44          1           0       -5.054700   -2.300100   -0.909900
     45          1           0       -3.167000   -3.854500   -1.095800
     46          1           0       -1.598580    1.762340   -0.968650
     47          1           0       -1.971380    1.295270   -0.945620
 ---------------------------------------------------------------------
                    Distance matrix (angstroms):
                    1          2          3          4          5
     1  C    0.000000
     2  C    1.413655   0.000000
     3  C    2.433885   1.396489   0.000000
     4  C    2.700677   2.361655   1.402780   0.000000
     5  C    2.465178   2.885871   2.537885   1.409296   0.000000
     6  C    1.462695   2.523614   2.901600   2.386435   1.419475
     7  C    3.967643   4.342102   3.714420   2.332327   1.517450
     8  C    4.088983   3.658999   2.429984   1.401209   2.307827
     9  C    4.652262   4.606247   3.589800   2.265683   2.328668
    10  C    3.822792   2.574055   1.450653   2.412910   3.776433
    11  C    5.056032   4.297716   2.913352   2.473385   3.633456
    12  C    4.895255   3.805616   2.482031   2.800655   4.187649
    13  C    6.034883   5.934117   4.819864   3.587503   3.702064
    14  C    6.368535   5.710605   4.339720   3.714101   4.635540
    15  C    6.752792   6.361098   5.075046   4.114239   4.651844
    16  C    5.063584   5.639861   5.111411   3.737366   2.754418
    17  C    6.348861   6.773379   6.043462   4.645721   3.947487
    18  C    6.754747   6.901279   5.935491   4.600599   4.319503
    19  C    5.372024   6.215080   5.960836   4.685870   3.458338
    20  C    7.492793   8.059236   7.421879   6.026908   5.191003
    21  C    6.700578   7.599605   7.347263   6.049234   4.833749
    22  C    7.629014   8.396701   7.958669   6.591294   5.533123
    23  C    2.467256   3.779370   4.309173   3.730349   2.521361
    24  C    1.428529   2.448358   3.727597   4.128419   3.761944
    25  C    2.443563   3.710132   4.868480   4.984924   4.264202
    26  C    2.823669   4.230175   5.096930   4.814817   3.765377
    27  C    4.806059   5.771813   5.763635   4.673788   3.390124
    28  C    5.689577   6.781694   6.948618   5.958959   4.661582
    29  C    7.341920   8.380754   8.306182   7.089927   5.792286
    30  C    6.912173   8.031957   8.141358   7.059091   5.728938
    31  H    5.875271   4.692176   3.453932   3.885487   5.271877
    32  H    7.235501   6.442893   5.055963   4.636918   5.660378
    33  H    7.825691   7.439311   6.144527   5.198262   5.684830
    34  H    7.819257   7.932809   6.919658   5.619716   5.396359
    35  H    4.248151   2.858594   2.186866   3.396867   4.693547
    36  H    2.155438   1.085641   2.168816   3.370146   3.970454
    37  H    2.162012   2.639396   4.031360   4.736218   4.622630
    38  H    3.426604   4.577004   5.822109   6.038622   5.348122
    39  H    3.907328   5.311511   6.156507   5.791823   4.645234
    40  H    3.948225   4.838255   4.869007   3.891454   2.696430
    41  H    5.649536   6.766101   7.094733   6.270049   5.036139
    42  H    7.692437   8.864832   9.069086   8.044652   6.709281
    43  H    8.380788   9.429532   9.335576   8.095165   6.809246
    44  H    8.631500   9.444705   9.033057   7.669470   6.594834
    45  H    8.418972   8.901997   8.168196   6.780758   6.074940
    46  H    3.693817   4.876319   5.113354   4.204356   2.822260
    47  H    4.187072   5.302639   5.415361   4.389980   2.997799
                    6          7          8          9         10
     6  C    0.000000
     7  C    2.745587   0.000000
     8  C    3.591975   2.313596   0.000000
     9  C    3.725387   1.419937   1.395622   0.000000
    10  C    4.331855   4.665537   2.733320   4.113230   0.000000
    11  C    4.817827   3.641635   1.376585   2.466906   2.463093
    12  C    5.083208   4.647957   2.373320   3.711909   1.377922
    13  C    5.077569   2.541855   2.423258   1.396083   5.074235
    14  C    5.938466   4.194579   2.370528   2.793743   3.847576
    15  C    6.031352   3.780210   2.729922   2.405021   4.907968
    16  C    3.679702   1.411494   3.595756   2.386723   6.067127
    17  C    5.013063   2.445358   4.079919   2.687476   6.767654
    18  C    5.582502   2.875057   3.654264   2.353398   6.368535
    19  C    3.939798   2.560164   4.837280   3.762443   7.085906
    20  C    6.083678   3.748635   5.518827   4.127072   8.195761
    21  C    5.253776   3.819856   6.078217   4.872418   8.443481
    22  C    6.171411   4.260627   6.334308   4.990793   8.902862
    23  C    1.424679   3.372396   4.790921   4.611641   5.734026
    24  C    2.482208   5.205800   5.512808   6.020551   5.011177
    25  C    2.846274   5.521039   6.312798   6.559688   6.225050
    26  C    2.442161   4.738272   5.997799   5.944747   6.523893
    27  C    3.504443   3.061722   5.159035   4.380581   7.012871
    28  C    4.508121   4.440372   6.524524   5.761574   8.247215
    29  C    5.953569   4.999653   7.283086   6.158047   9.495477
    30  C    5.648518   5.254496   7.478992   6.534075   9.416601
    31  H    6.149466   5.673022   3.367058   4.633858   2.127615
    32  H    6.923609   5.279013   3.365234   3.878603   4.290997
    33  H    7.064540   4.696895   3.815090   3.389869   5.895527
    34  H    6.650214   3.956824   4.575490   3.360976   7.238635
    35  H    5.035662   5.699324   3.818477   5.197556   1.085255
    36  H    3.490412   5.425624   4.580225   5.627978   2.888913
    37  H    3.459485   6.114440   6.117914   6.798172   5.122925
    38  H    3.930075   6.591202   7.378423   7.642069   7.127013
    39  H    3.420218   5.417141   6.901260   6.699952   7.581883
    40  H    2.775075   2.756590   4.544242   4.023744   6.134678
    41  H    4.676327   5.089669   6.992794   6.403138   8.423475
    42  H    6.507797   6.317266   8.522637   7.607648  10.373270
    43  H    6.983463   5.937033   8.213774   7.023727  10.502959
    44  H    7.169316   5.340116   7.398389   6.042422   9.978575
    45  H    7.038412   4.595877   6.104450   4.719041   8.817311
    46  H    2.362222   3.005086   4.946248   4.373447   6.466507
    47  H    2.793091   2.872521   4.980796   4.249556   6.722793
                   11         12         13         14         15
    11  C    0.000000
    12  C    1.447166   0.000000
    13  C    2.908149   4.340458   0.000000
    14  C    1.442936   2.631703   2.479573   0.000000
    15  C    2.461348   3.851521   1.446179   1.381145   0.000000
    16  C    4.831738   5.966901   2.906158   5.094984   4.336712
    17  C    5.058299   6.382827   2.432700   4.900708   3.823029
    18  C    4.302111   5.722506   1.403964   3.816760   2.582721
    19  C    6.138108   7.165977   4.334481   6.500679   5.761891
    20  C    6.477356   7.816153   3.738314   6.214284   5.026438
    21  C    7.321766   8.441585   5.145880   7.501780   6.580427
    22  C    7.436425   8.695081   4.877426   7.348157   6.241122
    23  C    6.078912   6.455022   5.844157   7.076554   6.972979
    24  C    6.455818   6.189809   7.396800   7.778785   8.158740
    25  C    7.396662   7.313980   7.895036   8.628877   8.827581
    26  C    7.222995   7.419056   7.196385   8.306551   8.286768
    27  C    6.503647   7.321267   5.231431   7.108049   6.582988
    28  C    7.867536   8.637122   6.564826   8.481012   7.930194
    29  C    8.569611   9.613974   6.519910   8.834015   7.952799
    30  C    8.812866   9.706617   7.129374   9.268961   8.547140
    31  H    2.196569   1.085127   5.057111   2.938234   4.295898
    32  H    2.193764   2.937895   3.451342   1.085179   2.130365
    33  H    3.436670   4.748717   2.184604   2.128670   1.085280
    34  H    5.021257   6.463557   2.175265   4.264096   2.902189
    35  H    3.438906   2.126113   6.144664   4.745245   5.896385
    36  H    5.015401   4.248471   6.922974   6.450554   7.233319
    37  H    6.901926   6.413851   8.174501   8.286120   8.810954
    38  H    8.431373   8.274154   8.973084   9.682973   9.903078
    39  H    8.161770   8.436196   7.872473   9.172942   9.043297
    40  H    5.873529   6.546141   5.072842   6.640844   6.312116
    41  H    8.319562   8.945849   7.322267   9.057168   8.631705
    42  H    9.860648  10.717568   8.208431  10.339783   9.623369
    43  H    9.468831  10.567531   7.243242   9.632658   8.661297
    44  H    8.472194   9.751324   5.831834   8.311283   7.145638
    45  H    6.902194   8.297811   4.029601   6.421507   5.125322
    46  H    6.296556   6.950470   5.400761   7.060935   6.690283
    47  H    6.336021   7.101183   5.164704   6.991888   6.509467
                   16         17         18         19         20
    16  C    0.000000
    17  C    1.460647   0.000000
    18  C    2.519503   1.404158   0.000000
    19  C    1.460141   2.490712   3.792393   0.000000
    20  C    2.492331   1.441711   2.445915   2.832166   0.000000
    21  C    2.496691   2.857216   4.252923   1.424093   2.424727
    22  C    2.862707   2.447822   3.698540   2.472134   1.353565
    23  C    3.825387   5.193422   6.044060   3.639093   5.984115
    24  C    6.144114   7.489840   8.025117   6.207215   8.515071
    25  C    6.193607   7.571572   8.308279   5.986382   8.408784
    26  C    5.158255   6.518858   7.401908   4.800181   7.214313
    27  C    2.510567   3.774568   4.954089   1.410288   4.219613
    28  C    3.781101   4.901040   6.168526   2.437710   5.039847
    29  C    3.783817   4.260061   5.648739   2.448627   3.701538
    30  C    4.286251   5.104670   6.470342   2.826366   4.837945
    31  H    6.954102   7.253886   6.458605   8.191119   8.672091
    32  H    6.163224   5.883478   4.705174   7.572081   7.141732
    33  H    5.040634   4.251456   2.870754   6.434765   5.245105
    34  H    3.485638   2.147598   1.085520   4.625962   2.631848
    35  H    7.106314   7.845529   7.449234   8.068566   9.270158
    36  H    6.724560   7.853985   7.942976   7.266523   9.143467
    37  H    7.135535   8.459717   8.908118   7.251097   9.534990
    38  H    7.209321   8.587671   9.362410   6.904415   9.361627
    39  H    5.598579   6.905419   7.913167   5.024203   7.405804
    40  H    2.728124   4.119475   5.090854   2.155838   4.860728
    41  H    4.647980   5.856417   7.061830   3.414446   6.091099
    42  H    5.370347   6.159180   7.528596   3.910411   5.794959
    43  H    4.646339   4.874952   6.231385   3.424974   4.024383
    44  H    3.945818   3.433713   4.567378   3.445118   2.122439
    45  H    3.463033   2.168504   2.629520   3.916254   1.084903
    46  H    2.953269   4.243453   5.293591   2.532636   4.816061
    47  H    2.560731   3.789996   4.921641   2.033502   4.265477
                   21         22         23         24         25
    21  C    0.000000
    22  C    1.437431   0.000000
    23  C    4.736026   5.787162   0.000000
    24  C    7.436703   8.481946   2.798861   0.000000
    25  C    7.051592   8.176662   2.425153   1.368173   0.000000
    26  C    5.752449   6.881182   1.371002   2.409836   1.418215
    27  C    2.427546   3.737845   3.106275   5.466465   5.184071
    28  C    2.800841   4.229681   3.810010   6.075685   5.549007
    29  C    1.409556   2.474798   5.197085   7.869049   7.290290
    30  C    2.430309   3.739812   4.809278   7.271794   6.619036
    31  H    9.439771   9.620964   7.523463   7.112677   8.284945
    32  H    8.544173   8.324812   8.099857   8.627595   9.546789
    33  H    7.083951   6.544946   7.941286   9.225616   9.862439
    34  H    4.828195   3.981363   7.066069   9.087251   9.351440
    35  H    9.443932   9.951335   6.413019   5.227815   6.532032
    36  H    8.647947   9.471887   4.616736   2.641756   4.004189
    37  H    8.502880   9.542832   3.883886   1.085165   2.131366
    38  H    7.886196   9.047729   3.400050   2.132279   1.084026
    39  H    5.745631   6.899346   2.127377   3.386060   2.169230
    40  H    3.408098   4.608517   2.714661   4.686253   4.607580
    41  H    3.884011   5.310099   3.986243   5.855307   5.293148
    42  H    3.412599   4.612484   5.574109   7.905129   7.139275
    43  H    2.152249   2.682719   6.174434   8.877673   8.236386
    44  H    2.176062   1.084723   6.674204   9.419535   9.021827
    45  H    3.411947   2.118402   6.988954   9.480664   9.408121
    46  H    3.454652   4.490387   1.372599   4.170609   3.702339
    47  H    2.876771   3.895765   1.953702   4.743435   4.297234
                   26         27         28         29         30
    26  C    0.000000
    27  C    4.086055   0.000000
    28  C    4.423956   1.383864   0.000000
    29  C    5.961285   2.781653   2.406277   0.000000
    30  C    5.372883   2.415745   1.402416   1.382307   0.000000
    31  H    8.456321   8.377489   9.695701  10.637807  10.758178
    32  H    9.298715   8.181274   9.550602   9.885198  10.337859
    33  H    9.268723   7.368827   8.679113   8.467651   9.179370
    34  H    8.412252   5.866237   7.002033   6.190991   7.150560
    35  H    7.037453   7.900033   9.078936  10.449794  10.295166
    36  H    4.818984   6.749853   7.681705   9.379906   8.959723
    37  H    3.399081   6.481728   7.065681   8.930092   8.290968
    38  H    2.172249   6.043078   6.229267   7.991971   7.233180
    39  H    1.084392   4.327817   4.383712   5.745081   5.116590
    40  H    3.729659   1.081148   2.132078   3.861734   3.390769
    41  H    4.343763   2.139006   1.083969   3.388557   2.160192
    42  H    5.934806   3.397107   2.161254   2.143521   1.084108
    43  H    6.877645   3.866386   3.393868   1.085063   2.144644
    44  H    7.680272   4.596311   4.846230   2.692157   4.067350
    45  H    8.223210   5.298872   6.090120   4.578773   5.796521
    46  H    2.411585   2.320023   3.053836   3.957025   3.793783
    47  H    2.994752   2.062846   2.838969   3.450201   3.438348
                   31         32         33         34         35
    31  H    0.000000
    32  H    2.832757   0.000000
    33  H    5.030697   2.430682   0.000000
    34  H    7.090150   4.985877   2.771410   0.000000
    35  H    2.428231   5.025979   6.842861   8.306552   0.000000
    36  H    4.966745   7.071455   8.298786   8.960306   2.750755
    37  H    7.236283   9.052189   9.887068   9.968159   5.110832
    38  H    9.211906  10.583605  10.937295  10.397666   7.330288
    39  H    9.480517  10.186380   9.981427   8.874996   8.110404
    40  H    7.603790   7.696441   7.194384   6.092116   6.974120
    41  H   10.000213  10.112933   9.436704   7.939827   9.167153
    42  H   11.773101  11.407506  10.246289   8.174628  11.217736
    43  H   11.575717  10.663264   9.080177   6.623357  11.472930
    44  H   10.662338   9.256382   7.347213   4.659051  11.027788
    45  H    9.071635   7.248831   5.119352   2.350337   9.898629
    46  H    8.027066   8.127240   7.556329   6.245543   7.280487
    47  H    8.172285   8.067583   7.323825   5.836367   7.588406
                   36         37         38         39         40
    36  H    0.000000
    37  H    2.367452   0.000000
    38  H    4.680267   2.461956   0.000000
    39  H    5.877333   4.287884   2.493826   0.000000
    40  H    5.792554   5.648443   5.523386   4.213348   0.000000
    41  H    7.567927   6.765611   5.863254   4.296803   2.448757
    42  H    9.743744   8.889940   7.627377   5.536232   4.283277
    43  H   10.432305   9.943798   8.890452   6.559719   4.946046
    44  H   10.515061  10.491624   9.839735   7.580247   5.543506
    45  H    9.980539  10.485823  10.366061   8.409646   5.921837
    46  H    5.812071   5.255461   4.579176   2.663819   2.413224
    47  H    6.275550   5.827264   5.164918   3.159733   2.385491
                   41         42         43         44         45
    41  H    0.000000
    42  H    2.491223   0.000000
    43  H    4.290522   2.474755   0.000000
    44  H    5.910248   4.755392   2.442766   0.000000
    45  H    7.145591   6.700316   4.717362   2.452372   0.000000
    46  H    3.567120   4.650141   4.896967   5.334007   5.833095
    47  H    3.515332   4.353600   4.379479   4.736541   5.288874
                   46         47
    46  H    0.000000
    47  H    0.598051   0.000000
 Stoichiometry    C30H17(2)
 Framework group  C1[X(C30H17)]
 Deg. of freedom   135
 Full point group                 C1      NOp   1
 Largest Abelian subgroup         C1      NOp   1
 Largest concise Abelian subgroup C1      NOp   1
                         Standard orientation:                         
 ---------------------------------------------------------------------
 Center     Atomic      Atomic             Coordinates (Angstroms)
 Number     Number       Type             X           Y           Z
 ---------------------------------------------------------------------
      1          6           0        1.813543    2.860542   -0.095044
      2          6           0        3.095708    2.347626    0.207265
      3          6           0        3.285184    0.969750    0.332711
      4          6           0        2.115493    0.199492    0.253234
      5          6           0        0.788943    0.622137    0.034707
      6          6           0        0.637822    2.004410   -0.250587
      7          6           0       -0.037591   -0.648346   -0.038571
      8          6           0        2.195378   -1.198871    0.213411
      9          6           0        0.912815   -1.702852   -0.007481
     10          6           0        4.519108    0.218356    0.463978
     11          6           0        3.353037   -1.942003    0.264090
     12          6           0        4.558458   -1.158583    0.429929
     13          6           0        0.712406   -3.072260   -0.190797
     14          6           0        3.158679   -3.361482    0.092721
     15          6           0        1.902392   -3.891589   -0.127029
     16          6           0       -1.385704   -1.064318   -0.081897
     17          6           0       -1.630839   -2.462485   -0.426178
     18          6           0       -0.615311   -3.431085   -0.472802
     19          6           0       -2.548366   -0.253871    0.269391
     20          6           0       -2.978532   -2.862611   -0.745791
     21          6           0       -3.856903   -0.709129   -0.060024
     22          6           0       -4.028657   -2.016002   -0.633425
     23          6           0       -0.548014    2.605655   -0.762451
     24          6           0        1.668061    4.261114   -0.335730
     25          6           0        0.488853    4.797939   -0.775259
     26          6           0       -0.622643    3.950810   -1.016682
     27          6           0       -2.434564    0.921138    1.040957
     28          6           0       -3.546889    1.666021    1.391619
     29          6           0       -4.973480    0.084643    0.271686
     30          6           0       -4.825187    1.263039    0.978909
     31          1           0        5.517634   -1.659859    0.508688
     32          1           0        4.013893   -4.028912    0.120277
     33          1           0        1.803656   -4.963250   -0.267125
     34          1           0       -0.881241   -4.452461   -0.726627
     35          1           0        5.449810    0.766691    0.568387
     36          1           0        3.928600    3.040239    0.279333
     37          1           0        2.535339    4.896389   -0.187959
     38          1           0        0.408187    5.862191   -0.964925
     39          1           0       -1.539911    4.371344   -1.413768
     40          1           0       -1.459926    1.229744    1.392698
     41          1           0       -3.426630    2.558715    1.994631
     42          1           0       -5.694701    1.854616    1.242107
     43          1           0       -5.962147   -0.264921   -0.007071
     44          1           0       -5.029390   -2.338357   -0.900343
     45          1           0       -3.131609   -3.879954   -1.090166
     46          1           0       -1.600554    1.747122   -0.960214
     47          1           0       -1.970195    1.277553   -0.937088
 ---------------------------------------------------------------------
 Rotational constants (GHZ):           0.2202577           0.1670010           0.0994683
 Standard basis: 6-311+G(d,p) (5D, 7F)
 There are   792 symmetry adapted cartesian basis functions of A   symmetry.
 There are   762 symmetry adapted basis functions of A   symmetry.
   762 basis functions,  1216 primitive gaussians,   792 cartesian basis functions
    99 alpha electrons       98 beta electrons
       nuclear repulsion energy      2608.8187602283 Hartrees.
 NAtoms=   47 NActive=   47 NUniq=   47 SFac= 1.00D+00 NAtFMM=   60 NAOKFM=F Big=F
 Integral buffers will be    131072 words long.
 Raffenetti 2 integral format.
 Two-electron integral symmetry is turned on.
 One-electron integrals computed using PRISM.
 NBasis=   762 RedAO= T EigKep=  1.19D-06  NBF=   762
 NBsUse=   741 1.00D-06 EigRej=  9.38D-07 NBFU=   741
 ExpMin= 4.38D-02 ExpMax= 4.56D+03 ExpMxC= 6.82D+02 IAcc=2 IRadAn=         4 AccDes= 0.00D+00
 Harris functional with IExCor=  402 and IRadAn=       4 diagonalized for initial guess.
 HarFok:  IExCor=  402 AccDes= 0.00D+00 IRadAn=         4 IDoV= 1 UseB2=F ITyADJ=14
 ICtDFT=  3500011 ScaDFX=  1.000000  1.000000  1.000000  1.000000
 FoFCou: FMM=F IPFlag=           0 FMFlag=      100000 FMFlg1=           0
         NFxFlg=           0 DoJE=T BraDBF=F KetDBF=T FulRan=T
         wScrn=  0.000000 ICntrl=       500 IOpCl=  0 I1Cent=   200000004 NGrid=           0
         NMat0=    1 NMatS0=      1 NMatT0=    0 NMatD0=    1 NMtDS0=    0 NMtDT0=    0
 Petite list used in FoFCou.
 Initial guess <Sx>= 0.0000 <Sy>= 0.0000 <Sz>= 0.5000 <S**2>= 0.7500 S= 0.5000
 Requested convergence on RMS density matrix=1.00D-08 within  32 cycles.
 Requested convergence on MAX density matrix=1.00D-06.
 Requested convergence on             energy=1.00D-06.
 No special actions if energy rises.
 Restarting incremental Fock formation.
 SCF Done:  E(UB3LYP) =  -1153.54725690     A.U. after   23 cycles
            NFock= 23  Conv=0.81D-08     -V/T= 2.0041
 <Sx>= 0.0000 <Sy>= 0.0000 <Sz>= 0.5000 <S**2>= 0.7630 S= 0.5065
 <L.S>=  0.00000000000    
 Annihilation of the first spin contaminant:
 S**2 before annihilation     0.7630,   after     0.7501
 QCSCF skips out because SCF is already converged.

 **********************************************************************

            Population analysis using the SCF density.

 **********************************************************************

 Orbital symmetries:
 Alpha Orbitals:
       Occupied  (A) (A) (A) (A) (A) (A) (A) (A) (A) (A) (A) (A)
                 (A) (A) (A) (A) (A) (A) (A) (A) (A) (A) (A) (A)
                 (A) (A) (A) (A) (A) (A) (A) (A) (A) (A) (A) (A)
                 (A) (A) (A) (A) (A) (A) (A) (A) (A) (A) (A) (A)
                 (A) (A) (A) (A) (A) (A) (A) (A) (A) (A) (A) (A)
                 (A) (A) (A) (A) (A) (A) (A) (A) (A) (A) (A) (A)
                 (A) (A) (A) (A) (A) (A) (A) (A) (A) (A) (A) (A)
                 (A) (A) (A) (A) (A) (A) (A) (A) (A) (A) (A) (A)
                 (A) (A) (A)
       Virtual   (A) (A) (A) (A) (A) (A) (A) (A) (A) (A) (A) (A)
                 (A) (A) (A) (A) (A) (A) (A) (A) (A) (A) (A) (A)
                 (A) (A) (A) (A) (A) (A) (A) (A) (A) (A) (A) (A)
                 (A) (A) (A) (A) (A) (A) (A) (A) (A) (A) (A) (A)
                 (A) (A) (A) (A) (A) (A) (A) (A) (A) (A) (A) (A)
                 (A) (A) (A) (A) (A) (A) (A) (A) (A) (A) (A) (A)
                 (A) (A) (A) (A) (A) (A) (A) (A) (A) (A) (A) (A)
                 (A) (A) (A) (A) (A) (A) (A) (A) (A) (A) (A) (A)
                 (A) (A) (A) (A) (A) (A) (A) (A) (A) (A) (A) (A)
                 (A) (A) (A) (A) (A) (A) (A) (A) (A) (A) (A) (A)
                 (A) (A) (A) (A) (A) (A) (A) (A) (A) (A) (A) (A)
                 (A) (A) (A) (A) (A) (A) (A) (A) (A) (A) (A) (A)
                 (A) (A) (A) (A) (A) (A) (A) (A) (A) (A) (A) (A)
                 (A) (A) (A) (A) (A) (A) (A) (A) (A) (A) (A) (A)
                 (A) (A) (A) (A) (A) (A) (A) (A) (A) (A) (A) (A)
                 (A) (A) (A) (A) (A) (A) (A) (A) (A) (A) (A) (A)
                 (A) (A) (A) (A) (A) (A) (A) (A) (A) (A) (A) (A)
                 (A) (A) (A) (A) (A) (A) (A) (A) (A) (A) (A) (A)
                 (A) (A) (A) (A) (A) (A) (A) (A) (A) (A) (A) (A)
                 (A) (A) (A) (A) (A) (A) (A) (A) (A) (A) (A) (A)
                 (A) (A) (A) (A) (A) (A) (A) (A) (A) (A) (A) (A)
                 (A) (A) (A) (A) (A) (A) (A) (A) (A) (A) (A) (A)
                 (A) (A) (A) (A) (A) (A) (A) (A) (A) (A) (A) (A)
                 (A) (A) (A) (A) (A) (A) (A) (A) (A) (A) (A) (A)
                 (A) (A) (A) (A) (A) (A) (A) (A) (A) (A) (A) (A)
                 (A) (A) (A) (A) (A) (A) (A) (A) (A) (A) (A) (A)
                 (A) (A) (A) (A) (A) (A) (A) (A) (A) (A) (A) (A)
                 (A) (A) (A) (A) (A) (A) (A) (A) (A) (A) (A) (A)
                 (A) (A) (A) (A) (A) (A) (A) (A) (A) (A) (A) (A)
                 (A) (A) (A) (A) (A) (A) (A) (A) (A) (A) (A) (A)
                 (A) (A) (A) (A) (A) (A) (A) (A) (A) (A) (A) (A)
                 (A) (A) (A) (A) (A) (A) (A) (A) (A) (A) (A) (A)
                 (A) (A) (A) (A) (A) (A) (A) (A) (A) (A) (A) (A)
                 (A) (A) (A) (A) (A) (A) (A) (A) (A) (A) (A) (A)
                 (A) (A) (A) (A) (A) (A) (A) (A) (A) (A) (A) (A)
                 (A) (A) (A) (A) (A) (A) (A) (A) (A) (A) (A) (A)
                 (A) (A) (A) (A) (A) (A) (A) (A) (A) (A) (A) (A)
                 (A) (A) (A) (A) (A) (A) (A) (A) (A) (A) (A) (A)
                 (A) (A) (A) (A) (A) (A) (A) (A) (A) (A) (A) (A)
                 (A) (A) (A) (A) (A) (A) (A) (A) (A) (A) (A) (A)
                 (A) (A) (A) (A) (A) (A) (A) (A) (A) (A) (A) (A)
                 (A) (A) (A) (A) (A) (A) (A) (A) (A) (A) (A) (A)
                 (A) (A) (A) (A) (A) (A) (A) (A) (A) (A) (A) (A)
                 (A) (A) (A) (A) (A) (A) (A) (A) (A) (A) (A) (A)
                 (A) (A) (A) (A) (A) (A) (A) (A) (A) (A) (A) (A)
                 (A) (A) (A) (A) (A) (A) (A) (A) (A) (A) (A) (A)
                 (A) (A) (A) (A) (A) (A) (A) (A) (A) (A) (A) (A)
                 (A) (A) (A) (A) (A) (A) (A) (A) (A) (A) (A) (A)
                 (A) (A) (A) (A) (A) (A) (A) (A) (A) (A) (A) (A)
                 (A) (A) (A) (A) (A) (A) (A) (A) (A) (A) (A) (A)
                 (A) (A) (A) (A) (A) (A) (A) (A) (A) (A) (A) (A)
                 (A) (A) (A) (A) (A) (A) (A) (A) (A) (A) (A) (A)
                 (A) (A) (A) (A) (A) (A) (A) (A) (A) (A) (A) (A)
                 (A) (A) (A) (A) (A) (A)
 Beta  Orbitals:
       Occupied  (A) (A) (A) (A) (A) (A) (A) (A) (A) (A) (A) (A)
                 (A) (A) (A) (A) (A) (A) (A) (A) (A) (A) (A) (A)
                 (A) (A) (A) (A) (A) (A) (A) (A) (A) (A) (A) (A)
                 (A) (A) (A) (A) (A) (A) (A) (A) (A) (A) (A) (A)
                 (A) (A) (A) (A) (A) (A) (A) (A) (A) (A) (A) (A)
                 (A) (A) (A) (A) (A) (A) (A) (A) (A) (A) (A) (A)
                 (A) (A) (A) (A) (A) (A) (A) (A) (A) (A) (A) (A)
                 (A) (A) (A) (A) (A) (A) (A) (A) (A) (A) (A) (A)
                 (A) (A)
       Virtual   (A) (A) (A) (A) (A) (A) (A) (A) (A) (A) (A) (A)
                 (A) (A) (A) (A) (A) (A) (A) (A) (A) (A) (A) (A)
                 (A) (A) (A) (A) (A) (A) (A) (A) (A) (A) (A) (A)
                 (A) (A) (A) (A) (A) (A) (A) (A) (A) (A) (A) (A)
                 (A) (A) (A) (A) (A) (A) (A) (A) (A) (A) (A) (A)
                 (A) (A) (A) (A) (A) (A) (A) (A) (A) (A) (A) (A)
                 (A) (A) (A) (A) (A) (A) (A) (A) (A) (A) (A) (A)
                 (A) (A) (A) (A) (A) (A) (A) (A) (A) (A) (A) (A)
                 (A) (A) (A) (A) (A) (A) (A) (A) (A) (A) (A) (A)
                 (A) (A) (A) (A) (A) (A) (A) (A) (A) (A) (A) (A)
                 (A) (A) (A) (A) (A) (A) (A) (A) (A) (A) (A) (A)
                 (A) (A) (A) (A) (A) (A) (A) (A) (A) (A) (A) (A)
                 (A) (A) (A) (A) (A) (A) (A) (A) (A) (A) (A) (A)
                 (A) (A) (A) (A) (A) (A) (A) (A) (A) (A) (A) (A)
                 (A) (A) (A) (A) (A) (A) (A) (A) (A) (A) (A) (A)
                 (A) (A) (A) (A) (A) (A) (A) (A) (A) (A) (A) (A)
                 (A) (A) (A) (A) (A) (A) (A) (A) (A) (A) (A) (A)
                 (A) (A) (A) (A) (A) (A) (A) (A) (A) (A) (A) (A)
                 (A) (A) (A) (A) (A) (A) (A) (A) (A) (A) (A) (A)
                 (A) (A) (A) (A) (A) (A) (A) (A) (A) (A) (A) (A)
                 (A) (A) (A) (A) (A) (A) (A) (A) (A) (A) (A) (A)
                 (A) (A) (A) (A) (A) (A) (A) (A) (A) (A) (A) (A)
                 (A) (A) (A) (A) (A) (A) (A) (A) (A) (A) (A) (A)
                 (A) (A) (A) (A) (A) (A) (A) (A) (A) (A) (A) (A)
                 (A) (A) (A) (A) (A) (A) (A) (A) (A) (A) (A) (A)
                 (A) (A) (A) (A) (A) (A) (A) (A) (A) (A) (A) (A)
                 (A) (A) (A) (A) (A) (A) (A) (A) (A) (A) (A) (A)
                 (A) (A) (A) (A) (A) (A) (A) (A) (A) (A) (A) (A)
                 (A) (A) (A) (A) (A) (A) (A) (A) (A) (A) (A) (A)
                 (A) (A) (A) (A) (A) (A) (A) (A) (A) (A) (A) (A)
                 (A) (A) (A) (A) (A) (A) (A) (A) (A) (A) (A) (A)
                 (A) (A) (A) (A) (A) (A) (A) (A) (A) (A) (A) (A)
                 (A) (A) (A) (A) (A) (A) (A) (A) (A) (A) (A) (A)
                 (A) (A) (A) (A) (A) (A) (A) (A) (A) (A) (A) (A)
                 (A) (A) (A) (A) (A) (A) (A) (A) (A) (A) (A) (A)
                 (A) (A) (A) (A) (A) (A) (A) (A) (A) (A) (A) (A)
                 (A) (A) (A) (A) (A) (A) (A) (A) (A) (A) (A) (A)
                 (A) (A) (A) (A) (A) (A) (A) (A) (A) (A) (A) (A)
                 (A) (A) (A) (A) (A) (A) (A) (A) (A) (A) (A) (A)
                 (A) (A) (A) (A) (A) (A) (A) (A) (A) (A) (A) (A)
                 (A) (A) (A) (A) (A) (A) (A) (A) (A) (A) (A) (A)
                 (A) (A) (A) (A) (A) (A) (A) (A) (A) (A) (A) (A)
                 (A) (A) (A) (A) (A) (A) (A) (A) (A) (A) (A) (A)
                 (A) (A) (A) (A) (A) (A) (A) (A) (A) (A) (A) (A)
                 (A) (A) (A) (A) (A) (A) (A) (A) (A) (A) (A) (A)
                 (A) (A) (A) (A) (A) (A) (A) (A) (A) (A) (A) (A)
                 (A) (A) (A) (A) (A) (A) (A) (A) (A) (A) (A) (A)
                 (A) (A) (A) (A) (A) (A) (A) (A) (A) (A) (A) (A)
                 (A) (A) (A) (A) (A) (A) (A) (A) (A) (A) (A) (A)
                 (A) (A) (A) (A) (A) (A) (A) (A) (A) (A) (A) (A)
                 (A) (A) (A) (A) (A) (A) (A) (A) (A) (A) (A) (A)
                 (A) (A) (A) (A) (A) (A) (A) (A) (A) (A) (A) (A)
                 (A) (A) (A) (A) (A) (A) (A) (A) (A) (A) (A) (A)
                 (A) (A) (A) (A) (A) (A) (A)
 The electronic state is 2-A.
 Alpha  occ. eigenvalues --  -10.20714 -10.20409 -10.19945 -10.19873 -10.19759
 Alpha  occ. eigenvalues --  -10.19734 -10.19666 -10.19438 -10.19326 -10.19220
 Alpha  occ. eigenvalues --  -10.19193 -10.19177 -10.19169 -10.19142 -10.19141
 Alpha  occ. eigenvalues --  -10.19060 -10.18953 -10.18871 -10.18494 -10.18357
 Alpha  occ. eigenvalues --  -10.18283 -10.18258 -10.18192 -10.18080 -10.18043
 Alpha  occ. eigenvalues --  -10.18039 -10.17803 -10.17188 -10.17056 -10.16752
 Alpha  occ. eigenvalues --   -0.92029  -0.88922  -0.87831  -0.85672  -0.83903
 Alpha  occ. eigenvalues --   -0.83140  -0.80659  -0.79473  -0.78070  -0.77336
 Alpha  occ. eigenvalues --   -0.75373  -0.74682  -0.72765  -0.71688  -0.71441
 Alpha  occ. eigenvalues --   -0.66855  -0.64932  -0.63978  -0.63212  -0.62661
 Alpha  occ. eigenvalues --   -0.60890  -0.59459  -0.59003  -0.57173  -0.56067
 Alpha  occ. eigenvalues --   -0.54623  -0.52664  -0.51751  -0.51632  -0.50770
 Alpha  occ. eigenvalues --   -0.49373  -0.48595  -0.47909  -0.46930  -0.46308
 Alpha  occ. eigenvalues --   -0.45618  -0.44547  -0.43991  -0.43827  -0.43426
 Alpha  occ. eigenvalues --   -0.43084  -0.42385  -0.41821  -0.40762  -0.40629
 Alpha  occ. eigenvalues --   -0.40444  -0.40034  -0.39686  -0.38988  -0.38204
 Alpha  occ. eigenvalues --   -0.36906  -0.36636  -0.36375  -0.34969  -0.34535
 Alpha  occ. eigenvalues --   -0.34414  -0.33790  -0.33399  -0.33128  -0.31346
 Alpha  occ. eigenvalues --   -0.29844  -0.28283  -0.27714  -0.25876  -0.24897
 Alpha  occ. eigenvalues --   -0.22623  -0.21489  -0.20837  -0.18659
 Alpha virt. eigenvalues --   -0.10142  -0.05615  -0.05256  -0.03186  -0.01576
 Alpha virt. eigenvalues --   -0.00551   0.00113   0.00196   0.00525   0.00659
 Alpha virt. eigenvalues --    0.01404   0.01520   0.01676   0.02360   0.02835
 Alpha virt. eigenvalues --    0.03097   0.03655   0.03770   0.03806   0.04233
 Alpha virt. eigenvalues --    0.04710   0.05326   0.05396   0.05542   0.05987
 Alpha virt. eigenvalues --    0.06553   0.06684   0.07066   0.07352   0.07574
 Alpha virt. eigenvalues --    0.08149   0.08265   0.08508   0.08932   0.09137
 Alpha virt. eigenvalues --    0.09794   0.10024   0.10147   0.10554   0.11007
 Alpha virt. eigenvalues --    0.11199   0.11352   0.11919   0.12257   0.12639
 Alpha virt. eigenvalues --    0.13070   0.13252   0.13497   0.14083   0.14405
 Alpha virt. eigenvalues --    0.14737   0.14820   0.14987   0.15301   0.15466
 Alpha virt. eigenvalues --    0.15790   0.16049   0.16279   0.16296   0.16476
 Alpha virt. eigenvalues --    0.16746   0.17012   0.17227   0.17416   0.17727
 Alpha virt. eigenvalues --    0.17909   0.18310   0.18432   0.19087   0.19145
 Alpha virt. eigenvalues --    0.19319   0.19501   0.19568   0.19820   0.19893
 Alpha virt. eigenvalues --    0.20077   0.20372   0.20445   0.20607   0.20763
 Alpha virt. eigenvalues --    0.21007   0.21477   0.21549   0.21855   0.22110
 Alpha virt. eigenvalues --    0.22238   0.22331   0.22721   0.22876   0.23129
 Alpha virt. eigenvalues --    0.23373   0.23524   0.23630   0.23973   0.24284
 Alpha virt. eigenvalues --    0.24364   0.24546   0.24877   0.25180   0.25322
 Alpha virt. eigenvalues --    0.25519   0.25749   0.25919   0.26205   0.26403
 Alpha virt. eigenvalues --    0.26863   0.27164   0.27514   0.27575   0.27720
 Alpha virt. eigenvalues --    0.28256   0.28400   0.28560   0.28740   0.29145
 Alpha virt. eigenvalues --    0.29433   0.29898   0.29963   0.30336   0.30467
 Alpha virt. eigenvalues --    0.30555   0.30745   0.31511   0.31722   0.31808
 Alpha virt. eigenvalues --    0.32238   0.32540   0.32617   0.33031   0.33297
 Alpha virt. eigenvalues --    0.33635   0.34151   0.34693   0.35043   0.35618
 Alpha virt. eigenvalues --    0.35881   0.36167   0.36924   0.37515   0.37983
 Alpha virt. eigenvalues --    0.38660   0.38912   0.39607   0.39973   0.40814
 Alpha virt. eigenvalues --    0.41231   0.41544   0.42491   0.42707   0.43076
 Alpha virt. eigenvalues --    0.43746   0.44519   0.44985   0.45348   0.45758
 Alpha virt. eigenvalues --    0.46770   0.47480   0.47629   0.48522   0.49218
 Alpha virt. eigenvalues --    0.50218   0.50638   0.51718   0.51775   0.52126
 Alpha virt. eigenvalues --    0.52957   0.53143   0.53534   0.53942   0.54204
 Alpha virt. eigenvalues --    0.54316   0.54565   0.54923   0.55101   0.55539
 Alpha virt. eigenvalues --    0.56318   0.56416   0.56549   0.57137   0.57588
 Alpha virt. eigenvalues --    0.57851   0.58285   0.58472   0.58816   0.59212
 Alpha virt. eigenvalues --    0.59708   0.59821   0.60300   0.60674   0.61337
 Alpha virt. eigenvalues --    0.61589   0.61952   0.62466   0.62900   0.63526
 Alpha virt. eigenvalues --    0.63778   0.64312   0.64572   0.64666   0.65248
 Alpha virt. eigenvalues --    0.65624   0.65909   0.66286   0.67243   0.67768
 Alpha virt. eigenvalues --    0.68290   0.68633   0.69129   0.69571   0.69619
 Alpha virt. eigenvalues --    0.70006   0.70402   0.70802   0.71067   0.71814
 Alpha virt. eigenvalues --    0.71901   0.72071   0.72314   0.72353   0.72821
 Alpha virt. eigenvalues --    0.73251   0.74048   0.74174   0.74694   0.74900
 Alpha virt. eigenvalues --    0.75328   0.75657   0.75926   0.76413   0.76871
 Alpha virt. eigenvalues --    0.76928   0.77708   0.78170   0.78576   0.79099
 Alpha virt. eigenvalues --    0.80388   0.80783   0.80929   0.82167   0.82535
 Alpha virt. eigenvalues --    0.83136   0.83382   0.84219   0.84356   0.85250
 Alpha virt. eigenvalues --    0.85648   0.86105   0.86627   0.87161   0.87768
 Alpha virt. eigenvalues --    0.88361   0.88940   0.89426   0.90277   0.90508
 Alpha virt. eigenvalues --    0.90962   0.91173   0.91566   0.91828   0.92455
 Alpha virt. eigenvalues --    0.92661   0.93191   0.93613   0.94114   0.94729
 Alpha virt. eigenvalues --    0.95528   0.95713   0.96250   0.96499   0.96964
 Alpha virt. eigenvalues --    0.97036   0.97235   0.97679   0.98182   0.99438
 Alpha virt. eigenvalues --    0.99563   1.00036   1.00234   1.01271   1.01562
 Alpha virt. eigenvalues --    1.01982   1.02198   1.02788   1.03399   1.03576
 Alpha virt. eigenvalues --    1.04440   1.05097   1.05589   1.06315   1.06738
 Alpha virt. eigenvalues --    1.06926   1.07831   1.08488   1.08744   1.09596
 Alpha virt. eigenvalues --    1.09924   1.10460   1.10963   1.11621   1.13102
 Alpha virt. eigenvalues --    1.13672   1.14126   1.14938   1.15915   1.16496
 Alpha virt. eigenvalues --    1.17689   1.18118   1.18634   1.20038   1.20930
 Alpha virt. eigenvalues --    1.21087   1.22567   1.23929   1.24659   1.25222
 Alpha virt. eigenvalues --    1.26479   1.28826   1.29900   1.30945   1.32495
 Alpha virt. eigenvalues --    1.33851   1.34584   1.35608   1.36506   1.37511
 Alpha virt. eigenvalues --    1.38863   1.40302   1.42355   1.42641   1.43289
 Alpha virt. eigenvalues --    1.45835   1.45877   1.46972   1.47334   1.47506
 Alpha virt. eigenvalues --    1.48252   1.48776   1.49236   1.49944   1.50226
 Alpha virt. eigenvalues --    1.50728   1.51167   1.51553   1.52799   1.53338
 Alpha virt. eigenvalues --    1.54079   1.54734   1.55180   1.55791   1.56200
 Alpha virt. eigenvalues --    1.56778   1.57177   1.57546   1.58209   1.58835
 Alpha virt. eigenvalues --    1.59276   1.60139   1.61018   1.62012   1.62369
 Alpha virt. eigenvalues --    1.63647   1.64452   1.65456   1.66017   1.66142
 Alpha virt. eigenvalues --    1.67507   1.67817   1.68461   1.69228   1.70303
 Alpha virt. eigenvalues --    1.70864   1.71791   1.72098   1.72723   1.73584
 Alpha virt. eigenvalues --    1.74159   1.74419   1.75432   1.75714   1.76284
 Alpha virt. eigenvalues --    1.76549   1.76873   1.78233   1.79094   1.79265
 Alpha virt. eigenvalues --    1.80832   1.81701   1.82558   1.83450   1.83944
 Alpha virt. eigenvalues --    1.84652   1.85145   1.85918   1.86550   1.87427
 Alpha virt. eigenvalues --    1.87875   1.88935   1.89289   1.89360   1.89960
 Alpha virt. eigenvalues --    1.90911   1.91246   1.91558   1.91913   1.92448
 Alpha virt. eigenvalues --    1.93248   1.93507   1.94043   1.94215   1.95080
 Alpha virt. eigenvalues --    1.95522   1.96284   1.96869   1.97525   1.98203
 Alpha virt. eigenvalues --    1.98378   1.99395   1.99830   2.00678   2.01055
 Alpha virt. eigenvalues --    2.02581   2.03034   2.03587   2.05012   2.05367
 Alpha virt. eigenvalues --    2.06063   2.06542   2.07173   2.07976   2.08501
 Alpha virt. eigenvalues --    2.10029   2.10935   2.11758   2.12456   2.13508
 Alpha virt. eigenvalues --    2.13941   2.15410   2.15850   2.16906   2.18869
 Alpha virt. eigenvalues --    2.19007   2.19420   2.20645   2.21206   2.21964
 Alpha virt. eigenvalues --    2.23018   2.24026   2.24521   2.25426   2.26580
 Alpha virt. eigenvalues --    2.27892   2.28445   2.30229   2.32318   2.33173
 Alpha virt. eigenvalues --    2.34655   2.35141   2.36537   2.38194   2.39329
 Alpha virt. eigenvalues --    2.40763   2.41247   2.41484   2.42571   2.42713
 Alpha virt. eigenvalues --    2.43758   2.44889   2.45379   2.46607   2.47624
 Alpha virt. eigenvalues --    2.48777   2.51821   2.52088   2.54612   2.55360
 Alpha virt. eigenvalues --    2.56320   2.57439   2.58833   2.59871   2.61190
 Alpha virt. eigenvalues --    2.62779   2.63488   2.66705   2.67314   2.68385
 Alpha virt. eigenvalues --    2.69261   2.69572   2.70613   2.70698   2.71824
 Alpha virt. eigenvalues --    2.71938   2.72458   2.72795   2.73110   2.73573
 Alpha virt. eigenvalues --    2.73901   2.74224   2.74858   2.75371   2.75536
 Alpha virt. eigenvalues --    2.75786   2.76359   2.76998   2.77042   2.77175
 Alpha virt. eigenvalues --    2.77880   2.78291   2.78468   2.78688   2.79239
 Alpha virt. eigenvalues --    2.80256   2.80929   2.82027   2.83234   2.84001
 Alpha virt. eigenvalues --    2.84725   2.84809   2.85492   2.86264   2.87641
 Alpha virt. eigenvalues --    2.88381   2.88866   2.89439   2.90161   2.91603
 Alpha virt. eigenvalues --    2.91844   2.92077   2.93359   2.93623   2.94422
 Alpha virt. eigenvalues --    2.95586   2.97231   2.98385   3.00984   3.01507
 Alpha virt. eigenvalues --    3.02634   3.03925   3.05638   3.08376   3.09947
 Alpha virt. eigenvalues --    3.11791   3.13418   3.14273   3.15530   3.16807
 Alpha virt. eigenvalues --    3.18304   3.20378   3.20939   3.21997   3.22504
 Alpha virt. eigenvalues --    3.24152   3.24875   3.26495   3.29434   3.31752
 Alpha virt. eigenvalues --    3.33391   3.34801   3.35498   3.37461   3.38436
 Alpha virt. eigenvalues --    3.39582   3.41334   3.42185   3.43725   3.44849
 Alpha virt. eigenvalues --    3.45298   3.47969   3.48705   3.49472   3.50156
 Alpha virt. eigenvalues --    3.50923   3.53337   3.54553   3.55820   3.56985
 Alpha virt. eigenvalues --    3.59076   3.62554   3.62902   3.64335   3.65269
 Alpha virt. eigenvalues --    3.67698   3.70382   3.77181   3.79049   3.83334
 Alpha virt. eigenvalues --    3.84810   3.89771   3.95112   4.03731   4.04541
 Alpha virt. eigenvalues --    4.06379   4.06559   4.07134   4.08540   4.10333
 Alpha virt. eigenvalues --    4.13641   4.19326   4.21454   4.24793   4.28824
 Alpha virt. eigenvalues --    4.34269   4.47885   4.61035   4.72755   4.75481
 Alpha virt. eigenvalues --    4.76773   4.77603   4.81097   4.82999   4.83851
 Alpha virt. eigenvalues --    4.87593   5.17819  23.41952  23.59599  23.67746
 Alpha virt. eigenvalues --   23.77062  23.82218  23.84908  23.85580  23.86342
 Alpha virt. eigenvalues --   23.89223  23.92888  23.94355  23.96924  23.97510
 Alpha virt. eigenvalues --   23.98706  23.99133  23.99933  24.03233  24.04125
 Alpha virt. eigenvalues --   24.06105  24.07747  24.10983  24.11491  24.12290
 Alpha virt. eigenvalues --   24.12900  24.13562  24.14197  24.18600  24.19617
 Alpha virt. eigenvalues --   24.20381  24.21905
  Beta  occ. eigenvalues --  -10.20687 -10.20424 -10.19882 -10.19865 -10.19768
  Beta  occ. eigenvalues --  -10.19683 -10.19671 -10.19443 -10.19314 -10.19225
  Beta  occ. eigenvalues --  -10.19209 -10.19180 -10.19144 -10.19136 -10.19128
  Beta  occ. eigenvalues --  -10.19061 -10.18941 -10.18554 -10.18408 -10.18233
  Beta  occ. eigenvalues --  -10.18191 -10.18172 -10.18089 -10.18053 -10.18005
  Beta  occ. eigenvalues --  -10.17807 -10.17402 -10.17208 -10.17051 -10.16747
  Beta  occ. eigenvalues --   -0.91999  -0.88865  -0.87576  -0.85559  -0.83790
  Beta  occ. eigenvalues --   -0.83089  -0.80509  -0.79416  -0.78004  -0.76814
  Beta  occ. eigenvalues --   -0.75216  -0.74623  -0.72716  -0.71620  -0.71113
  Beta  occ. eigenvalues --   -0.66782  -0.64767  -0.63841  -0.63056  -0.62291
  Beta  occ. eigenvalues --   -0.60464  -0.59317  -0.58369  -0.56944  -0.55922
  Beta  occ. eigenvalues --   -0.53489  -0.52428  -0.51587  -0.51403  -0.49987
  Beta  occ. eigenvalues --   -0.49213  -0.48346  -0.47754  -0.46784  -0.46117
  Beta  occ. eigenvalues --   -0.45543  -0.44447  -0.43900  -0.43746  -0.43364
  Beta  occ. eigenvalues --   -0.43048  -0.42325  -0.41737  -0.40649  -0.40433
  Beta  occ. eigenvalues --   -0.40386  -0.39981  -0.39516  -0.38852  -0.37924
  Beta  occ. eigenvalues --   -0.36804  -0.36517  -0.36204  -0.34868  -0.34478
  Beta  occ. eigenvalues --   -0.34352  -0.33756  -0.33295  -0.33067  -0.31203
  Beta  occ. eigenvalues --   -0.29672  -0.28058  -0.27489  -0.25735  -0.24749
  Beta  occ. eigenvalues --   -0.22449  -0.21364  -0.20603
  Beta virt. eigenvalues --   -0.10129  -0.06418  -0.05549  -0.04828  -0.03082
  Beta virt. eigenvalues --   -0.01183  -0.00355   0.00148   0.00455   0.00531
  Beta virt. eigenvalues --    0.00683   0.01414   0.01528   0.01694   0.02381
[...]
 000007,-0.00000233,-0.00000397,-0.00000077,-0.00000354,-0.00000256,-0.
 00000213,0.00000107,-0.00000584,0.00000007,0.00000317,-0.00000092,-0.0
 0000181,0.00001920,-0.00007925,-0.00003533,0.00002787,-0.00000884,-0.0
 0001389,0.00000350,-0.00003445,-0.00003885,0.00048732,-0.00037932,-0.0
 0023716,0.31442068,0.00000631,0.00001519,0.00000155,-0.00000611,-0.000
 01626,0.00000095,-0.00001405,0.00001551,-0.00000989,0.00000846,0.00002
 327,0.00000062,0.00003334,0.00004263,0.00001205,0.00000504,-0.00000497
 ,0.00000223,-0.00026015,0.00015547,0.00021799,-0.00007671,-0.00002647,
 -0.00000179,0.00007615,-0.00022804,-0.00008919,0.00003155,-0.00003184,
 0.00000361,-0.00000231,-0.00008931,-0.00000424,0.00000515,0.00004434,0
 .00000541,0.00035836,-0.00017891,0.00031250,0.00007746,0.00005266,-0.0
 0000675,-0.00002972,0.00009636,0.00005043,0.00064341,-0.00049660,-0.00
 006013,0.00295418,-0.00203847,-0.00308700,0.00034044,0.00073272,0.0000
 7110,0.00099576,-0.00401050,-0.00313212,0.02068175,0.00981020,0.004024
 11,-0.02710208,-0.00512028,-0.00513851,-0.07741269,-0.08062472,-0.0243
 8800,0.00000797,0.00000943,0.00002174,-0.00000105,-0.00001255,0.000001
 32,-0.00000903,0.00000511,-0.00000151,-0.00000403,0.00001653,-0.000001
 51,-0.00164826,0.00004883,-0.00006975,0.00006892,0.00007414,0.00005079
 ,-0.00183298,0.00100216,0.00117553,0.00031205,-0.00003239,0.00005200,0
 .00000121,0.00000059,-0.00000048,0.00001416,0.00000582,-0.00000615,-0.
 00000338,-0.00000439,0.00000048,-0.00000336,-0.00002219,-0.00010026,-0
 .00000125,0.00000107,0.00000199,-0.00000018,0.00000052,-0.00000102,0.0
 0000011,-0.00000036,-0.00000101,-0.00000096,-0.00000116,-0.00000121,0.
 00000114,0.00000050,-0.00000450,-0.00000881,-0.00038594,-0.00029450,0.
 00008082,0.00000017,-0.00000374,0.00000948,-0.00001333,-0.00001790,0.0
 0108723,-0.00013367,-0.00014102,0.08111682,0.08096480,0.00001282,0.000
 01566,-0.00000146,-0.00000082,0.00001127,-0.00000400,-0.00000986,-0.00
 003399,0.00002790,0.00004548,0.00000552,0.00000852,0.00001040,-0.00003
 613,-0.00000203,-0.00000726,-0.00003724,0.00001501,0.00021551,0.000088
 06,-0.00041359,0.00004406,0.00002521,-0.00004043,-0.00010346,0.0001559
 5,0.00017489,0.00000724,0.00002426,-0.00000368,-0.00000865,0.00007462,
 -0.00000029,-0.00000992,-0.00001061,-0.00000252,-0.00005754,0.00005519
 ,-0.00084426,-0.00004954,-0.00005521,0.00005015,0.00008623,-0.00000080
 ,-0.00007997,-0.00001040,-0.00013591,-0.00053348,-0.00012256,-0.002073
 07,0.00886344,0.00043632,-0.00000411,0.00027971,0.00103958,-0.00333333
 ,0.00222191,0.00311356,0.00075474,0.00498687,-0.01043235,-0.00300710,0
 .00041112,-0.05527192,-0.02396402,-0.05018127,0.00002056,0.00003375,-0
 .00000072,-0.00000422,-0.00000435,-0.00000175,0.00000599,0.00000332,0.
 00000189,-0.00001969,-0.00000963,-0.00000961,-0.00063905,0.00016556,0.
 00020991,0.00006344,-0.00004119,0.00000163,-0.00053200,0.00118655,-0.0
 0136034,0.00019139,0.00008905,-0.00012237,0.00000059,0.00000061,0.0000
 0240,-0.00000231,-0.00000331,0.00001700,0.00000129,0.00000112,-0.00000
 457,-0.00002976,-0.00004904,0.00025880,0.00000074,0.00000010,-0.000006
 64,-0.00000202,0.00000140,0.00000232,-0.00000135,-0.00000008,0.,-0.000
 00252,-0.00000184,0.00000011,0.00000074,0.00000325,0.00000031,-0.00000
 635,-0.00009467,-0.00012784,0.00003153,-0.00001912,0.00003470,-0.00000
 389,-0.00005212,0.00004452,0.00042878,-0.00021221,0.00019193,0.0609524
 1,0.02870979,0.04103940,0.00000182,-0.00002482,0.00000184,0.00001123,-
 0.00000132,0.00000069,-0.00002006,0.00003503,-0.00002646,-0.00004400,-
 0.00017313,0.00000400,-0.00027429,0.00005770,0.00012657,-0.00005256,0.
 00004293,-0.00001754,0.00021332,-0.00143116,-0.00011200,0.00004338,0.0
 0016198,0.00001853,0.00003835,-0.00005744,-0.00003371,-0.00002331,-0.0
 0001172,-0.00000271,-0.00004568,0.00000745,-0.00001421,0.00000524,0.00
 000424,0.00000268,0.00001388,0.00035950,0.00011391,-0.00001460,-0.0000
 5041,-0.00000402,0.00002502,-0.00002216,-0.00002575,-0.00498648,0.0004
 8371,-0.00097097,-0.00267253,-0.02740191,-0.00856478,0.00094152,-0.002
 13906,-0.00007553,-0.00041026,0.00020219,0.00007671,-0.06293913,-0.040
 52500,-0.01603106,-0.00361178,0.00254905,-0.00089251,0.00738619,0.0251
 1680,0.00780232,-0.00001156,-0.00001870,-0.00000212,-0.00000203,-0.000
 00036,-0.00000119,-0.00000799,-0.00000647,-0.00000451,0.00002227,0.000
 00701,0.00000384,0.00017608,-0.00006570,0.00009032,-0.00003428,-0.0000
 0750,-0.00004132,0.00067161,0.00076398,0.00044619,-0.00027748,0.000111
 34,0.00018097,-0.00000454,-0.00000126,-0.00000089,0.00000268,0.0000052
 6,0.00000422,-0.00002341,0.00001273,-0.00000705,-0.00042403,0.00092607
 ,0.00004770,-0.00000398,0.00000194,0.,-0.00000126,-0.00000215,0.000002
 25,0.00000016,-0.00000379,-0.00000021,0.00000117,-0.00000040,0.0000008
 4,-0.00000061,-0.00000449,0.00000451,0.00000586,0.00004564,0.00003445,
 0.00001462,0.00000543,-0.00000596,0.00000739,0.00010753,0.00005947,-0.
 00004045,-0.00000359,-0.00004650,0.00081856,-0.00048509,0.00062149,0.0
 6552850,0.00001073,-0.00001131,0.00001242,-0.00000330,0.00001916,-0.00
 000276,-0.00000098,-0.00001087,0.00000725,0.00000987,-0.00008068,0.000
 00687,-0.00006354,0.00003410,-0.00001077,-0.00003769,0.00000727,-0.000
 00669,0.00042018,-0.00046424,-0.00008681,0.00005437,0.00012053,-0.0000
 2617,0.00008096,0.00028716,0.00005604,-0.00004045,0.00002274,-0.000004
 38,-0.00002946,0.00011847,0.00000151,0.00000151,-0.00004486,-0.0000002
 3,-0.00060147,0.00019130,0.00006859,-0.00011100,-0.00011494,-0.0000252
 1,0.00015018,-0.00009756,-0.00001652,-0.00155200,0.00176699,-0.0007125
 3,-0.00033303,-0.00684995,-0.00265051,0.00217774,0.00039470,0.00105343
 ,0.00036546,0.00014173,0.00032830,-0.03956129,-0.30062075,-0.08098851,
 0.00408009,0.00078831,-0.00188373,-0.00577722,-0.01497087,-0.00657169,
 -0.00000530,-0.00001556,0.00000762,-0.00000003,0.00000256,-0.00000254,
 -0.00000052,0.00000090,0.00000076,0.00001063,0.00000620,0.00000447,-0.
 00012465,0.00008108,0.00019354,0.00020525,0.00005068,-0.00000210,-0.00
 078522,-0.00056184,-0.00042230,0.00030452,-0.00037020,0.00000585,-0.00
 000843,0.00000117,-0.00000201,-0.00001287,0.00000108,0.00000272,-0.000
 00411,0.00001943,-0.00000137,-0.00029819,0.00071703,-0.00005200,-0.000
 00442,-0.00000272,-0.00000121,-0.00000282,-0.00000292,-0.00000262,-0.0
 0000320,-0.00000311,-0.00000175,0.00000045,-0.00000544,-0.00000040,0.0
 0000381,-0.00000027,-0.00000128,-0.00001400,-0.00001101,-0.00001192,0.
 00000007,-0.00001364,-0.00002001,-0.00001893,-0.00010915,-0.00004320,0
 .00004835,0.00003040,-0.00002097,0.00004553,0.00036924,0.00177220,0.04
 142817,0.31919038,0.00000183,-0.00000394,-0.00000418,-0.00001029,-0.00
 000243,-0.00000639,0.00000806,0.00000771,-0.00000906,-0.00004988,-0.00
 003835,-0.00002043,-0.00002702,0.00010835,0.00011887,-0.00003085,-0.00
 000067,-0.00002692,-0.00011919,-0.00040329,0.00009612,-0.00002962,0.00
 002742,0.00002147,0.00012252,-0.00014463,-0.00002079,-0.00000641,-0.00
 000673,-0.00000503,-0.00000139,-0.00001997,-0.00001005,0.00000134,0.00
 000384,0.00000538,0.00012437,0.00028603,-0.00003584,0.00000496,0.00002
 160,0.00000122,-0.00004177,-0.00001801,0.00004102,-0.00050238,-0.00179
 012,0.00277582,0.00210104,-0.00466736,0.00147277,0.00048200,0.00027309
 ,-0.00170533,-0.00099562,0.00079516,-0.00034734,-0.01829016,-0.0806039
 3,-0.06169761,-0.00106173,-0.00208074,0.00890238,0.00013398,-0.0040154
 9,0.00356526,0.00000157,0.00000128,0.00001475,-0.00000315,-0.00000056,
 -0.00000157,0.00000039,0.00000515,0.00000144,0.00000726,0.00000032,0.0
 0000120,0.00023492,-0.00012528,-0.00077301,-0.00052789,-0.00000927,0.0
 0011270,0.00042041,-0.00041149,0.00003803,0.00028049,0.00075308,-0.000
 39062,-0.00000476,0.00000086,0.00000323,-0.00000139,0.00000334,-0.0000
 0681,-0.00001314,0.00000940,0.00001783,-0.00024924,0.00025760,0.000311
 15,-0.00000323,-0.00000056,-0.00000219,-0.00000305,-0.00000175,0.00000
 590,-0.00000194,-0.00000226,-0.00000173,-0.00000041,-0.00000291,0.0000
 0114,0.00000063,0.00000053,-0.00000011,0.00000197,-0.00000874,0.000005
 21,-0.00000842,-0.00003424,0.00005042,0.00001114,0.00002969,-0.0000023
 0,-0.00000720,-0.00009757,0.00016507,0.00081162,0.00186065,-0.00510107
 ,0.01723824,0.09005440,0.05244092,0.00137890,0.00287213,-0.00302308,-0
 .00004974,-0.00087991,-0.00005071,0.00003542,0.00017698,0.00006178,-0.
 00043319,0.00002465,0.00007511,0.00067459,-0.00171561,0.00173030,-0.01
 095707,-0.00546990,-0.00523698,0.00019588,0.00009027,0.00012039,0.0001
 1382,-0.00011467,-0.00006366,-0.00006509,-0.00005925,0.00000677,0.0000
 1120,-0.00001459,-0.00001334,-0.00013289,0.00002714,-0.00001680,0.0000
 1065,0.00005332,0.00001478,0.00001212,0.00003265,-0.00001512,-0.000057
 09,-0.00002465,-0.00001217,0.00004401,-0.00006658,-0.00000196,-0.00013
 864,0.00026954,-0.00005745,-0.00002742,-0.00000891,-0.00000331,0.00001
 633,-0.00001953,0.00000403,-0.00003492,-0.00060762,0.00067474,0.000008
 84,-0.00001053,-0.00003016,0.00048392,0.00002693,0.00011383,-0.0000265
 2,-0.00007134,-0.00006437,0.03463221,0.03877952,0.04432865,0.00001261,
 0.00002163,0.00062159,0.00420368,-0.00122323,-0.00310160,-0.00710632,-
 0.00833364,-0.00453005,0.00039765,-0.00027183,-0.00015735,-0.00017408,
 0.00009725,0.00007643,0.00001852,0.00010510,-0.00004512,0.00000739,0.0
 0015206,0.00000140,0.00000563,0.00000016,0.00000036,0.00000137,-0.0000
 0684,0.00000194,0.00000071,-0.00000266,0.00000330,-0.00000132,-0.00000
 654,0.00000061,0.00000489,-0.00000085,-0.00000150,-0.00009851,0.000060
 85,-0.00011110,-0.00027538,0.00001405,0.00052696,-0.00049679,0.0000315
 0,-0.00025067,-0.00151707,0.00176289,0.00215546,0.00015131,0.00000549,
 0.00003434,0.00000924,0.00000498,-0.00002371,0.00000205,-0.00000663,0.
 00001122,-0.00001839,0.00000221,0.00000443,-0.00001193,-0.00001555,0.0
 0000234,-0.00000741,-0.00000699,0.00001040,0.01459930,0.00193826,0.001
 25933,-0.00091024,0.00034759,-0.00028888,-0.00007285,0.00007628,0.0002
 4643,0.00003740,-0.00043373,0.00003929,-0.00005659,0.00088952,-0.00082
 167,0.00106923,-0.00088409,0.00259610,0.00026563,-0.00011407,0.0001016
 6,-0.00003803,-0.00004083,-0.00009289,-0.00000395,0.00013761,-0.000058
 53,-0.00005718,-0.00001809,-0.00002513,-0.00000853,-0.00006058,-0.0000
 0621,-0.00000273,0.00003390,0.00001722,0.00001455,0.00000103,0.0000301
 4,0.00000063,-0.00002261,0.00001559,-0.00000938,0.00000029,-0.00003116
 ,0.00000098,-0.00028848,0.00005495,0.00019262,-0.00002332,0.00003154,0
 .00000491,-0.00001357,-0.00000449,0.00000429,-0.00042501,-0.00105675,0
 .00110926,-0.00001004,-0.00001343,-0.00003340,0.00046218,0.00003306,0.
 00011313,0.00001082,-0.00003870,-0.00003768,0.03608035,0.00333905,0.02
 987446,0.00040846,-0.00043899,0.00054824,0.00222721,-0.00234860,-0.001
 25974,-0.01399417,-0.01235956,-0.00672406,0.00010377,-0.00017394,0.000
 13565,-0.00008884,0.00013324,-0.00006355,0.00001793,0.00005349,-0.0000
 4357,0.00000021,0.00011313,0.00001485,0.00000167,-0.00000277,0.0000008
 4,0.00000170,-0.00000360,-0.00000033,-0.00000450,-0.00000007,0.0000035
 7,0.00000016,-0.00000227,0.00000032,0.00000047,0.00000114,0.00000048,0
 .00007589,-0.00000816,-0.00007121,-0.00019005,0.00004144,0.00023322,-0
 .00067906,-0.00026778,-0.00020581,-0.00136531,0.00080353,0.00068882,0.
 00001019,0.00005845,0.00011114,0.00000540,-0.00000013,-0.00001903,0.00
 000245,0.00000074,0.00001033,-0.00001666,-0.00000444,0.00000693,-0.000
 00954,-0.00001284,0.00000206,-0.00000040,-0.00000128,0.00000001,-0.011
 77104,0.02994084,0.00115821,0.00190397,-0.00100190,-0.00004038,-0.0005
 3527,0.00000627,-0.00000973,0.00002734,-0.00000149,0.00003550,-0.00009
 912,0.00003450,0.00041176,-0.00085969,0.00049046,-0.00671622,-0.003693
 89,-0.00149582,0.00000121,-0.00004650,0.00017549,0.00008032,0.00003943
 ,0.00000742,-0.00015303,0.00009753,0.00001770,0.00004914,-0.00001415,0
 .00001158,-0.00004118,-0.00005798,-0.00000979,-0.00001487,0.00005227,-
 0.00000524,0.00003601,-0.00006522,-0.00001607,0.00003081,0.00002917,0.
 00000496,-0.00004847,0.00000354,-0.00000972,-0.00001443,0.00004898,0.0
 0006821,0.00004848,0.00007403,0.00000379,0.00000854,-0.00001544,-0.000
 01318,0.00028761,0.00043733,-0.00056525,-0.00007627,-0.00002587,-0.000
 01647,0.00010720,0.00008923,-0.00002669,0.00001970,-0.00015332,-0.0000
 7201,0.04778732,0.03542984,0.02472661,0.00001648,0.00002211,0.00024548
 ,0.00211524,-0.00032041,0.00013582,-0.00663403,-0.00587863,-0.00031176
 ,0.00110562,0.00103255,-0.00212942,-0.00036357,0.00033348,-0.00025357,
 -0.00000474,-0.00004038,-0.00003522,0.00012511,0.00009325,0.00021719,0
 .00000396,0.00000214,0.00000093,0.00000205,-0.00000129,0.00000202,0.00
 000071,-0.00000293,0.00000277,0.00000322,-0.00000819,0.00000111,0.0000
 0242,-0.00000093,0.00000221,-0.00005202,0.00005597,-0.00001647,-0.0001
 4634,-0.00000237,0.00010311,-0.00034471,0.00007040,-0.00029212,-0.0006
 7694,0.00117279,-0.00014953,0.00018448,-0.00002114,-0.00011157,-0.0000
 0173,-0.00000011,-0.00002435,-0.00000365,0.00000116,0.00000480,-0.0000
 2161,-0.00001490,0.00001580,-0.00001176,-0.00001567,0.00000499,-0.0000
 0480,-0.00000730,0.00000346,-0.01093898,-0.01185028,0.01636962,-0.0009
 1811,-0.00004384,0.00078490,-0.00005962,-0.00016458,0.00002921,0.00000
 827,0.00004632,-0.00003461,0.00003252,0.00013664,0.00001067,0.00005559
 ,0.00045385,-0.00050799,0.00167334,-0.00106177,0.00186250,-0.00015810,
 0.00005581,-0.00013163,-0.00001921,-0.00004948,0.00001325,0.00002023,0
 .00012247,-0.00001576,0.00008865,-0.00003185,0.00001687,-0.00004040,-0
 .00004823,-0.00000843,0.00000281,0.00007168,-0.00000147,0.00003943,-0.
 00001580,0.00002524,0.00006935,0.00002297,0.00001513,-0.00005137,0.000
 06313,0.00000392,-0.00009997,0.00016542,0.00006283,0.00002494,-0.00005
 239,-0.00004496,-0.00005899,0.00003480,0.00000194,-0.00007848,-0.00012
 171,0.00057267,0.00001426,-0.00003107,0.00000213,0.00022777,-0.0001056
 9,0.00001487,0.00000269,0.00006671,0.00006462,-0.03593529,-0.02921842,
 -0.03646749,-0.00021904,0.00002094,-0.00029503,-0.00059265,0.00019397,
 0.00121334,0.00107182,0.00344099,0.00184626,-0.00068713,-0.00042348,0.
 00089978,0.00047820,-0.00038039,0.00014501,-0.00012718,0.00019915,-0.0
 0002326,-0.00001892,-0.00010571,-0.00014978,-0.00000170,0.00000768,-0.
 00000226,-0.00000133,0.00000715,-0.00000082,0.00000245,0.00000343,-0.0
 0000681,0.00000314,0.00000183,0.00000365,-0.00000364,-0.00000483,-0.00
 000087,-0.00009278,0.00001718,0.00002295,0.00007036,-0.00001751,-0.000
 08403,0.00009351,-0.00013660,-0.00012352,0.00103814,-0.00079882,-0.000
 18121,-0.00005245,0.00001153,-0.00009411,-0.00001107,0.00001532,-0.000
 01779,-0.00000683,-0.00000144,-0.00001593,0.00000213,0.00000355,-0.000
 00287,0.00000392,0.00000051,-0.00000505,0.00000486,0.00000321,-0.00000
 902,-0.03540248,-0.01237936,-0.02730164,0.06960839,-0.00090241,-0.0002
 0317,0.00053141,-0.00008574,-0.00007618,0.00006300,-0.00002194,0.00001
 774,-0.00001552,0.00008107,0.00004255,0.00000908,-0.00019429,0.0004156
 6,-0.00053491,0.00064111,-0.00070451,0.00062960,-0.00009944,-0.0000660
 6,-0.00010601,0.00000498,0.00003022,0.00000405,-0.00008649,0.00011261,
 0.00002771,0.00004594,-0.00002020,0.00000190,-0.00000965,-0.00002929,-
 0.00000967,-0.00000701,0.00003902,0.00000486,0.00001793,-0.00005017,-0
 .00000535,0.00003698,0.00002420,0.00001432,-0.00004838,0.00002679,-0.0
 0000589,0.00001879,-0.00010622,0.00026150,0.00002883,0.00001445,0.0000
 4236,-0.00001245,-0.00001132,-0.00000331,-0.00017577,-0.00025129,0.000
 64143,0.00004490,-0.00002826,-0.00001392,0.00016995,-0.00015450,0.0001
 1963,-0.00002840,0.00008840,0.00004037,-0.02657341,-0.01466718,-0.0222
 5738,-0.00024040,0.00012575,-0.00023090,0.00033435,0.00050524,0.000500
 59,0.00050697,0.00253396,0.00054568,-0.00038869,-0.00031640,0.00067021
 ,0.00039005,-0.00019439,0.00001909,-0.00011127,0.00019728,0.00001146,-
 0.00018224,-0.00011754,-0.00014605,0.00000080,0.00000330,-0.00000134,-
 0.00000002,0.00000257,-0.00000066,0.00000141,0.00000053,-0.00000188,0.
 00000312,-0.00000004,-0.00000292,-0.00000084,-0.00000183,-0.00000042,-
 0.00006265,0.00000804,0.00000199,0.00002309,0.00000772,-0.00002994,0.0
 0003268,-0.00004274,-0.00006030,0.00079874,0.00009238,0.00029785,-0.00
 005653,0.00000231,-0.00007962,-0.00000966,0.00001271,0.00000549,-0.000
 00762,-0.00000106,-0.00000702,-0.00000190,0.00000454,-0.00000003,-0.00
 000110,-0.00000208,-0.00000018,0.00000238,0.00000057,-0.00000922,-0.01
 390242,-0.02084808,-0.01728553,0.04002670,0.03358399,-0.00090437,0.000
 04402,0.00065853,-0.00015184,-0.00007723,0.00003090,-0.00001248,-0.000
 06686,-0.00006154,0.00016827,0.00001495,0.00002147,-0.00023632,0.00045
 715,-0.00048709,0.00163375,-0.00085288,0.00055963,0.00000883,0.0000607
 3,-0.00013526,-0.00002512,0.00003822,0.00001083,-0.00001331,0.00007731
 ,-0.00000315,0.00003997,0.00001146,0.00000697,0.00000242,-0.00002373,-
 0.00000292,-0.00001421,0.00002070,-0.00000222,0.00002210,0.00001104,0.
 00003103,0.00004437,0.00000954,0.00000987,-0.00002985,0.00003887,-0.00
 000054,-0.00014830,0.00019042,-0.00010973,-0.00000659,-0.00005690,0.00
 000234,-0.00003092,0.00001480,0.00000170,0.00008724,0.00001339,-0.0003
 7200,-0.00000935,0.00000710,0.00000069,0.00010411,0.00011204,-0.000102
 98,0.00001850,0.00000930,0.00004974,-0.03779819,-0.02635675,-0.0271088
 0,0.00000036,0.00010831,-0.00030203,-0.00078099,0.00004493,0.00157769,
 0.00177721,0.00341409,0.00066135,0.00025394,0.00014075,-0.00083059,-0.
 00036923,0.00011567,0.00005607,0.00001650,-0.00006923,0.00000313,0.000
 08896,0.00005496,0.00013827,-0.00000093,0.00000513,-0.00000261,-0.0000
 0107,0.00000495,-0.00000024,0.00000213,0.00000216,-0.00000530,0.000001
 18,0.00000328,-0.00000002,-0.00000283,-0.00000290,-0.00000012,-0.00010
 706,0.00002125,0.00010191,0.00010623,-0.00003031,-0.00023220,0.0000077
 0,-0.00012160,0.00006290,0.00124436,-0.00069009,-0.00051970,-0.0000792
 9,-0.00010799,0.00010022,-0.00000635,0.00000446,-0.00000209,0.00000600
 ,0.00000457,-0.00000208,0.00000350,0.00000741,-0.00000952,0.00000428,0
 .00000099,-0.00000754,0.00000404,0.00000351,-0.00000438,-0.02283198,-0
 .01297541,-0.03609867,0.05791460,0.03636441,0.06231807\\-0.00000440,0.
 00000856,0.00000073,0.00000113,-0.00000386,0.00000651,0.00000026,0.000
 00079,-0.00000130,-0.00000424,0.00000135,0.00000837,0.00000696,-0.0000
 0427,-0.00001081,-0.00000586,0.00001239,-0.00000209,-0.00000016,-0.000
 00057,0.00000969,-0.00000069,-0.00000054,-0.00000242,0.00000109,-0.000
 00014,0.00000446,0.00000023,-0.00000036,0.00000121,-0.00000094,-0.0000
 0090,0.00000333,0.00000035,-0.00000009,-0.00000294,-0.00000014,-0.0000
 0013,0.00000238,0.00000128,0.00000089,-0.00000465,-0.00000097,0.000000
 06,-0.00000234,-0.00000079,0.00000506,-0.00001354,0.00000071,-0.000001
 72,0.00000309,0.00000010,0.00000088,-0.00000358,0.00000030,-0.00000108
 ,0.00000285,-0.00000011,0.00000003,0.00000063,0.00000034,0.00000152,-0
 .00000220,-0.00000072,0.00000022,-0.00000037,0.00006783,-0.00003099,-0
 .00000131,0.00000462,-0.00000138,-0.00000176,-0.00000883,0.00000073,0.
 00001106,-0.00001087,0.00000452,-0.00001462,-0.00000086,-0.00000353,0.
 00000516,0.00000013,-0.00000022,0.00000036,-0.00000037,-0.00000103,-0.
 00000067,0.00000106,0.00000106,-0.00000027,-0.00000027,-0.00000046,0.0
 0000106,-0.00000035,-0.00000037,0.00000169,-0.00000031,-0.00000030,0.0
 0000180,-0.00000012,-0.00000030,0.00000119,-0.00000022,-0.00000018,0.0
 0000019,0.00000020,-0.00000015,-0.00000144,0.00000083,-0.00000132,-0.0
 0000168,0.00000152,0.00000008,-0.00000277,0.00000071,-0.00000187,-0.00
 000191,-0.00000238,-0.00000008,-0.00000045,-0.00000001,0.00000051,-0.0
 0000059,-0.00000014,0.00000022,-0.00000026,0.00000005,0.00000063,-0.00
 000039,0.,0.00000018,-0.00000049,-0.00000036,-0.00000006,0.00000061,-0
 .00012042,-0.00002563,-0.00001996,0.00007484,0.00004186,0.00002843\\\@


 WOMEN HOLD UP HALF THE SKY. -- MAO TSE TUNG
 Job cpu time:       1 days 20 hours 24 minutes 50.3 seconds.
 Elapsed time:       0 days  2 hours 13 minutes 12.0 seconds.
 File lengths (MBytes):  RWF=   4615 Int=      0 D2E=      0 Chk=     73 Scr=      1
 Normal termination of Gaussian 16 at Thu May  2 05:27:13 2019.
