 Entering Gaussian System, Link 0=/share/apps/gaussian16/g16/g16
 Initial command:
 /share/apps/gaussian16/g16/l1.exe "/home/am2145//scratch/4439/Gau-14169.inp" -scrdir="/home/am2145//scratch/4439/"
 Entering Link 1 = /share/apps/gaussian16/g16/l1.exe PID=     14170.
  
 Copyright (c) 1988,1990,1992,1993,1995,1998,2003,2009,2016,
            Gaussian, Inc.  All Rights Reserved.
  
 This is part of the Gaussian(R) 16 program.  It is based on
 the Gaussian(R) 09 system (copyright 2009, Gaussian, Inc.),
 the Gaussian(R) 03 system (copyright 2003, Gaussian, Inc.),
 the Gaussian(R) 98 system (copyright 1998, Gaussian, Inc.),
 the Gaussian(R) 94 system (copyright 1995, Gaussian, Inc.),
 the Gaussian 92(TM) system (copyright 1992, Gaussian, Inc.),
 the Gaussian 90(TM) system (copyright 1990, Gaussian, Inc.),
 the Gaussian 88(TM) system (copyright 1988, Gaussian, Inc.),
 the Gaussian 86(TM) system (copyright 1986, Carnegie Mellon
 University), and the Gaussian 82(TM) system (copyright 1983,
 Carnegie Mellon University). Gaussian is a federally registered
 trademark of Gaussian, Inc.
  
 This software contains proprietary and confidential information,
 including trade secrets, belonging to Gaussian, Inc.
  
 This software is provided under written license and may be
 used, copied, transmitted, or stored only in accord with that
 written license.
  
 The following legend is applicable only to US Government
 contracts under FAR:
  
                    RESTRICTED RIGHTS LEGEND
  
 Use, reproduction and disclosure by the US Government is
 subject to restrictions as set forth in subparagraphs (a)
 and (c) of the Commercial Computer Software - Restricted
 Rights clause in FAR 52.227-19.
  
 Gaussian, Inc.
 340 Quinnipiac St., Bldg. 40, Wallingford CT 06492
  
  
 ---------------------------------------------------------------
 Warning -- This program may not be used in any manner that
 competes with the business of Gaussian, Inc. or will provide
 assistance to any competitor of Gaussian, Inc.  The licensee
 of this program is prohibited from giving any competitor of
 Gaussian, Inc. access to this program.  By using this program,
 the user acknowledges that Gaussian, Inc. is engaged in the
 business of creating and licensing software in the field of
 computational chemistry and represents and warrants to the
 licensee that it is not a competitor of Gaussian, Inc. and that
 it will not use this program in any manner prohibited above.
 ---------------------------------------------------------------
  

 Cite this work as:
 Gaussian 16, Revision A.03,
 M. J. Frisch, G. W. Trucks, H. B. Schlegel, G. E. Scuseria, 
 M. A. Robb, J. R. Cheeseman, G. Scalmani, V. Barone, 
 G. A. Petersson, H. Nakatsuji, X. Li, M. Caricato, A. V. Marenich, 
 J. Bloino, B. G. Janesko, R. Gomperts, B. Mennucci, H. P. Hratchian, 
 J. V. Ortiz, A. F. Izmaylov, J. L. Sonnenberg, D. Williams-Young, 
 F. Ding, F. Lipparini, F. Egidi, J. Goings, B. Peng, A. Petrone, 
 T. Henderson, D. Ranasinghe, V. G. Zakrzewski, J. Gao, N. Rega, 
 G. Zheng, W. Liang, M. Hada, M. Ehara, K. Toyota, R. Fukuda, 
 J. Hasegawa, M. Ishida, T. Nakajima, Y. Honda, O. Kitao, H. Nakai, 
 T. Vreven, K. Throssell, J. A. Montgomery, Jr., J. E. Peralta, 
 F. Ogliaro, M. J. Bearpark, J. J. Heyd, E. N. Brothers, K. N. Kudin, 
 V. N. Staroverov, T. A. Keith, R. Kobayashi, J. Normand, 
 K. Raghavachari, A. P. Rendell, J. C. Burant, S. S. Iyengar, 
 J. Tomasi, M. Cossi, J. M. Millam, M. Klene, C. Adamo, R. Cammi, 
 J. W. Ochterski, R. L. Martin, K. Morokuma, O. Farkas, 
 J. B. Foresman, and D. J. Fox, Gaussian, Inc., Wallingford CT, 2016.
 
 ******************************************
 Gaussian 16:  ES64L-G16RevA.03 25-Dec-2016
                10-Jun-2019 
 ******************************************
 %nprocshared=20
 Will use up to   20 processors via shared memory.
 %mem=100GB
 %chk=7-path-TSguess-1b.chk
 ----------------------------------------------------------------------
 # opt=(ts,modredundant,noeigen) freq b3lyp/6-311+g(d,p) int=grid=fine 
 scf=xqc
 ----------------------------------------------------------------------
 1/5=1,11=1,18=120,26=3,38=1/1,3;
 2/9=110,12=2,17=6,18=5,40=1/2;
 3/5=4,6=6,7=111,11=2,25=1,30=1,71=1,74=-5,75=-4/1,2,3;
 4//1;
 5/5=2,8=3,13=1,38=5/2,8;
 6/7=2,8=2,9=2,10=2,28=1/1;
 7//1,2,3,16;
 1/5=1,11=1,18=20,26=3/3(2);
 2/9=110/2;
 99//99;
 2/9=110/2;
 3/5=4,6=6,7=111,11=2,25=1,30=1,71=1,74=-5,75=-4/1,2,3;
 4/5=5,16=3,69=1/1;
 5/5=2,8=3,13=1,38=5/2,8;
 7//1,2,3,16;
 1/5=1,11=1,18=20,26=3/3(-5);
 2/9=110/2;
 6/7=2,8=2,9=2,10=2,19=2,28=1/1;
 99/9=1/99;
 -----------------
 7-path-TSguess-1b
 -----------------
 Symbolic Z-matrix:
 Charge =  0 Multiplicity = 2
 C                     1.7761    2.8756   -0.0597 
 C                     3.0603    2.37      0.2454 
 C                     3.269     0.9909    0.3233 
 C                     2.1124    0.207     0.2044 
 C                     0.78      0.6133   -0.0132 
 C                     0.6166    1.9973   -0.2721 
 C                    -0.0328   -0.6636   -0.0806 
 C                     2.2069   -1.1895    0.1597 
 C                     0.9286   -1.7073   -0.0532 
 C                     4.509     0.2515    0.4683 
 C                     3.3696   -1.9218    0.2384 
 C                     4.5634   -1.1248    0.4257 
 C                     0.7376   -3.0822   -0.1982 
 C                     3.1875   -3.3451    0.0888 
 C                     1.9351   -3.8893   -0.1223 
 C                    -1.3774   -1.0902   -0.0836 
 C                    -1.6173   -2.4988   -0.3883 
 C                    -0.5938   -3.459    -0.4389 
 C                    -2.5357   -0.2768    0.2702 
 C                    -2.9698   -2.9207   -0.6547 
 C                    -3.8476   -0.7535   -0.0086 
 C                    -4.0238   -2.0806   -0.5321 
 C                    -0.531     2.6317   -0.7981 
 C                     1.6016    4.2843   -0.2309 
 C                     0.4234    4.8244   -0.6702 
 C                    -0.6611    3.9669   -1.0117 
 C                    -2.4105    0.9328    0.9828 
 C                    -3.5189    1.6867    1.3251 
 C                    -4.9616    0.0468    0.3154 
 C                    -4.8041    1.2572    0.9639 
 H                     5.5264   -1.6158    0.5218 
 H                     4.0472   -4.0057    0.1327 
 H                     1.8454   -4.9645   -0.2393 
 H                    -0.8572   -4.4892   -0.6568 
 H                     5.4314    0.8085    0.5967 
 H                     3.8786    3.0727    0.3689 
 H                     2.4514    4.9282   -0.0301 
 H                     0.3239    5.8959   -0.803 
 H                    -1.5623    4.375    -1.4577 
 H                    -1.06826   1.33469   1.38181 
 H                    -3.3902    2.6086    1.8805 
 H                    -5.6711    1.8559    1.2199 
 H                    -5.9542   -0.32      0.0753 
 H                    -5.0292   -2.4196   -0.7581 
 H                    -3.1235   -3.9487   -0.9657 
 H                    -1.23625   2.06406  -1.33772 
 H                    -0.26828   1.36514   1.69899 
 
 Add virtual bond connecting atoms H40        and C27        Dist= 2.75D+00.
 The following ModRedundant input section has been read:
 

 GradGradGradGradGradGradGradGradGradGradGradGradGradGradGradGradGradGrad
 Berny optimization.
 Initialization pass.
                           ----------------------------
                           !    Initial Parameters    !
                           ! (Angstroms and Degrees)  !
 --------------------------                            --------------------------
 ! Name  Definition              Value          Derivative Info.                !
 --------------------------------------------------------------------------------
 ! R1    R(1,2)                  1.4135         estimate D2E/DX2                !
 ! R2    R(1,6)                  1.47           estimate D2E/DX2                !
 ! R3    R(1,24)                 1.4298         estimate D2E/DX2                !
 ! R4    R(2,3)                  1.397          estimate D2E/DX2                !
 ! R5    R(2,36)                 1.0857         estimate D2E/DX2                !
 ! R6    R(3,4)                  1.4023         estimate D2E/DX2                !
 ! R7    R(3,10)                 1.451          estimate D2E/DX2                !
 ! R8    R(4,5)                  1.4099         estimate D2E/DX2                !
 ! R9    R(4,8)                  1.4004         estimate D2E/DX2                !
 ! R10   R(5,6)                  1.4175         estimate D2E/DX2                !
 ! R11   R(5,7)                  1.5151         estimate D2E/DX2                !
 ! R12   R(6,23)                 1.4128         estimate D2E/DX2                !
 ! R13   R(7,9)                  1.4193         estimate D2E/DX2                !
 ! R14   R(7,16)                 1.4107         estimate D2E/DX2                !
 ! R15   R(8,9)                  1.3955         estimate D2E/DX2                !
 ! R16   R(8,11)                 1.3763         estimate D2E/DX2                !
 ! R17   R(9,13)                 1.3957         estimate D2E/DX2                !
 ! R18   R(10,12)                1.378          estimate D2E/DX2                !
 ! R19   R(10,35)                1.0852         estimate D2E/DX2                !
 ! R20   R(11,12)                1.4476         estimate D2E/DX2                !
 ! R21   R(11,14)                1.4427         estimate D2E/DX2                !
 ! R22   R(12,31)                1.0852         estimate D2E/DX2                !
 ! R23   R(13,15)                1.4461         estimate D2E/DX2                !
 ! R24   R(13,18)                1.4045         estimate D2E/DX2                !
 ! R25   R(14,15)                1.3817         estimate D2E/DX2                !
 ! R26   R(14,32)                1.0851         estimate D2E/DX2                !
 ! R27   R(15,33)                1.0853         estimate D2E/DX2                !
 ! R28   R(16,17)                1.461          estimate D2E/DX2                !
 ! R29   R(16,19)                1.4589         estimate D2E/DX2                !
 ! R30   R(17,18)                1.4043         estimate D2E/DX2                !
 ! R31   R(17,20)                1.4416         estimate D2E/DX2                !
 ! R32   R(18,34)                1.0854         estimate D2E/DX2                !
 ! R33   R(19,21)                1.4234         estimate D2E/DX2                !
 ! R34   R(19,27)                1.4095         estimate D2E/DX2                !
 ! R35   R(20,22)                1.3534         estimate D2E/DX2                !
 ! R36   R(20,45)                1.085          estimate D2E/DX2                !
 ! R37   R(21,22)                1.4375         estimate D2E/DX2                !
 ! R38   R(21,29)                1.4094         estimate D2E/DX2                !
 ! R39   R(22,44)                1.0848         estimate D2E/DX2                !
 ! R40   R(23,26)                1.3584         estimate D2E/DX2                !
 ! R41   R(23,46)                1.0539         estimate D2E/DX2                !
 ! R42   R(24,25)                1.3685         estimate D2E/DX2                !
 ! R43   R(24,37)                1.0849         estimate D2E/DX2                !
 ! R44   R(25,26)                1.4241         estimate D2E/DX2                !
 ! R45   R(25,38)                1.0843         estimate D2E/DX2                !
 ! R46   R(26,39)                1.0852         estimate D2E/DX2                !
 ! R47   R(27,28)                1.3835         estimate D2E/DX2                !
 ! R48   R(27,40)                1.4568         estimate D2E/DX2                !
 ! R49   R(28,30)                1.4024         estimate D2E/DX2                !
 ! R50   R(28,41)                1.0839         estimate D2E/DX2                !
 ! R51   R(29,30)                1.3822         estimate D2E/DX2                !
 ! R52   R(29,43)                1.0851         estimate D2E/DX2                !
 ! R53   R(30,42)                1.0843         estimate D2E/DX2                !
 ! R54   R(40,47)                0.8611         estimate D2E/DX2                !
 ! A1    A(2,1,6)              122.2828         estimate D2E/DX2                !
 ! A2    A(2,1,24)             119.2859         estimate D2E/DX2                !
 ! A3    A(6,1,24)             118.3663         estimate D2E/DX2                !
 ! A4    A(1,2,3)              120.0591         estimate D2E/DX2                !
 ! A5    A(1,2,36)             118.544          estimate D2E/DX2                !
 ! A6    A(3,2,36)             121.3341         estimate D2E/DX2                !
 ! A7    A(2,3,4)              115.0823         estimate D2E/DX2                !
 ! A8    A(2,3,10)             129.5173         estimate D2E/DX2                !
 ! A9    A(4,3,10)             115.371          estimate D2E/DX2                !
 ! A10   A(3,4,5)              129.1588         estimate D2E/DX2                !
 ! A11   A(3,4,8)              120.2989         estimate D2E/DX2                !
 ! A12   A(5,4,8)              110.2566         estimate D2E/DX2                !
 ! A13   A(4,5,6)              114.7409         estimate D2E/DX2                !
 ! A14   A(4,5,7)              105.7221         estimate D2E/DX2                !
 ! A15   A(6,5,7)              138.8423         estimate D2E/DX2                !
 ! A16   A(1,6,5)              117.7785         estimate D2E/DX2                !
 ! A17   A(1,6,23)             115.2264         estimate D2E/DX2                !
 ! A18   A(5,6,23)             126.8743         estimate D2E/DX2                !
 ! A19   A(5,7,9)              104.8032         estimate D2E/DX2                !
 ! A20   A(5,7,16)             140.0216         estimate D2E/DX2                !
 ! A21   A(9,7,16)             115.0445         estimate D2E/DX2                !
 ! A22   A(4,8,9)              108.244          estimate D2E/DX2                !
 ! A23   A(4,8,11)             125.8565         estimate D2E/DX2                !
 ! A24   A(9,8,11)             125.8112         estimate D2E/DX2                !
 ! A25   A(7,9,8)              110.5225         estimate D2E/DX2                !
 ! A26   A(7,9,13)             129.0301         estimate D2E/DX2                !
 ! A27   A(8,9,13)             120.4464         estimate D2E/DX2                !
 ! A28   A(3,10,12)            122.656          estimate D2E/DX2                !
 ! A29   A(3,10,35)            118.4688         estimate D2E/DX2                !
 ! A30   A(12,10,35)           118.865          estimate D2E/DX2                !
 ! A31   A(8,11,12)            114.2762         estimate D2E/DX2                !
 ! A32   A(8,11,14)            114.3528         estimate D2E/DX2                !
 ! A33   A(12,11,14)           131.353          estimate D2E/DX2                !
 ! A34   A(10,12,11)           121.4215         estimate D2E/DX2                !
 ! A35   A(10,12,31)           118.9581         estimate D2E/DX2                !
 ! A36   A(11,12,31)           119.6151         estimate D2E/DX2                !
 ! A37   A(9,13,15)            115.5339         estimate D2E/DX2                !
 ! A38   A(9,13,18)            114.3201         estimate D2E/DX2                !
 ! A39   A(15,13,18)           130.1109         estimate D2E/DX2                !
 ! A40   A(11,14,15)           121.2524         estimate D2E/DX2                !
 ! A41   A(11,14,32)           119.7636         estimate D2E/DX2                !
 ! A42   A(15,14,32)           118.9816         estimate D2E/DX2                !
 ! A43   A(13,15,14)           122.6005         estimate D2E/DX2                !
 ! A44   A(13,15,33)           118.6102         estimate D2E/DX2                !
 ! A45   A(14,15,33)           118.789          estimate D2E/DX2                !
 ! A46   A(7,16,17)            116.6488         estimate D2E/DX2                !
 ! A47   A(7,16,19)            125.99           estimate D2E/DX2                !
 ! A48   A(17,16,19)           117.2417         estimate D2E/DX2                !
 ! A49   A(16,17,18)           123.1658         estimate D2E/DX2                !
 ! A50   A(16,17,20)           118.3433         estimate D2E/DX2                !
 ! A51   A(18,17,20)           118.4905         estimate D2E/DX2                !
 ! A52   A(13,18,17)           120.0854         estimate D2E/DX2                !
 ! A53   A(13,18,34)           121.2705         estimate D2E/DX2                !
 ! A54   A(17,18,34)           118.6414         estimate D2E/DX2                !
 ! A55   A(16,19,21)           119.8369         estimate D2E/DX2                !
 ! A56   A(16,19,27)           122.0431         estimate D2E/DX2                !
 ! A57   A(21,19,27)           117.9247         estimate D2E/DX2                !
 ! A58   A(17,20,22)           122.1567         estimate D2E/DX2                !
 ! A59   A(17,20,45)           117.5922         estimate D2E/DX2                !
 ! A60   A(22,20,45)           120.2507         estimate D2E/DX2                !
 ! A61   A(19,21,22)           119.5709         estimate D2E/DX2                !
 ! A62   A(19,21,29)           119.5573         estimate D2E/DX2                !
 ! A63   A(22,21,29)           120.7347         estimate D2E/DX2                !
 ! A64   A(20,22,21)           120.704          estimate D2E/DX2                !
 ! A65   A(20,22,44)           120.5916         estimate D2E/DX2                !
 ! A66   A(21,22,44)           118.5534         estimate D2E/DX2                !
 ! A67   A(6,23,26)            125.2876         estimate D2E/DX2                !
 ! A68   A(6,23,46)            119.4926         estimate D2E/DX2                !
 ! A69   A(26,23,46)           112.6306         estimate D2E/DX2                !
 ! A70   A(1,24,25)            122.1651         estimate D2E/DX2                !
 ! A71   A(1,24,37)            117.8392         estimate D2E/DX2                !
 ! A72   A(25,24,37)           119.9687         estimate D2E/DX2                !
 ! A73   A(24,25,26)           119.6674         estimate D2E/DX2                !
 ! A74   A(24,25,38)           120.5527         estimate D2E/DX2                !
 ! A75   A(26,25,38)           119.7216         estimate D2E/DX2                !
 ! A76   A(23,26,25)           118.7638         estimate D2E/DX2                !
 ! A77   A(23,26,39)           120.9171         estimate D2E/DX2                !
 ! A78   A(25,26,39)           120.3005         estimate D2E/DX2                !
 ! A79   A(19,27,28)           121.4377         estimate D2E/DX2                !
 ! A80   A(19,27,40)           117.1977         estimate D2E/DX2                !
 ! A81   A(28,27,40)           121.3356         estimate D2E/DX2                !
 ! A82   A(27,28,30)           120.2382         estimate D2E/DX2                !
 ! A83   A(27,28,41)           119.6768         estimate D2E/DX2                !
 ! A84   A(30,28,41)           120.0836         estimate D2E/DX2                !
 ! A85   A(21,29,30)           121.0004         estimate D2E/DX2                !
 ! A86   A(21,29,43)           118.6991         estimate D2E/DX2                !
 ! A87   A(30,29,43)           120.2699         estimate D2E/DX2                !
 ! A88   A(28,30,29)           119.5692         estimate D2E/DX2                !
 ! A89   A(28,30,42)           120.1904         estimate D2E/DX2                !
 ! A90   A(29,30,42)           120.2118         estimate D2E/DX2                !
 ! A91   L(27,40,47,7,-1)      172.4978         estimate D2E/DX2                !
 ! A92   L(27,40,47,7,-2)      192.8563         estimate D2E/DX2                !
 ! D1    D(6,1,2,3)              1.5246         estimate D2E/DX2                !
 ! D2    D(6,1,2,36)           178.6818         estimate D2E/DX2                !
 ! D3    D(24,1,2,3)          -175.4959         estimate D2E/DX2                !
 ! D4    D(24,1,2,36)            1.6613         estimate D2E/DX2                !
 ! D5    D(2,1,6,5)              7.0492         estimate D2E/DX2                !
 ! D6    D(2,1,6,23)          -169.2313         estimate D2E/DX2                !
 ! D7    D(24,1,6,5)          -175.904          estimate D2E/DX2                !
 ! D8    D(24,1,6,23)            7.8155         estimate D2E/DX2                !
 ! D9    D(2,1,24,25)          172.6403         estimate D2E/DX2                !
 ! D10   D(2,1,24,37)           -5.4683         estimate D2E/DX2                !
 ! D11   D(6,1,24,25)           -4.4972         estimate D2E/DX2                !
 ! D12   D(6,1,24,37)          177.3942         estimate D2E/DX2                !
 ! D13   D(1,2,3,4)             -5.6732         estimate D2E/DX2                !
 ! D14   D(1,2,3,10)           172.24           estimate D2E/DX2                !
 ! D15   D(36,2,3,4)           177.2506         estimate D2E/DX2                !
 ! D16   D(36,2,3,10)           -4.8363         estimate D2E/DX2                !
 ! D17   D(2,3,4,5)              1.6638         estimate D2E/DX2                !
 ! D18   D(2,3,4,8)            174.8906         estimate D2E/DX2                !
 ! D19   D(10,3,4,5)          -176.5546         estimate D2E/DX2                !
 ! D20   D(10,3,4,8)            -3.3278         estimate D2E/DX2                !
 ! D21   D(2,3,10,12)         -174.7717         estimate D2E/DX2                !
 ! D22   D(2,3,10,35)            4.0514         estimate D2E/DX2                !
 ! D23   D(4,3,10,12)            3.1365         estimate D2E/DX2                !
 ! D24   D(4,3,10,35)         -178.0404         estimate D2E/DX2                !
 ! D25   D(3,4,5,6)              6.6124         estimate D2E/DX2                !
 ! D26   D(3,4,5,7)            178.8919         estimate D2E/DX2                !
 ! D27   D(8,4,5,6)           -167.1563         estimate D2E/DX2                !
 ! D28   D(8,4,5,7)              5.1233         estimate D2E/DX2                !
 ! D29   D(3,4,8,9)           -175.9274         estimate D2E/DX2                !
 ! D30   D(3,4,8,11)             0.8093         estimate D2E/DX2                !
 ! D31   D(5,4,8,9)             -1.5215         estimate D2E/DX2                !
 ! D32   D(5,4,8,11)           175.2153         estimate D2E/DX2                !
 ! D33   D(4,5,6,1)            -10.3004         estimate D2E/DX2                !
 ! D34   D(4,5,6,23)           165.4925         estimate D2E/DX2                !
 ! D35   D(7,5,6,1)           -178.969          estimate D2E/DX2                !
 ! D36   D(7,5,6,23)            -3.176          estimate D2E/DX2                !
 ! D37   D(4,5,7,9)             -6.6892         estimate D2E/DX2                !
 ! D38   D(4,5,7,16)           168.6369         estimate D2E/DX2                !
 ! D39   D(6,5,7,9)            162.6272         estimate D2E/DX2                !
 ! D40   D(6,5,7,16)           -22.0467         estimate D2E/DX2                !
 ! D41   D(1,6,23,26)           -5.3459         estimate D2E/DX2                !
 ! D42   D(1,6,23,46)          155.0214         estimate D2E/DX2                !
 ! D43   D(5,6,23,26)          178.7686         estimate D2E/DX2                !
 ! D44   D(5,6,23,46)          -20.8642         estimate D2E/DX2                !
 ! D45   D(5,7,9,8)              6.027          estimate D2E/DX2                !
 ! D46   D(5,7,9,13)          -174.337          estimate D2E/DX2                !
 ! D47   D(16,7,9,8)          -170.6602         estimate D2E/DX2                !
 ! D48   D(16,7,9,13)            8.9758         estimate D2E/DX2                !
 ! D49   D(5,7,16,17)          170.3934         estimate D2E/DX2                !
 ! D50   D(5,7,16,19)          -13.709          estimate D2E/DX2                !
 ! D51   D(9,7,16,17)          -14.5951         estimate D2E/DX2                !
 ! D52   D(9,7,16,19)          161.3024         estimate D2E/DX2                !
 ! D53   D(4,8,9,7)             -3.0833         estimate D2E/DX2                !
 ! D54   D(4,8,9,13)           177.2447         estimate D2E/DX2                !
 ! D55   D(11,8,9,7)          -179.8219         estimate D2E/DX2                !
 ! D56   D(11,8,9,13)            0.5061         estimate D2E/DX2                !
 ! D57   D(4,8,11,12)            2.0441         estimate D2E/DX2                !
 ! D58   D(4,8,11,14)         -176.5929         estimate D2E/DX2                !
 ! D59   D(9,8,11,12)          178.2217         estimate D2E/DX2                !
 ! D60   D(9,8,11,14)           -0.4153         estimate D2E/DX2                !
 ! D61   D(7,9,13,15)          179.926          estimate D2E/DX2                !
 ! D62   D(7,9,13,18)            1.8608         estimate D2E/DX2                !
 ! D63   D(8,9,13,15)           -0.4694         estimate D2E/DX2                !
 ! D64   D(8,9,13,18)         -178.5346         estimate D2E/DX2                !
 ! D65   D(3,10,12,11)          -0.3338         estimate D2E/DX2                !
 ! D66   D(3,10,12,31)         178.8327         estimate D2E/DX2                !
 ! D67   D(35,10,12,11)       -179.1524         estimate D2E/DX2                !
 ! D68   D(35,10,12,31)          0.0141         estimate D2E/DX2                !
 ! D69   D(8,11,12,10)          -2.2225         estimate D2E/DX2                !
 ! D70   D(8,11,12,31)         178.6164         estimate D2E/DX2                !
 ! D71   D(14,11,12,10)        176.1232         estimate D2E/DX2                !
 ! D72   D(14,11,12,31)         -3.0379         estimate D2E/DX2                !
 ! D73   D(8,11,14,15)           0.3525         estimate D2E/DX2                !
 ! D74   D(8,11,14,32)         179.7801         estimate D2E/DX2                !
 ! D75   D(12,11,14,15)       -177.9922         estimate D2E/DX2                !
 ! D76   D(12,11,14,32)          1.4354         estimate D2E/DX2                !
 ! D77   D(9,13,15,14)           0.4389         estimate D2E/DX2                !
 ! D78   D(9,13,15,33)        -179.3493         estimate D2E/DX2                !
 ! D79   D(18,13,15,14)        178.1335         estimate D2E/DX2                !
 ! D80   D(18,13,15,33)         -1.6548         estimate D2E/DX2                !
 ! D81   D(9,13,18,17)          -6.0976         estimate D2E/DX2                !
 ! D82   D(9,13,18,34)         174.4978         estimate D2E/DX2                !
 ! D83   D(15,13,18,17)        176.1852         estimate D2E/DX2                !
 ! D84   D(15,13,18,34)         -3.2193         estimate D2E/DX2                !
 ! D85   D(11,14,15,13)         -0.3958         estimate D2E/DX2                !
 ! D86   D(11,14,15,33)        179.3921         estimate D2E/DX2                !
 ! D87   D(32,14,15,13)       -179.8278         estimate D2E/DX2                !
 ! D88   D(32,14,15,33)         -0.0399         estimate D2E/DX2                !
 ! D89   D(7,16,17,18)          11.4743         estimate D2E/DX2                !
 ! D90   D(7,16,17,20)        -168.2776         estimate D2E/DX2                !
 ! D91   D(19,16,17,18)       -164.7928         estimate D2E/DX2                !
 ! D92   D(19,16,17,20)         15.4553         estimate D2E/DX2                !
 ! D93   D(7,16,19,21)         168.5242         estimate D2E/DX2                !
 ! D94   D(7,16,19,27)         -16.6624         estimate D2E/DX2                !
 ! D95   D(17,16,19,21)        -15.6            estimate D2E/DX2                !
 ! D96   D(17,16,19,27)        159.2135         estimate D2E/DX2                !
 ! D97   D(16,17,18,13)         -0.3913         estimate D2E/DX2                !
 ! D98   D(16,17,18,34)        179.0287         estimate D2E/DX2                !
 ! D99   D(20,17,18,13)        179.3603         estimate D2E/DX2                !
 ! D100  D(20,17,18,34)         -1.2197         estimate D2E/DX2                !
 ! D101  D(16,17,20,22)         -5.096          estimate D2E/DX2                !
 ! D102  D(16,17,20,45)        174.6836         estimate D2E/DX2                !
 ! D103  D(18,17,20,22)        175.1403         estimate D2E/DX2                !
 ! D104  D(18,17,20,45)         -5.0801         estimate D2E/DX2                !
 ! D105  D(16,19,21,22)          5.2762         estimate D2E/DX2                !
 ! D106  D(16,19,21,29)       -178.9488         estimate D2E/DX2                !
 ! D107  D(27,19,21,22)       -169.7486         estimate D2E/DX2                !
 ! D108  D(27,19,21,29)          6.0264         estimate D2E/DX2                !
 ! D109  D(16,19,27,28)       -179.251          estimate D2E/DX2                !
 ! D110  D(16,19,27,40)         -1.1816         estimate D2E/DX2                !
 ! D111  D(21,19,27,28)         -4.3427         estimate D2E/DX2                !
 ! D112  D(21,19,27,40)        173.7267         estimate D2E/DX2                !
 ! D113  D(17,20,22,21)         -5.7519         estimate D2E/DX2                !
 ! D114  D(17,20,22,44)        178.7785         estimate D2E/DX2                !
 ! D115  D(45,20,22,21)        174.4742         estimate D2E/DX2                !
 ! D116  D(45,20,22,44)         -0.9954         estimate D2E/DX2                !
 ! D117  D(19,21,22,20)          5.6978         estimate D2E/DX2                !
 ! D118  D(19,21,22,44)       -178.7419         estimate D2E/DX2                !
 ! D119  D(29,21,22,20)       -170.0265         estimate D2E/DX2                !
 ! D120  D(29,21,22,44)          5.5338         estimate D2E/DX2                !
 ! D121  D(19,21,29,30)         -3.4389         estimate D2E/DX2                !
 ! D122  D(19,21,29,43)        178.5652         estimate D2E/DX2                !
 ! D123  D(22,21,29,30)        172.2859         estimate D2E/DX2                !
 ! D124  D(22,21,29,43)         -5.7101         estimate D2E/DX2                !
 ! D125  D(6,23,26,25)          -0.9346         estimate D2E/DX2                !
 ! D126  D(6,23,26,39)         177.498          estimate D2E/DX2                !
 ! D127  D(46,23,26,25)       -162.4622         estimate D2E/DX2                !
 ! D128  D(46,23,26,39)         15.9704         estimate D2E/DX2                !
 ! D129  D(1,24,25,26)          -1.9848         estimate D2E/DX2                !
 ! D130  D(1,24,25,38)        -179.2023         estimate D2E/DX2                !
 ! D131  D(37,24,25,26)        176.0845         estimate D2E/DX2                !
 ! D132  D(37,24,25,38)         -1.133          estimate D2E/DX2                !
 ! D133  D(24,25,26,23)          4.8079         estimate D2E/DX2                !
 ! D134  D(24,25,26,39)       -173.6347         estimate D2E/DX2                !
 ! D135  D(38,25,26,23)       -177.9512         estimate D2E/DX2                !
 ! D136  D(38,25,26,39)          3.6062         estimate D2E/DX2                !
 ! D137  D(19,27,28,30)         -0.0682         estimate D2E/DX2                !
 ! D138  D(19,27,28,41)        179.5049         estimate D2E/DX2                !
 ! D139  D(40,27,28,30)       -178.0578         estimate D2E/DX2                !
 ! D140  D(40,27,28,41)          1.5154         estimate D2E/DX2                !
 ! D141  D(27,28,30,29)          2.8372         estimate D2E/DX2                !
 ! D142  D(27,28,30,42)       -179.1051         estimate D2E/DX2                !
 ! D143  D(41,28,30,29)       -176.7343         estimate D2E/DX2                !
 ! D144  D(41,28,30,42)          1.3234         estimate D2E/DX2                !
 ! D145  D(21,29,30,28)         -1.0513         estimate D2E/DX2                !
 ! D146  D(21,29,30,42)       -179.1086         estimate D2E/DX2                !
 ! D147  D(43,29,30,28)        176.9133         estimate D2E/DX2                !
 ! D148  D(43,29,30,42)         -1.144          estimate D2E/DX2                !
 --------------------------------------------------------------------------------
 Trust Radius=3.00D-01 FncErr=1.00D-07 GrdErr=1.00D-06 EigMax=2.50D+02 EigMin=1.00D-04
 Number of steps in this run=    282 maximum allowed number of steps=    282.
 Search for a saddle point of order  1.
 GradGradGradGradGradGradGradGradGradGradGradGradGradGradGradGradGradGrad

                          Input orientation:                          
 ---------------------------------------------------------------------
 Center     Atomic      Atomic             Coordinates (Angstroms)
 Number     Number       Type             X           Y           Z
 ---------------------------------------------------------------------
      1          6           0        1.776100    2.875600   -0.059700
      2          6           0        3.060300    2.370000    0.245400
      3          6           0        3.269000    0.990900    0.323300
      4          6           0        2.112400    0.207000    0.204400
      5          6           0        0.780000    0.613300   -0.013200
      6          6           0        0.616600    1.997300   -0.272100
      7          6           0       -0.032800   -0.663600   -0.080600
      8          6           0        2.206900   -1.189500    0.159700
      9          6           0        0.928600   -1.707300   -0.053200
     10          6           0        4.509000    0.251500    0.468300
     11          6           0        3.369600   -1.921800    0.238400
     12          6           0        4.563400   -1.124800    0.425700
     13          6           0        0.737600   -3.082200   -0.198200
     14          6           0        3.187500   -3.345100    0.088800
     15          6           0        1.935100   -3.889300   -0.122300
     16          6           0       -1.377400   -1.090200   -0.083600
     17          6           0       -1.617300   -2.498800   -0.388300
     18          6           0       -0.593800   -3.459000   -0.438900
     19          6           0       -2.535700   -0.276800    0.270200
     20          6           0       -2.969800   -2.920700   -0.654700
     21          6           0       -3.847600   -0.753500   -0.008600
     22          6           0       -4.023800   -2.080600   -0.532100
     23          6           0       -0.531000    2.631700   -0.798100
     24          6           0        1.601600    4.284300   -0.230900
     25          6           0        0.423400    4.824400   -0.670200
     26          6           0       -0.661100    3.966900   -1.011700
     27          6           0       -2.410500    0.932800    0.982800
     28          6           0       -3.518900    1.686700    1.325100
     29          6           0       -4.961600    0.046800    0.315400
     30          6           0       -4.804100    1.257200    0.963900
     31          1           0        5.526400   -1.615800    0.521800
     32          1           0        4.047200   -4.005700    0.132700
     33          1           0        1.845400   -4.964500   -0.239300
     34          1           0       -0.857200   -4.489200   -0.656800
     35          1           0        5.431400    0.808500    0.596700
     36          1           0        3.878600    3.072700    0.368900
     37          1           0        2.451400    4.928200   -0.030100
     38          1           0        0.323900    5.895900   -0.803000
     39          1           0       -1.562300    4.375000   -1.457700
     40          1           0       -1.068260    1.334690    1.381810
     41          1           0       -3.390200    2.608600    1.880500
     42          1           0       -5.671100    1.855900    1.219900
     43          1           0       -5.954200   -0.320000    0.075300
     44          1           0       -5.029200   -2.419600   -0.758100
     45          1           0       -3.123500   -3.948700   -0.965700
     46          1           0       -1.236250    2.064060   -1.337720
     47          1           0       -0.268280    1.365140    1.698990
 ---------------------------------------------------------------------
                    Distance matrix (angstroms):
                    1          2          3          4          5
     1  C    0.000000
     2  C    1.413466   0.000000
     3  C    2.434653   1.396976   0.000000
     4  C    2.702642   2.361941   1.402270   0.000000
     5  C    2.472323   2.890093   2.539869   1.409865   0.000000
     6  C    1.470022   2.525546   2.898718   2.381101   1.417457
     7  C    3.974732   4.344683   3.715157   2.332606   1.515144
     8  C    4.093747   3.661376   2.430836   1.400407   2.305651
     9  C    4.660608   4.610605   3.591588   2.265455   2.325697
    10  C    3.825366   2.576132   1.450978   2.411496   3.777325
    11  C    5.063907   4.302937   2.915673   2.472549   3.632639
    12  C    4.899781   3.808601   2.482367   2.798225   4.186614
    13  C    6.049219   5.942912   4.823908   3.587617   3.700371
    14  C    6.380534   5.718660   4.343101   3.713034   4.634155
    15  C    6.767058   6.370252   5.078799   4.113130   4.649684
    16  C    5.066824   5.636879   5.107404   3.734217   2.749771
    17  C    6.364536   6.781352   6.046512   4.645784   3.946253
    18  C    6.774022   6.913606   5.941699   4.601838   4.318816
    19  C    5.351456   6.190427   5.941753   4.673674   3.444773
    20  C    7.514964   8.072409   7.428306   6.029039   5.192464
    21  C    6.693204   7.585503   7.334786   6.040656   4.825230
    22  C    7.643685   8.402191   7.959319   6.590030   5.531984
    23  C    2.434632   3.748975   4.288329   3.724478   2.531546
    24  C    1.429754   2.453408   3.732806   4.132164   3.768111
    25  C    2.449557   3.716940   4.876495   4.993799   4.276935
    26  C    2.834993   4.240190   5.107297   4.827841   3.784231
    27  C    4.731691   5.704293   5.717957   4.646431   3.357586
    28  C    5.600730   6.702128   6.896617   5.929336   4.628582
    29  C    7.317063   8.351828   8.284574   7.076684   5.778830
    30  C    6.853175   7.975171   8.102853   7.036884   5.705393
    31  H    5.880099   4.695173   3.454004   3.883135   5.270998
    32  H    7.248945   6.452614   5.060428   4.636317   5.659597
    33  H    7.842463   7.450222   6.148979   5.197362   5.683137
    34  H    7.844175   7.950434   6.929475   5.622676   5.397236
    35  H    4.250292   2.860736   2.187234   3.395801   4.695275
    36  H    2.154774   1.085659   2.169696   3.370276   3.974415
    37  H    2.161035   2.644059   4.036792   4.739160   4.627335
    38  H    3.432724   4.584648   5.831054   6.047906   5.360753
    39  H    3.917591   5.318741   6.161619   5.799847   4.660830
    40  H    3.541573   4.405485   4.477774   3.574154   2.425391
    41  H    5.525063   6.658786   7.027572   6.233426   4.995787
    42  H    7.624825   8.800642   9.026489   8.020784   6.684406
    43  H    8.365861   9.408839   9.319194   8.084827   6.799142
    44  H    8.650954   9.454485   9.036651   7.669934   6.595465
    45  H    8.449733   8.923683   8.180784   6.786282   6.079179
    46  H    3.371377   4.589140   4.920156   4.127985   2.815017
    47  H    3.090950   3.768569   3.813781   3.040185   2.143770
                    6          7          8          9         10
     6  C    0.000000
     7  C    2.745684   0.000000
     8  C    3.587645   2.313130   0.000000
     9  C    3.724154   1.419278   1.395526   0.000000
    10  C    4.329756   4.665474   2.733382   4.114380   0.000000
    11  C    4.816530   3.641587   1.376346   2.467696   2.464613
    12  C    5.080518   4.646945   2.372348   3.712199   1.378033
    13  C    5.081478   2.541057   2.422653   1.395656   5.077523
    14  C    5.939782   4.193980   2.369222   2.793776   3.850443
    15  C    6.034314   3.778824   2.728061   2.403943   4.911211
    16  C    3.680248   1.410654   3.593920   2.387336   6.062545
    17  C    5.021825   2.444029   4.079102   2.687075   6.769746
    18  C    5.591431   2.873562   3.654158   2.352641   6.374119
    19  C    3.924617   2.556792   4.830889   3.761953   7.067258
    20  C    6.098801   3.748341   5.518924   4.126944   8.201002
    21  C    5.250278   3.816538   6.072511   4.870709   8.430316
    22  C    6.183056   4.259087   6.332004   4.989485   8.902144
    23  C    1.412843   3.409107   4.797400   4.638128   5.715831
    24  C    2.490440   5.213019   5.521000   6.031897   5.020491
    25  C    2.861521   5.538401   6.327448   6.580199   6.236964
    26  C    2.461473   4.764792   6.015485   5.970127   6.536400
    27  C    3.445471   3.054958   5.148013   4.380983   6.971970
    28  C    4.444084   4.433147   6.512716   5.761875   8.200066
    29  C    5.938512   4.995453   7.275993   6.156881   9.474046
    30  C    5.608871   5.248405   7.469083   6.533498   9.380346
    31  H    6.147431   5.672237   3.366293   4.634519   2.127152
    32  H    6.925958   5.278402   3.364285   3.878514   4.295304
    33  H    7.069490   4.695803   3.813202   3.388880   5.899332
    34  H    6.662939   3.955611   4.576396   3.360414   7.248185
    35  H    5.034914   5.699412   3.818425   5.198733   1.085153
    36  H    3.493996   5.427802   4.583088   5.632856   2.892482
    37  H    3.466299   6.118989   6.125525   6.808033   5.133580
    38  H    3.945454   6.608792   7.394280   7.663975   7.140764
    39  H    3.436089   5.442726   6.912779   6.720980   7.587715
    40  H    2.452187   2.684024   4.311816   3.911573   5.754444
    41  H    4.589316   5.081864   6.979559   6.404547   8.363468
    42  H    6.463840   6.311070   8.512424   7.607445  10.333123
    43  H    6.976101   5.933409   8.207722   7.022396  10.486163
    44  H    7.184724   5.339153   7.397070   6.041493   9.980786
    45  H    7.058636   4.596489   6.106789   4.719750   8.829105
    46  H    2.138470   3.235548   4.968219   4.534283   6.289275
    47  H    2.251185   2.708907   3.875837   3.733976   5.057390
                   11         12         13         14         15
    11  C    0.000000
    12  C    1.447566   0.000000
    13  C    2.909394   4.342512   0.000000
    14  C    1.442679   2.633692   2.480624   0.000000
    15  C    2.461494   3.853664   1.446090   1.381746   0.000000
    16  C    4.830036   5.962691   2.907649   5.094370   4.336948
    17  C    5.059136   6.383692   2.433526   4.902035   3.824107
    18  C    4.304679   5.726494   1.404472   3.819643   2.584711
    19  C    6.130221   7.151259   4.336376   6.496337   5.761273
    20  C    6.479461   7.819311   3.738889   6.216530   5.027890
    21  C    7.315320   8.430386   5.146149   7.497900   6.579194
    22  C    7.435136   8.693155   4.877051   7.347607   6.240819
    23  C    6.084684   6.446851   5.883696   7.094785   7.004413
    24  C    6.470065   6.201753   7.417067   7.799040   8.181122
    25  C    7.417335   7.330319   7.926905   8.657775   8.860813
    26  C    7.244728   7.435518   7.232424   8.335956   8.321729
    27  C    6.489409   7.292418   5.236938   7.101920   6.584689
    28  C    7.851982   8.604477   6.571198   8.474860   7.933023
    29  C    8.560970   9.597418   6.521910   8.829732   7.952920
    30  C    8.800100   9.680581   7.133814   9.263511   8.548866
    31  H    2.196756   1.085212   5.059776   2.940820   4.298965
    32  H    2.193844   2.941411   3.451927   1.085082   2.130620
    33  H    3.436482   4.751110   2.184482   2.128694   1.085260
    34  H    5.025810   6.471004   2.175626   4.269014   2.905600
    35  H    3.440049   2.126103   6.148266   4.748204   5.900034
    36  H    5.022065   4.253373   6.933273   6.460978   7.244854
    37  H    6.916479   6.427060   8.193404   8.306833   8.833084
    38  H    8.454421   8.292966   9.007953   9.715534   9.940295
    39  H    8.176190   8.445069   7.904790   9.195227   9.072693
    40  H    5.621985   6.219231   5.026577   6.456299   6.210684
    41  H    8.301561   8.905867   7.331093   9.051125   8.636708
    42  H    9.847264  10.689262   8.213847  10.334630   9.626168
    43  H    9.461797  10.554165   7.244635   9.629231   8.661409
    44  H    8.472347   9.751711   5.831681   8.311916   7.146029
    45  H    6.907860   8.306554   4.030877   6.426898   5.128770
    46  H    6.291668   6.849410   5.628373   7.131868   6.853992
    47  H    5.115806   5.582670   4.938619   6.059826   5.981732
                   16         17         18         19         20
    16  C    0.000000
    17  C    1.461009   0.000000
    18  C    2.520214   1.404314   0.000000
    19  C    1.458922   2.492863   3.794759   0.000000
    20  C    2.492513   1.441605   2.445754   2.834447   0.000000
    21  C    2.494169   2.857356   4.253481   1.423395   2.425847
    22  C    2.861027   2.446796   3.697779   2.472210   1.353409
    23  C    3.883226   5.260229   6.101606   3.690455   6.066091
    24  C    6.146657   7.509763   8.051195   6.178348   8.543379
    25  C    6.210433   7.607443   8.348827   5.971839   8.455804
    26  C    5.191215   6.565685   7.448263   4.813147   7.273003
    27  C    2.509389   3.779545   4.960800   1.409470   4.224179
    28  C    3.779105   4.906142   6.176256   2.436150   5.044725
    29  C    3.781330   4.261410   5.651308   2.447805   3.703298
    30  C    4.283669   5.108001   6.475880   2.824892   4.841422
    31  H    6.950196   7.255372   6.463527   8.176410   8.675963
    32  H    6.162241   5.884620   4.707918   7.566913   7.143914
    33  H    5.041913   4.253489   2.873337   6.436471   5.247459
    34  H    3.486025   2.147449   1.085436   4.628283   2.631212
    35  H    7.101241   7.848097   7.455673   8.047308   9.276481
    36  H    6.720121   7.862562   7.957261   7.236860   9.158012
    37  H    7.133282   8.476022   8.932272   7.214802   9.559538
    38  H    7.226171   8.626194   9.406854   6.887038   9.412911
    39  H    5.638329   6.956707   7.959114   5.056915   7.473493
    40  H    2.850103   4.257978   5.149715   2.446622   5.086410
    41  H    4.646523   5.863119   7.072145   3.413029   6.097305
    42  H    5.367912   6.163036   7.535168   3.909101   5.798884
    43  H    4.643873   4.875530   6.233106   3.424324   4.025318
    44  H    3.944350   3.432796   4.566729   3.444784   2.122009
    45  H    3.463811   2.168926   2.629963   3.918649   1.084956
    46  H    3.397366   4.676140   5.632478   3.123076   5.321611
    47  H    3.230552   4.594199   5.286668   3.143024   5.586277
                   21         22         23         24         25
    21  C    0.000000
    22  C    1.437461   0.000000
    23  C    4.804448   5.871642   0.000000
    24  C    7.424461   8.499871   2.756952   0.000000
    25  C    7.056353   8.214358   2.394822   1.368520   0.000000
    26  C    5.782920   6.936139   1.358422   2.414581   1.424103
    27  C    2.427290   3.738748   3.096835   5.366802   5.089985
    28  C    2.800246   4.230445   3.785307   5.948797   5.419235
    29  C    1.409416   2.474582   5.248981   7.831376   7.266023
    30  C    2.429725   3.740026   4.822165   7.184976   6.536203
    31  H    9.428508   9.619411   7.515017   7.126134   8.302870
    32  H    8.539592   8.324002   8.116735   8.650853   9.578478
    33  H    7.084913   6.546000   7.978834   9.252017   9.901026
    34  H    4.828883   3.980485   7.129768   9.121480   9.401237
    35  H    9.429002   9.950975   6.389033   5.237698   6.543130
    36  H    8.629976   9.477142   4.582678   2.648106   4.010809
    37  H    8.482899   9.555286   3.841672   1.084937   2.129152
    38  H    7.889677   9.088478   3.374297   2.134730   1.084273
    39  H    5.798620   6.970688   2.130199   3.394632   2.182916
    40  H    3.744130   4.905352   2.592854   4.292923   4.314380
    41  H    3.883507   5.311373   3.917966   5.673099   5.095035
    42  H    3.412233   4.612931   5.576273   7.803468   7.037571
    43  H    2.152377   2.682367   6.235901   8.853443   8.227661
    44  H    2.175734   1.084816   6.763951   9.443925   9.067200
    45  H    3.413160   2.118572   7.074660   9.520966   9.467582
    46  H    4.065016   5.059414   1.053937   3.769338   3.289301
    47  H    4.496224   5.563705   2.812233   3.967672   4.249466
                   26         27         28         29         30
    26  C    0.000000
    27  C    4.030409   0.000000
    28  C    4.339005   1.383505   0.000000
    29  C    5.968474   2.781821   2.406273   0.000000
    30  C    5.330096   2.415557   1.402382   1.382182   0.000000
    31  H    8.473684   8.348788   9.662776  10.620969  10.731673
    32  H    9.329528   8.173943   9.543118   9.880011  10.331240
    33  H    9.308547   7.374575   8.686859   8.470895   9.185483
    34  H    8.465816   5.873595   7.011014   6.194075   7.157220
    35  H    7.048475   7.852383   9.022731  10.424671  10.251908
    36  H    4.828512   6.671493   7.586720   9.343879   8.890407
    37  H    3.402248   6.373952   6.927364   8.882567   8.191859
    38  H    2.175965   5.941245   6.083855   7.962368   7.136936
    39  H    1.085183   4.303978   4.335806   5.782079   5.108238
    40  H    3.580949   1.456823   2.476442   4.237215   3.759941
    41  H    4.202117   2.138687   1.083943   3.388459   2.159989
    42  H    5.876773   3.397034   2.161402   2.143444   1.084282
    43  H    6.897535   3.866636   3.394043   1.085101   2.144738
    44  H    7.741576   4.596402   4.845867   2.690744   4.066302
    45  H    8.289889   5.304155   6.096051   4.580813   5.800790
    46  H    2.014420   2.836093   3.527535   4.547568   4.321809
    47  H    3.777738   2.299772   3.287815   5.067504   4.596267
                   31         32         33         34         35
    31  H    0.000000
    32  H    2.837438   0.000000
    33  H    5.034166   2.430145   0.000000
    34  H    7.099005   4.991014   2.775655   0.000000
    35  H    2.427317   5.030689   6.847322   8.317655   0.000000
    36  H    4.971987   7.084346   8.312665   8.981213   2.754938
    37  H    7.251493   9.076764   9.913451  10.001350   5.123008
    38  H    9.232916  10.619801  10.980938  10.453070   7.343525
    39  H    9.489877  10.209407  10.016146   8.928194   8.114944
    40  H    7.275613   7.499865   7.127216   6.173992   6.568017
    41  H    9.959788  10.105379   9.447587   7.951902   9.094456
    42  H   11.744107  11.401128  10.254018   8.182660  11.169196
    43  H   11.562121  10.659066   9.083178   6.625527  11.453264
    44  H   10.663251   9.256904   7.348863   4.658228  11.030878
    45  H    9.081621   7.254562   5.123424   2.350250   9.912535
    46  H    7.920393   8.180401   7.752661   6.599435   7.055209
    47  H    6.621940   7.065589   6.949025   6.337971   5.831916
                   36         37         38         39         40
    36  H    0.000000
    37  H    2.374654   0.000000
    38  H    4.688251   2.461722   0.000000
    39  H    5.885223   4.295796   2.509884   0.000000
    40  H    5.340233   5.224444   5.245583   4.189317   0.000000
    41  H    7.438802   6.569264   5.639331   4.195827   2.694985
    42  H    9.664449   8.773627   7.506913   5.513406   4.635085
    43  H   10.405795   9.910037   8.878252   6.609228   5.321407
    44  H   10.525416  10.510924   9.889653   7.659989   5.861992
    45  H   10.005529  10.523983  10.432027   8.483124   6.135880
    46  H    5.485581   4.848910   4.171689   2.336910   2.820646
    47  H    4.677768   4.804353   5.209455   4.549553   0.861103
                   41         42         43         44         45
    41  H    0.000000
    42  H    2.491075   0.000000
    43  H    4.290634   2.474832   0.000000
    44  H    5.910273   4.754411   2.441004   0.000000
    45  H    7.153333   6.705259   4.718475   2.452129   0.000000
    46  H    3.910622   5.123734   5.471693   5.901325   6.312954
    47  H    3.365341   5.446176   6.148638   6.559566   6.594676
                   46         47
    46  H    0.000000
    47  H    3.262984   0.000000
 Stoichiometry    C30H17(2)
 Framework group  C1[X(C30H17)]
 Deg. of freedom   135
 Full point group                 C1      NOp   1
 Largest Abelian subgroup         C1      NOp   1
 Largest concise Abelian subgroup C1      NOp   1
                         Standard orientation:                         
 ---------------------------------------------------------------------
 Center     Atomic      Atomic             Coordinates (Angstroms)
 Number     Number       Type             X           Y           Z
 ---------------------------------------------------------------------
      1          6           0        1.791428    2.857267   -0.088265
      2          6           0        3.069639    2.340825    0.223746
      3          6           0        3.264724    0.960182    0.309225
      4          6           0        2.101003    0.186901    0.190267
      5          6           0        0.773339    0.604953   -0.033916
      6          6           0        0.624210    1.989152   -0.300261
      7          6           0       -0.051543   -0.664360   -0.097742
      8          6           0        2.182140   -1.210653    0.152844
      9          6           0        0.899617   -1.717145   -0.061853
     10          6           0        4.497017    0.209578    0.462151
     11          6           0        3.337429   -1.953743    0.239171
     12          6           0        4.538244   -1.167380    0.426590
     13          6           0        0.695817   -3.090846   -0.200660
     14          6           0        3.142076   -3.375950    0.096036
     15          6           0        1.885190   -3.909082   -0.116641
     16          6           0       -1.400189   -1.077966   -0.103224
     17          6           0       -1.652674   -2.485693   -0.401728
     18          6           0       -0.638345   -3.455973   -0.444041
     19          6           0       -2.551755   -0.251656    0.242552
     20          6           0       -3.008284   -2.895842   -0.670656
     21          6           0       -3.867256   -0.717056   -0.038364
     22          6           0       -4.054516   -2.044999   -0.555851
     23          6           0       -0.515416    2.631960   -0.833341
     24          6           0        1.631143    4.266711   -0.267072
     25          6           0        0.459713    4.815955   -0.713089
     26          6           0       -0.631872    3.967267   -1.054029
     27          6           0       -2.417267    0.960235    0.949546
     28          6           0       -3.519472    1.726509    1.284290
     29          6           0       -4.974550    0.095578    0.277830
     30          6           0       -4.807539    1.307635    0.920832
     31          1           0        5.496119   -1.667168    0.528431
     32          1           0        3.995192   -4.044593    0.146169
     33          1           0        1.785489   -4.983938   -0.228594
     34          1           0       -0.910961   -4.484660   -0.657711
     35          1           0        5.424323    0.758281    0.590936
     36          1           0        3.894277    3.036200    0.346549
     37          1           0        2.486449    4.903373   -0.066570
     38          1           0        0.371032    5.887687   -0.851562
     39          1           0       -1.527571    4.381810   -1.505140
     40          1           0       -1.072557    1.351139    1.351146
     41          1           0       -3.383736    2.649895    1.835531
     42          1           0       -5.669567    1.915955    1.170876
     43          1           0       -5.969835   -0.262819    0.036160
     44          1           0       -5.062380   -2.375403   -0.783604
     45          1           0       -3.170871   -3.923855   -0.977059
     46          1           0       -1.224298    2.068460   -1.372541
     47          1           0       -0.273396    1.375451    1.670909
 ---------------------------------------------------------------------
 Rotational constants (GHZ):           0.2185017           0.1686668           0.0993723
 Standard basis: 6-311+G(d,p) (5D, 7F)
 There are   792 symmetry adapted cartesian basis functions of A   symmetry.
 There are   762 symmetry adapted basis functions of A   symmetry.
   762 basis functions,  1216 primitive gaussians,   792 cartesian basis functions
    99 alpha electrons       98 beta electrons
       nuclear repulsion energy      2607.9143604421 Hartrees.
 NAtoms=   47 NActive=   47 NUniq=   47 SFac= 1.00D+00 NAtFMM=   60 NAOKFM=F Big=F
 Integral buffers will be    131072 words long.
 Raffenetti 2 integral format.
 Two-electron integral symmetry is turned on.
 One-electron integrals computed using PRISM.
 NBasis=   762 RedAO= T EigKep=  1.16D-06  NBF=   762
 NBsUse=   741 1.00D-06 EigRej=  8.85D-07 NBFU=   741
 ExpMin= 4.38D-02 ExpMax= 4.56D+03 ExpMxC= 6.82D+02 IAcc=2 IRadAn=         4 AccDes= 0.00D+00
 Harris functional with IExCor=  402 and IRadAn=       4 diagonalized for initial guess.
 HarFok:  IExCor=  402 AccDes= 0.00D+00 IRadAn=         4 IDoV= 1 UseB2=F ITyADJ=14
 ICtDFT=  3500011 ScaDFX=  1.000000  1.000000  1.000000  1.000000
 FoFCou: FMM=F IPFlag=           0 FMFlag=      100000 FMFlg1=           0
         NFxFlg=           0 DoJE=T BraDBF=F KetDBF=T FulRan=T
         wScrn=  0.000000 ICntrl=       500 IOpCl=  0 I1Cent=   200000004 NGrid=           0
         NMat0=    1 NMatS0=      1 NMatT0=    0 NMatD0=    1 NMtDS0=    0 NMtDT0=    0
 Petite list used in FoFCou.
 Initial guess <Sx>= 0.0000 <Sy>= 0.0000 <Sz>= 0.5000 <S**2>= 0.7500 S= 0.5000
 Requested convergence on RMS density matrix=1.00D-08 within  32 cycles.
 Requested convergence on MAX density matrix=1.00D-06.
 Requested convergence on             energy=1.00D-06.
 No special actions if energy rises.
 Restarting incremental Fock formation.
 SCF Done:  E(UB3LYP) =  -1153.59065209     A.U. after   24 cycles
            NFock= 24  Conv=0.50D-08     -V/T= 2.0044
 <Sx>= 0.0000 <Sy>= 0.0000 <Sz>= 0.5000 <S**2>= 0.7634 S= 0.5067
 <L.S>=  0.00000000000    
 Annihilation of the first spin contaminant:
 S**2 before annihilation     0.7634,   after     0.7501
 QCSCF skips out because SCF is already converged.

 **********************************************************************

            Population analysis using the SCF density.

 **********************************************************************

 Orbital symmetries:
 Alpha Orbitals:
       Occupied  (A) (A) (A) (A) (A) (A) (A) (A) (A) (A) (A) (A)
                 (A) (A) (A) (A) (A) (A) (A) (A) (A) (A) (A) (A)
                 (A) (A) (A) (A) (A) (A) (A) (A) (A) (A) (A) (A)
                 (A) (A) (A) (A) (A) (A) (A) (A) (A) (A) (A) (A)
                 (A) (A) (A) (A) (A) (A) (A) (A) (A) (A) (A) (A)
                 (A) (A) (A) (A) (A) (A) (A) (A) (A) (A) (A) (A)
                 (A) (A) (A) (A) (A) (A) (A) (A) (A) (A) (A) (A)
                 (A) (A) (A) (A) (A) (A) (A) (A) (A) (A) (A) (A)
                 (A) (A) (A)
       Virtual   (A) (A) (A) (A) (A) (A) (A) (A) (A) (A) (A) (A)
                 (A) (A) (A) (A) (A) (A) (A) (A) (A) (A) (A) (A)
                 (A) (A) (A) (A) (A) (A) (A) (A) (A) (A) (A) (A)
                 (A) (A) (A) (A) (A) (A) (A) (A) (A) (A) (A) (A)
                 (A) (A) (A) (A) (A) (A) (A) (A) (A) (A) (A) (A)
                 (A) (A) (A) (A) (A) (A) (A) (A) (A) (A) (A) (A)
                 (A) (A) (A) (A) (A) (A) (A) (A) (A) (A) (A) (A)
                 (A) (A) (A) (A) (A) (A) (A) (A) (A) (A) (A) (A)
                 (A) (A) (A) (A) (A) (A) (A) (A) (A) (A) (A) (A)
                 (A) (A) (A) (A) (A) (A) (A) (A) (A) (A) (A) (A)
                 (A) (A) (A) (A) (A) (A) (A) (A) (A) (A) (A) (A)
                 (A) (A) (A) (A) (A) (A) (A) (A) (A) (A) (A) (A)
                 (A) (A) (A) (A) (A) (A) (A) (A) (A) (A) (A) (A)
                 (A) (A) (A) (A) (A) (A) (A) (A) (A) (A) (A) (A)
                 (A) (A) (A) (A) (A) (A) (A) (A) (A) (A) (A) (A)
                 (A) (A) (A) (A) (A) (A) (A) (A) (A) (A) (A) (A)
                 (A) (A) (A) (A) (A) (A) (A) (A) (A) (A) (A) (A)
                 (A) (A) (A) (A) (A) (A) (A) (A) (A) (A) (A) (A)
                 (A) (A) (A) (A) (A) (A) (A) (A) (A) (A) (A) (A)
                 (A) (A) (A) (A) (A) (A) (A) (A) (A) (A) (A) (A)
                 (A) (A) (A) (A) (A) (A) (A) (A) (A) (A) (A) (A)
                 (A) (A) (A) (A) (A) (A) (A) (A) (A) (A) (A) (A)
                 (A) (A) (A) (A) (A) (A) (A) (A) (A) (A) (A) (A)
                 (A) (A) (A) (A) (A) (A) (A) (A) (A) (A) (A) (A)
                 (A) (A) (A) (A) (A) (A) (A) (A) (A) (A) (A) (A)
                 (A) (A) (A) (A) (A) (A) (A) (A) (A) (A) (A) (A)
                 (A) (A) (A) (A) (A) (A) (A) (A) (A) (A) (A) (A)
                 (A) (A) (A) (A) (A) (A) (A) (A) (A) (A) (A) (A)
                 (A) (A) (A) (A) (A) (A) (A) (A) (A) (A) (A) (A)
                 (A) (A) (A) (A) (A) (A) (A) (A) (A) (A) (A) (A)
                 (A) (A) (A) (A) (A) (A) (A) (A) (A) (A) (A) (A)
                 (A) (A) (A) (A) (A) (A) (A) (A) (A) (A) (A) (A)
                 (A) (A) (A) (A) (A) (A) (A) (A) (A) (A) (A) (A)
                 (A) (A) (A) (A) (A) (A) (A) (A) (A) (A) (A) (A)
                 (A) (A) (A) (A) (A) (A) (A) (A) (A) (A) (A) (A)
                 (A) (A) (A) (A) (A) (A) (A) (A) (A) (A) (A) (A)
                 (A) (A) (A) (A) (A) (A) (A) (A) (A) (A) (A) (A)
                 (A) (A) (A) (A) (A) (A) (A) (A) (A) (A) (A) (A)
                 (A) (A) (A) (A) (A) (A) (A) (A) (A) (A) (A) (A)
                 (A) (A) (A) (A) (A) (A) (A) (A) (A) (A) (A) (A)
                 (A) (A) (A) (A) (A) (A) (A) (A) (A) (A) (A) (A)
                 (A) (A) (A) (A) (A) (A) (A) (A) (A) (A) (A) (A)
                 (A) (A) (A) (A) (A) (A) (A) (A) (A) (A) (A) (A)
                 (A) (A) (A) (A) (A) (A) (A) (A) (A) (A) (A) (A)
                 (A) (A) (A) (A) (A) (A) (A) (A) (A) (A) (A) (A)
                 (A) (A) (A) (A) (A) (A) (A) (A) (A) (A) (A) (A)
                 (A) (A) (A) (A) (A) (A) (A) (A) (A) (A) (A) (A)
                 (A) (A) (A) (A) (A) (A) (A) (A) (A) (A) (A) (A)
                 (A) (A) (A) (A) (A) (A) (A) (A) (A) (A) (A) (A)
                 (A) (A) (A) (A) (A) (A) (A) (A) (A) (A) (A) (A)
                 (A) (A) (A) (A) (A) (A) (A) (A) (A) (A) (A) (A)
                 (A) (A) (A) (A) (A) (A) (A) (A) (A) (A) (A) (A)
                 (A) (A) (A) (A) (A) (A) (A) (A) (A) (A) (A) (A)
                 (A) (A) (A) (A) (A) (A)
 Beta  Orbitals:
       Occupied  (A) (A) (A) (A) (A) (A) (A) (A) (A) (A) (A) (A)
                 (A) (A) (A) (A) (A) (A) (A) (A) (A) (A) (A) (A)
                 (A) (A) (A) (A) (A) (A) (A) (A) (A) (A) (A) (A)
                 (A) (A) (A) (A) (A) (A) (A) (A) (A) (A) (A) (A)
                 (A) (A) (A) (A) (A) (A) (A) (A) (A) (A) (A) (A)
                 (A) (A) (A) (A) (A) (A) (A) (A) (A) (A) (A) (A)
                 (A) (A) (A) (A) (A) (A) (A) (A) (A) (A) (A) (A)
                 (A) (A) (A) (A) (A) (A) (A) (A) (A) (A) (A) (A)
                 (A) (A)
       Virtual   (A) (A) (A) (A) (A) (A) (A) (A) (A) (A) (A) (A)
                 (A) (A) (A) (A) (A) (A) (A) (A) (A) (A) (A) (A)
                 (A) (A) (A) (A) (A) (A) (A) (A) (A) (A) (A) (A)
                 (A) (A) (A) (A) (A) (A) (A) (A) (A) (A) (A) (A)
                 (A) (A) (A) (A) (A) (A) (A) (A) (A) (A) (A) (A)
                 (A) (A) (A) (A) (A) (A) (A) (A) (A) (A) (A) (A)
                 (A) (A) (A) (A) (A) (A) (A) (A) (A) (A) (A) (A)
                 (A) (A) (A) (A) (A) (A) (A) (A) (A) (A) (A) (A)
                 (A) (A) (A) (A) (A) (A) (A) (A) (A) (A) (A) (A)
                 (A) (A) (A) (A) (A) (A) (A) (A) (A) (A) (A) (A)
                 (A) (A) (A) (A) (A) (A) (A) (A) (A) (A) (A) (A)
                 (A) (A) (A) (A) (A) (A) (A) (A) (A) (A) (A) (A)
                 (A) (A) (A) (A) (A) (A) (A) (A) (A) (A) (A) (A)
                 (A) (A) (A) (A) (A) (A) (A) (A) (A) (A) (A) (A)
                 (A) (A) (A) (A) (A) (A) (A) (A) (A) (A) (A) (A)
                 (A) (A) (A) (A) (A) (A) (A) (A) (A) (A) (A) (A)
                 (A) (A) (A) (A) (A) (A) (A) (A) (A) (A) (A) (A)
                 (A) (A) (A) (A) (A) (A) (A) (A) (A) (A) (A) (A)
                 (A) (A) (A) (A) (A) (A) (A) (A) (A) (A) (A) (A)
                 (A) (A) (A) (A) (A) (A) (A) (A) (A) (A) (A) (A)
                 (A) (A) (A) (A) (A) (A) (A) (A) (A) (A) (A) (A)
                 (A) (A) (A) (A) (A) (A) (A) (A) (A) (A) (A) (A)
                 (A) (A) (A) (A) (A) (A) (A) (A) (A) (A) (A) (A)
                 (A) (A) (A) (A) (A) (A) (A) (A) (A) (A) (A) (A)
                 (A) (A) (A) (A) (A) (A) (A) (A) (A) (A) (A) (A)
                 (A) (A) (A) (A) (A) (A) (A) (A) (A) (A) (A) (A)
                 (A) (A) (A) (A) (A) (A) (A) (A) (A) (A) (A) (A)
                 (A) (A) (A) (A) (A) (A) (A) (A) (A) (A) (A) (A)
                 (A) (A) (A) (A) (A) (A) (A) (A) (A) (A) (A) (A)
                 (A) (A) (A) (A) (A) (A) (A) (A) (A) (A) (A) (A)
                 (A) (A) (A) (A) (A) (A) (A) (A) (A) (A) (A) (A)
                 (A) (A) (A) (A) (A) (A) (A) (A) (A) (A) (A) (A)
                 (A) (A) (A) (A) (A) (A) (A) (A) (A) (A) (A) (A)
                 (A) (A) (A) (A) (A) (A) (A) (A) (A) (A) (A) (A)
                 (A) (A) (A) (A) (A) (A) (A) (A) (A) (A) (A) (A)
                 (A) (A) (A) (A) (A) (A) (A) (A) (A) (A) (A) (A)
                 (A) (A) (A) (A) (A) (A) (A) (A) (A) (A) (A) (A)
                 (A) (A) (A) (A) (A) (A) (A) (A) (A) (A) (A) (A)
                 (A) (A) (A) (A) (A) (A) (A) (A) (A) (A) (A) (A)
                 (A) (A) (A) (A) (A) (A) (A) (A) (A) (A) (A) (A)
                 (A) (A) (A) (A) (A) (A) (A) (A) (A) (A) (A) (A)
                 (A) (A) (A) (A) (A) (A) (A) (A) (A) (A) (A) (A)
                 (A) (A) (A) (A) (A) (A) (A) (A) (A) (A) (A) (A)
                 (A) (A) (A) (A) (A) (A) (A) (A) (A) (A) (A) (A)
                 (A) (A) (A) (A) (A) (A) (A) (A) (A) (A) (A) (A)
                 (A) (A) (A) (A) (A) (A) (A) (A) (A) (A) (A) (A)
                 (A) (A) (A) (A) (A) (A) (A) (A) (A) (A) (A) (A)
                 (A) (A) (A) (A) (A) (A) (A) (A) (A) (A) (A) (A)
                 (A) (A) (A) (A) (A) (A) (A) (A) (A) (A) (A) (A)
                 (A) (A) (A) (A) (A) (A) (A) (A) (A) (A) (A) (A)
                 (A) (A) (A) (A) (A) (A) (A) (A) (A) (A) (A) (A)
                 (A) (A) (A) (A) (A) (A) (A) (A) (A) (A) (A) (A)
                 (A) (A) (A) (A) (A) (A) (A) (A) (A) (A) (A) (A)
                 (A) (A) (A) (A) (A) (A) (A)
 The electronic state is 2-A.
 Alpha  occ. eigenvalues --  -10.20799 -10.20096 -10.19963 -10.19832 -10.19785
 Alpha  occ. eigenvalues --  -10.19702 -10.19693 -10.19681 -10.19585 -10.19387
 Alpha  occ. eigenvalues --  -10.19344 -10.19246 -10.19225 -10.19206 -10.19164
 Alpha  occ. eigenvalues --  -10.19158 -10.19080 -10.18999 -10.18400 -10.18345
 Alpha  occ. eigenvalues --  -10.18335 -10.18173 -10.18146 -10.18092 -10.18022
 Alpha  occ. eigenvalues --  -10.17909 -10.17279 -10.17106 -10.16985 -10.16788
 Alpha  occ. eigenvalues --   -0.92100  -0.88942  -0.87729  -0.85701  -0.83931
 Alpha  occ. eigenvalues --   -0.83192  -0.80677  -0.79394  -0.77950  -0.77307
 Alpha  occ. eigenvalues --   -0.75419  -0.74535  -0.72723  -0.71766  -0.71516
 Alpha  occ. eigenvalues --   -0.66867  -0.64889  -0.63907  -0.63323  -0.62041
 Alpha  occ. eigenvalues --   -0.60436  -0.59422  -0.58750  -0.56963  -0.55944
 Alpha  occ. eigenvalues --   -0.53322  -0.52377  -0.51861  -0.51407  -0.49701
 Alpha  occ. eigenvalues --   -0.48890  -0.48038  -0.47816  -0.47189  -0.46004
 Alpha  occ. eigenvalues --   -0.45268  -0.44715  -0.43958  -0.43873  -0.43085
 Alpha  occ. eigenvalues --   -0.42775  -0.42359  -0.41849  -0.40848  -0.40752
 Alpha  occ. eigenvalues --   -0.40452  -0.40166  -0.39378  -0.39115  -0.37927
 Alpha  occ. eigenvalues --   -0.37142  -0.36862  -0.35550  -0.35156  -0.34820
 Alpha  occ. eigenvalues --   -0.34308  -0.33727  -0.33292  -0.33014  -0.31205
 Alpha  occ. eigenvalues --   -0.29946  -0.28214  -0.27336  -0.25845  -0.24861
 Alpha  occ. eigenvalues --   -0.22876  -0.22487  -0.21094  -0.19691
 Alpha virt. eigenvalues --   -0.10159  -0.05632  -0.05263  -0.03252  -0.01560
 Alpha virt. eigenvalues --   -0.00426   0.00132   0.00260   0.00541   0.00632
 Alpha virt. eigenvalues --    0.01403   0.01537   0.01647   0.02531   0.02928
 Alpha virt. eigenvalues --    0.03040   0.03560   0.03682   0.03948   0.04286
 Alpha virt. eigenvalues --    0.04670   0.05073   0.05424   0.05531   0.05935
 Alpha virt. eigenvalues --    0.06515   0.06735   0.07092   0.07213   0.07707
 Alpha virt. eigenvalues --    0.08101   0.08410   0.08444   0.08722   0.09228
 Alpha virt. eigenvalues --    0.09813   0.09958   0.10137   0.10664   0.10757
 Alpha virt. eigenvalues --    0.11320   0.11598   0.11824   0.12384   0.12570
 Alpha virt. eigenvalues --    0.12795   0.13404   0.13497   0.13852   0.14079
 Alpha virt. eigenvalues --    0.14682   0.14786   0.14934   0.15329   0.15527
 Alpha virt. eigenvalues --    0.15681   0.15978   0.16220   0.16270   0.16647
 Alpha virt. eigenvalues --    0.16850   0.16901   0.17206   0.17421   0.17675
 Alpha virt. eigenvalues --    0.18079   0.18293   0.18446   0.18809   0.19065
 Alpha virt. eigenvalues --    0.19343   0.19419   0.19432   0.19766   0.19983
 Alpha virt. eigenvalues --    0.20173   0.20348   0.20461   0.20560   0.20825
 Alpha virt. eigenvalues --    0.20980   0.21351   0.21541   0.21913   0.21956
 Alpha virt. eigenvalues --    0.22135   0.22386   0.22560   0.22849   0.23018
 Alpha virt. eigenvalues --    0.23278   0.23496   0.23807   0.24066   0.24099
 Alpha virt. eigenvalues --    0.24422   0.24597   0.25008   0.25109   0.25288
 Alpha virt. eigenvalues --    0.25479   0.25658   0.25892   0.26054   0.26590
 Alpha virt. eigenvalues --    0.26694   0.26946   0.27397   0.27689   0.27898
 Alpha virt. eigenvalues --    0.28237   0.28277   0.28570   0.28893   0.29144
 Alpha virt. eigenvalues --    0.29211   0.29786   0.29972   0.30060   0.30432
 Alpha virt. eigenvalues --    0.30730   0.31079   0.31197   0.31526   0.32004
 Alpha virt. eigenvalues --    0.32299   0.32663   0.32818   0.33188   0.33285
 Alpha virt. eigenvalues --    0.33364   0.33835   0.34323   0.34823   0.35083
 Alpha virt. eigenvalues --    0.35515   0.36177   0.36736   0.37733   0.38016
 Alpha virt. eigenvalues --    0.38205   0.38588   0.39272   0.39832   0.40313
 Alpha virt. eigenvalues --    0.41078   0.41370   0.41870   0.42522   0.42927
 Alpha virt. eigenvalues --    0.43546   0.44467   0.45012   0.45435   0.45876
 Alpha virt. eigenvalues --    0.47419   0.47617   0.47736   0.48610   0.49738
 Alpha virt. eigenvalues --    0.50161   0.50703   0.51702   0.52030   0.52138
 Alpha virt. eigenvalues --    0.52637   0.53262   0.53382   0.53531   0.54061
 Alpha virt. eigenvalues --    0.54362   0.54568   0.55095   0.55268   0.55535
 Alpha virt. eigenvalues --    0.56057   0.56710   0.56958   0.57263   0.57526
 Alpha virt. eigenvalues --    0.57964   0.58193   0.58572   0.58723   0.59623
 Alpha virt. eigenvalues --    0.59753   0.59895   0.60216   0.60288   0.61159
 Alpha virt. eigenvalues --    0.61315   0.61819   0.62245   0.62920   0.63149
 Alpha virt. eigenvalues --    0.63980   0.64020   0.64586   0.64812   0.64977
 Alpha virt. eigenvalues --    0.65175   0.65789   0.66518   0.66824   0.67839
 Alpha virt. eigenvalues --    0.68225   0.68373   0.68862   0.69266   0.69377
 Alpha virt. eigenvalues --    0.70033   0.70100   0.70799   0.71272   0.71486
 Alpha virt. eigenvalues --    0.71580   0.71999   0.72163   0.72334   0.72534
 Alpha virt. eigenvalues --    0.72635   0.73155   0.73877   0.74216   0.74914
 Alpha virt. eigenvalues --    0.74993   0.75251   0.75748   0.75921   0.76621
 Alpha virt. eigenvalues --    0.76892   0.77413   0.77761   0.78456   0.79383
 Alpha virt. eigenvalues --    0.79933   0.80163   0.81385   0.81736   0.82677
 Alpha virt. eigenvalues --    0.82818   0.83230   0.83371   0.84127   0.85122
 Alpha virt. eigenvalues --    0.85317   0.86058   0.86503   0.87140   0.87617
 Alpha virt. eigenvalues --    0.87984   0.88685   0.89653   0.90467   0.90696
 Alpha virt. eigenvalues --    0.91041   0.91622   0.91792   0.92153   0.92617
 Alpha virt. eigenvalues --    0.92929   0.93293   0.94269   0.94653   0.94945
 Alpha virt. eigenvalues --    0.95355   0.95939   0.96160   0.96677   0.96763
 Alpha virt. eigenvalues --    0.97414   0.97762   0.97873   0.98140   0.98262
 Alpha virt. eigenvalues --    0.99348   0.99995   1.00271   1.00896   1.01003
 Alpha virt. eigenvalues --    1.01903   1.02138   1.03141   1.03806   1.03962
 Alpha virt. eigenvalues --    1.04586   1.04988   1.05039   1.06251   1.06322
 Alpha virt. eigenvalues --    1.07190   1.07938   1.08392   1.09177   1.09429
 Alpha virt. eigenvalues --    1.10334   1.10662   1.11035   1.12323   1.13026
 Alpha virt. eigenvalues --    1.14273   1.14743   1.14818   1.15736   1.16512
 Alpha virt. eigenvalues --    1.17084   1.17580   1.18547   1.18839   1.20272
 Alpha virt. eigenvalues --    1.21572   1.22689   1.23154   1.24137   1.26223
 Alpha virt. eigenvalues --    1.27483   1.28771   1.29435   1.30643   1.33042
 Alpha virt. eigenvalues --    1.33731   1.34498   1.35268   1.37074   1.37833
 Alpha virt. eigenvalues --    1.38231   1.39811   1.41028   1.43323   1.43829
 Alpha virt. eigenvalues --    1.46046   1.46705   1.47219   1.47455   1.47631
 Alpha virt. eigenvalues --    1.48210   1.48580   1.48794   1.49641   1.50316
 Alpha virt. eigenvalues --    1.50558   1.50697   1.51213   1.52366   1.53065
 Alpha virt. eigenvalues --    1.53738   1.54232   1.55747   1.55989   1.56091
 Alpha virt. eigenvalues --    1.56841   1.57390   1.57887   1.58653   1.59141
 Alpha virt. eigenvalues --    1.60181   1.60607   1.61662   1.62737   1.63011
 Alpha virt. eigenvalues --    1.64280   1.64979   1.65359   1.66167   1.66381
 Alpha virt. eigenvalues --    1.67675   1.68121   1.68445   1.70249   1.70692
 Alpha virt. eigenvalues --    1.71028   1.72268   1.73235   1.73427   1.73760
 Alpha virt. eigenvalues --    1.74309   1.74555   1.75208   1.75617   1.75943
 Alpha virt. eigenvalues --    1.76403   1.76977   1.77802   1.78133   1.79738
 Alpha virt. eigenvalues --    1.81477   1.82003   1.82516   1.82908   1.83413
 Alpha virt. eigenvalues --    1.84199   1.85004   1.85309   1.86128   1.87161
 Alpha virt. eigenvalues --    1.87993   1.88131   1.88444   1.89122   1.89570
 Alpha virt. eigenvalues --    1.89771   1.90211   1.90619   1.91978   1.92265
 Alpha virt. eigenvalues --    1.92755   1.93110   1.93397   1.94615   1.95008
 Alpha virt. eigenvalues --    1.95421   1.95765   1.96805   1.97270   1.97377
 Alpha virt. eigenvalues --    1.98732   1.99040   1.99525   2.00563   2.02175
 Alpha virt. eigenvalues --    2.02354   2.02680   2.03036   2.04158   2.04608
 Alpha virt. eigenvalues --    2.05856   2.06571   2.07061   2.07709   2.08638
 Alpha virt. eigenvalues --    2.09232   2.10395   2.10581   2.12095   2.12805
 Alpha virt. eigenvalues --    2.13934   2.14508   2.15807   2.16502   2.17684
 Alpha virt. eigenvalues --    2.18246   2.19180   2.19503   2.20430   2.20710
 Alpha virt. eigenvalues --    2.21993   2.23800   2.24695   2.25622   2.25758
 Alpha virt. eigenvalues --    2.26165   2.27181   2.28347   2.31386   2.32572
 Alpha virt. eigenvalues --    2.33566   2.35050   2.35904   2.38573   2.39127
 Alpha virt. eigenvalues --    2.40168   2.41306   2.41737   2.43039   2.43643
 Alpha virt. eigenvalues --    2.44044   2.45022   2.45748   2.46264   2.46765
 Alpha virt. eigenvalues --    2.48895   2.51962   2.54261   2.54710   2.55552
 Alpha virt. eigenvalues --    2.56641   2.58784   2.59996   2.61018   2.62883
 Alpha virt. eigenvalues --    2.63382   2.64403   2.65189   2.66588   2.68004
 Alpha virt. eigenvalues --    2.68684   2.69138   2.70406   2.70824   2.71653
 Alpha virt. eigenvalues --    2.71671   2.72084   2.72541   2.73013   2.73279
 Alpha virt. eigenvalues --    2.73606   2.73928   2.74299   2.74803   2.75255
 Alpha virt. eigenvalues --    2.75559   2.75932   2.76421   2.76908   2.77223
 Alpha virt. eigenvalues --    2.77723   2.77893   2.78414   2.79196   2.79339
 Alpha virt. eigenvalues --    2.79979   2.80407   2.81916   2.82340   2.83716
 Alpha virt. eigenvalues --    2.84225   2.84593   2.85523   2.85977   2.87455
 Alpha virt. eigenvalues --    2.88077   2.88360   2.88817   2.89300   2.89535
 Alpha virt. eigenvalues --    2.91529   2.91999   2.92580   2.92830   2.93603
 Alpha virt. eigenvalues --    2.94869   2.96786   2.99740   2.99982   3.00661
 Alpha virt. eigenvalues --    3.03055   3.04162   3.06118   3.06955   3.07964
 Alpha virt. eigenvalues --    3.10376   3.13124   3.13450   3.14763   3.15568
 Alpha virt. eigenvalues --    3.17356   3.18404   3.19899   3.21489   3.22313
 Alpha virt. eigenvalues --    3.22878   3.23836   3.25057   3.26970   3.30231
 Alpha virt. eigenvalues --    3.32205   3.33741   3.35304   3.37168   3.37644
 Alpha virt. eigenvalues --    3.39037   3.39346   3.41775   3.43208   3.44351
 Alpha virt. eigenvalues --    3.45359   3.45812   3.48083   3.48876   3.50335
 Alpha virt. eigenvalues --    3.51943   3.52360   3.54275   3.56109   3.57106
 Alpha virt. eigenvalues --    3.58800   3.60648   3.62136   3.62980   3.64267
 Alpha virt. eigenvalues --    3.65607   3.68899   3.70727   3.77448   3.83222
 Alpha virt. eigenvalues --    3.83714   3.87316   3.91853   4.02230   4.03477
 Alpha virt. eigenvalues --    4.04651   4.05611   4.06601   4.07082   4.08342
 Alpha virt. eigenvalues --    4.11180   4.17103   4.17730   4.21426   4.24792
 Alpha virt. eigenvalues --    4.29069   4.34433   4.48579   4.61592   4.73571
 Alpha virt. eigenvalues --    4.75512   4.76748   4.77834   4.80339   4.82984
 Alpha virt. eigenvalues --    4.83762   4.87499  23.43144  23.58549  23.67616
 Alpha virt. eigenvalues --   23.77125  23.82081  23.84847  23.86308  23.87991
 Alpha virt. eigenvalues --   23.89205  23.93393  23.94182  23.95947  23.96404
 Alpha virt. eigenvalues --   23.98570  23.99464  24.00640  24.02243  24.05222
 Alpha virt. eigenvalues --   24.06168  24.07960  24.09096  24.11443  24.12765
 Alpha virt. eigenvalues --   24.13655  24.14261  24.16235  24.17680  24.20537
 Alpha virt. eigenvalues --   24.21910  24.23021
  Beta  occ. eigenvalues --  -10.20776 -10.20058 -10.19964 -10.19835 -10.19791
  Beta  occ. eigenvalues --  -10.19717 -10.19676 -10.19593 -10.19358 -10.19318
  Beta  occ. eigenvalues --  -10.19236 -10.19199 -10.19168 -10.19164 -10.19164
  Beta  occ. eigenvalues --  -10.19087 -10.19001 -10.18525 -10.18327 -10.18325
  Beta  occ. eigenvalues --  -10.18311 -10.18142 -10.18130 -10.18114 -10.18061
  Beta  occ. eigenvalues --  -10.17930 -10.17239 -10.17099 -10.17012 -10.16802
  Beta  occ. eigenvalues --   -0.92071  -0.88775  -0.87632  -0.85593  -0.83896
  Beta  occ. eigenvalues --   -0.83072  -0.80610  -0.79237  -0.77791  -0.77258
  Beta  occ. eigenvalues --   -0.75344  -0.74245  -0.72472  -0.71717  -0.71461
  Beta  occ. eigenvalues --   -0.66753  -0.64823  -0.63804  -0.63263  -0.61764
  Beta  occ. eigenvalues --   -0.60097  -0.59304  -0.58720  -0.56746  -0.55734
  Beta  occ. eigenvalues --   -0.53213  -0.52310  -0.51375  -0.51125  -0.49620
  Beta  occ. eigenvalues --   -0.48748  -0.47948  -0.47413  -0.46453  -0.45722
  Beta  occ. eigenvalues --   -0.44818  -0.44513  -0.43851  -0.43768  -0.42870
  Beta  occ. eigenvalues --   -0.42689  -0.41892  -0.41759  -0.40746  -0.40664
  Beta  occ. eigenvalues --   -0.40415  -0.40095  -0.39315  -0.38889  -0.37497
  Beta  occ. eigenvalues --   -0.37032  -0.36630  -0.35360  -0.35052  -0.34722
  Beta  occ. eigenvalues --   -0.34228  -0.33670  -0.33186  -0.32892  -0.31028
  Beta  occ. eigenvalues --   -0.29783  -0.28135  -0.27041  -0.25770  -0.24557
  Beta  occ. eigenvalues --   -0.22365  -0.21528  -0.20827
  Beta virt. eigenvalues --   -0.10545  -0.08710  -0.05523  -0.05042  -0.03101
  Beta virt. eigenvalues --   -0.01435  -0.00138   0.00148   0.00327   0.00547
  Beta virt. eigenvalues --    0.00638   0.01445   0.01553   0.01658   0.02540
  Beta virt. eigenvalues --    0.02976   0.03044   0.03606   0.03706   0.04030
[...]
 0544,-0.00003424,0.00000870,-0.00003636,-0.00004376,0.00047661,-0.0003
 1296,-0.00022357,0.30512114,-0.00000284,0.00001466,-0.00000462,-0.0000
 0220,-0.00001998,0.00000245,-0.00001783,0.00001734,-0.00001028,0.00003
 106,0.00002663,0.00000098,0.00001132,0.00002839,0.00001692,0.00000992,
 -0.00000394,0.00000280,-0.00024757,0.00016243,0.00020109,-0.00007168,-
 0.00003627,0.00000356,0.00008444,-0.00022095,-0.00008557,0.00004307,-0
 .00003973,0.00000508,-0.00000959,-0.00009948,-0.00000498,0.00000792,0.
 00005773,0.00000608,0.00038695,-0.00017634,0.00030927,0.00008878,0.000
 06143,-0.00000683,-0.00004872,0.00010360,0.00005443,0.00065547,-0.0004
 8934,-0.00000283,0.00308564,-0.00204660,-0.00293851,0.00030874,0.00077
 277,0.00009290,0.00066740,-0.00374548,-0.00307687,0.02026215,0.0098408
 8,0.00535483,-0.02625309,-0.00546318,-0.00698227,-0.07600589,-0.080256
 00,-0.02969016,0.00001282,0.00000183,0.00002640,0.00000041,-0.00001437
 ,0.00000579,-0.00001229,0.00000299,-0.00000375,-0.00001744,0.00001563,
 0.00000159,-0.00125038,-0.00014467,-0.00021539,0.00020761,0.00014387,0
 .00011691,-0.00183101,0.00093149,0.00105325,0.00030799,-0.00013071,0.0
 0004671,0.00000165,0.00000094,-0.00000068,0.00001449,0.00000660,-0.000
 00697,-0.00000323,-0.00000463,-0.00000103,-0.00000322,-0.00002177,-0.0
 0009822,-0.00000120,0.00000130,0.00000143,-0.00000010,0.00000062,-0.00
 000185,0.00000003,-0.00000015,-0.00000129,-0.00000188,-0.00000271,-0.0
 0000273,0.00000178,-0.00000105,-0.00000440,-0.00004225,-0.00012373,-0.
 00011473,0.00006300,0.00001599,-0.00001871,0.00002991,-0.00000603,0.00
 000326,0.00103048,-0.00013159,-0.00007223,0.07917532,0.08062831,0.0000
 0921,0.00000591,-0.00000171,0.00000195,0.00001547,-0.00000375,-0.00001
 063,-0.00003685,0.00002636,0.00004976,-0.00000263,0.00001599,0.0000302
 9,-0.00002406,0.00000010,0.00000334,-0.00001562,0.00000016,0.00030498,
 0.00003269,-0.00037098,0.00005913,0.00003854,-0.00005437,-0.00014109,0
 .00019370,0.00017735,0.00001048,0.00002720,-0.00000491,-0.00000879,0.0
 0009573,0.00000254,-0.00001242,-0.00001398,-0.00000236,-0.00012731,0.0
 0007483,-0.00082098,-0.00006253,-0.00006836,0.00004514,0.00010883,-0.0
 0000627,-0.00008087,0.00000420,0.00005333,-0.00051922,-0.00062652,-0.0
 0181577,0.00870228,0.00039095,-0.00010425,0.00026962,0.00093194,-0.003
 31578,0.00211027,0.00187040,0.00008228,0.00466610,-0.01082160,-0.00345
 411,-0.00036311,-0.07099338,-0.02892667,-0.05809013,0.00001301,0.00000
 343,-0.00000387,-0.00000167,-0.00000203,-0.00000027,-0.00000192,0.0000
 0559,-0.00000350,-0.00000478,0.00000293,-0.00000200,-0.00051868,0.0001
 9846,0.00005876,0.00016629,-0.00006880,0.00007371,-0.00042502,0.001280
 81,-0.00122650,0.00021405,0.00010981,-0.00030960,0.00000116,0.00000084
 ,0.00000267,-0.00000242,-0.00000436,0.00001630,0.00000117,0.00000138,-
 0.00000293,-0.00003414,-0.00004628,0.00025388,0.00000059,-0.00000011,-
 0.00000561,-0.00000078,0.00000152,0.00000184,-0.00000104,0.00000027,0.
 00000036,-0.00000084,-0.00000065,0.00000066,-0.00000139,0.00000399,0.0
 0000130,-0.00001287,-0.00001486,-0.00005201,0.00001054,-0.00008214,0.0
 0011820,0.00000287,-0.00004700,0.00002388,0.00043680,-0.00025734,0.000
 22013,0.07827092,0.03431833,0.05011515,0.00000812,-0.00001713,0.000001
 44,0.00000811,-0.00000422,0.00000087,-0.00002105,0.00003526,-0.0000275
 3,-0.00004616,-0.00016911,0.00001550,-0.00024835,0.00007908,0.00010768
 ,-0.00005891,0.00002118,-0.00001207,0.00022310,-0.00141200,-0.00010237
 ,0.00004053,0.00015792,0.00002051,0.00003731,-0.00005076,-0.00004087,-
 0.00002090,-0.00001303,-0.00000141,-0.00004546,0.00000381,-0.00001669,
 0.00000369,0.00000699,0.00000302,0.00000555,0.00034683,0.00011944,-0.0
 0001195,-0.00004768,-0.00000212,0.00002272,-0.00001660,-0.00003098,-0.
 00487427,0.00057969,-0.00133451,-0.00224560,-0.02706767,-0.00897492,0.
 00088852,-0.00215257,0.00001631,-0.00031703,0.00014957,0.00006480,-0.0
 6075741,-0.03501689,-0.01589316,-0.00345144,0.00282508,-0.00158999,0.0
 0678620,0.02528476,0.00811509,-0.00000785,-0.00000779,-0.00000388,-0.0
 0000459,-0.00000067,-0.00000141,-0.00000333,-0.00000700,-0.00000022,0.
 00001439,0.00000272,-0.00000197,0.00008490,-0.00005954,0.00013452,0.00
 001050,-0.00000002,-0.00005327,0.00061700,0.00076003,0.00050696,-0.000
 31580,0.00005832,0.00018877,-0.00000410,-0.00000137,-0.00000080,0.0000
 0326,0.00000509,0.00000485,-0.00002303,0.00001216,-0.00000786,-0.00042
 053,0.00092444,0.00003083,-0.00000397,0.00000219,0.00000010,-0.0000016
 4,-0.00000162,0.00000264,0.00000023,-0.00000393,-0.00000017,0.00000042
 ,-0.00000032,0.00000084,0.00000094,-0.00000532,0.00000333,0.00000939,0
 .00001680,0.00002356,0.00001372,0.00000537,-0.00000674,0.00000418,0.00
 010160,0.00006432,-0.00003371,0.00000509,-0.00005984,0.00070096,-0.000
 59688,0.00097237,0.06342819,0.00001323,-0.00000991,0.00000463,-0.00000
 460,0.00001830,-0.00000329,0.00000252,-0.00000832,0.00000730,0.0000081
 4,-0.00008216,0.00000911,-0.00005814,0.00003673,-0.00001387,-0.0000482
 5,0.00000018,0.00000121,0.00041000,-0.00045993,-0.00006941,0.00003689,
 0.00011661,-0.00002181,0.00009791,0.00028397,0.00004425,-0.00004238,0.
 00002513,-0.00000306,-0.00002092,0.00010707,-0.00000113,-0.00000170,-0
 .00004893,-0.00000050,-0.00058694,0.00017471,0.00006635,-0.00010106,-0
 .00010866,-0.00001887,0.00013937,-0.00009001,-0.00001927,-0.00151694,0
 .00181484,-0.00079589,-0.00028077,-0.00686641,-0.00279098,0.00214290,0
 .00039652,0.00114937,0.00029012,0.00017585,0.00036257,-0.03396002,-0.3
 0024525,-0.08445764,0.00422182,0.00074649,-0.00165566,-0.00526360,-0.0
 1478756,-0.00703903,0.00000166,-0.00001063,0.00001440,-0.00000168,0.00
 000434,-0.00000071,0.00000129,-0.00000177,-0.00000040,0.00000458,0.000
 00278,0.00000552,-0.00008148,0.00009036,0.00020489,0.00019985,0.000043
 54,0.00000069,-0.00076402,-0.00053219,-0.00046607,0.00029846,-0.000368
 39,0.00000806,-0.00000831,0.00000104,-0.00000212,-0.00001236,0.0000011
 0,0.00000303,-0.00000364,0.00001852,-0.00000157,-0.00028445,0.00071513
 ,-0.00004226,-0.00000448,-0.00000257,-0.00000086,-0.00000337,-0.000002
 99,-0.00000228,-0.00000362,-0.00000346,-0.00000089,0.00000025,-0.00000
 591,-0.00000057,0.00000462,-0.00000149,-0.00000136,-0.00000749,0.00000
 012,-0.00000772,-0.00000127,-0.00001314,-0.00001190,-0.00001794,-0.000
 10473,-0.00004919,0.00004513,0.00003028,-0.00001775,-0.00008780,0.0003
 4433,0.00180153,0.03525412,0.31860251,0.00000224,-0.00000759,-0.000002
 36,-0.00001196,0.00000299,-0.00000641,0.00000134,0.00000087,-0.0000069
 5,-0.00004168,-0.00004782,-0.00000984,-0.00004791,0.00010860,0.0000918
 4,-0.00003363,0.00000481,-0.00002659,-0.00009909,-0.00046895,0.0000620
 4,-0.00002433,0.00003533,0.00001117,0.00012208,-0.00012925,-0.00001307
 ,-0.00000441,-0.00000605,-0.00000531,-0.00000272,-0.00000939,-0.000011
 44,0.00000023,0.00000272,0.00000761,0.00010644,0.00029089,-0.00000628,
 0.00000067,0.00001530,-0.00000093,-0.00003422,-0.00001886,0.00004033,-
 0.00085444,-0.00190474,0.00266744,0.00200972,-0.00628080,0.00114426,0.
 00062329,0.00024287,-0.00171133,-0.00104049,0.00075949,-0.00036252,-0.
 01819473,-0.08424958,-0.06511236,-0.00195079,-0.00199798,0.00861948,0.
 00034623,-0.00252010,0.00416921,0.00001299,-0.00000121,0.00001404,-0.0
 0000262,-0.00000017,-0.00000190,-0.00000253,0.00000570,0.00000284,0.00
 000737,0.00000523,-0.00000180,0.00027689,-0.00012855,-0.00072825,-0.00
 054310,-0.00000898,0.00008597,0.00048867,-0.00036794,0.00005809,0.0002
 8955,0.00077173,-0.00029807,-0.00000467,0.00000100,0.00000368,-0.00000
 114,0.00000345,-0.00000715,-0.00001496,0.00001017,0.00001718,-0.000277
 20,0.00029892,0.00030785,-0.00000353,-0.00000052,-0.00000352,-0.000002
 88,-0.00000135,0.00000665,-0.00000197,-0.00000257,-0.00000215,-0.00000
 027,-0.00000316,0.00000148,0.00000123,-0.00000030,-0.00000098,0.000010
 65,-0.00000293,0.00000778,-0.00000740,-0.00002145,0.00002474,0.0000121
 4,0.00003631,0.00000778,-0.00002123,-0.00010073,0.00015757,0.00117144,
 0.00185809,-0.00495216,0.01774741,0.09383487,0.05577354,-0.00215593,0.
 00337323,-0.00241085,-0.00043919,-0.00138172,0.00007794,-0.00000366,0.
 00016665,0.00003303,-0.00016632,0.00006713,0.00019447,0.00089029,-0.00
 075890,0.00084853,-0.01746816,-0.01619166,-0.00333227,-0.00005483,0.00
 031868,-0.00014558,0.00015470,-0.00008186,-0.00006650,-0.00018145,0.00
 007449,0.00004498,0.00014394,-0.00007649,-0.00000058,-0.00018234,-0.00
 004959,-0.00001925,0.00001434,0.00016621,0.00001279,0.00008145,-0.0000
 0264,-0.00000288,0.00002471,0.00002340,0.00000959,-0.00004518,-0.00000
 393,-0.00000348,0.00004856,0.00045589,-0.00004578,0.00002325,0.0000082
 0,0.00006376,-0.00005914,0.00000456,0.00000006,-0.00042470,-0.00123212
 ,0.00056605,0.00002197,0.00003499,0.00001136,0.00029953,-0.00018268,0.
 00025722,-0.00004288,-0.00002824,-0.00003005,-0.23744208,-0.13432711,-
 0.04425624,0.00000258,0.00068420,0.00019916,0.00193420,0.00076623,-0.0
 0220689,0.00620137,0.00373333,-0.00011949,-0.00120834,-0.00142152,0.00
 151074,-0.00032614,-0.00031244,0.00060246,-0.00020509,0.00012129,-0.00
 015673,-0.00006546,-0.00002540,0.00000705,0.00000351,0.00000978,-0.000
 00032,-0.00000012,0.00000065,-0.00000212,0.00000396,0.00000124,-0.0000
 0220,0.00000224,0.00000050,-0.00000358,0.00000426,-0.00000945,-0.00000
 400,-0.00033574,0.00012206,-0.00016378,-0.00008375,-0.00005987,0.00032
 290,0.00017510,0.00029728,-0.00003434,0.00028746,0.00012816,0.00175543
 ,0.00019361,0.00005800,0.00019881,0.00003578,0.00005272,-0.00007514,-0
 .00001376,-0.00001723,0.00002575,0.00000980,0.00002633,-0.00003298,0.0
 0000327,0.00000257,-0.00000254,-0.00000404,0.00000211,-0.00000373,0.25
 043306,0.00231400,-0.00075819,0.00188036,0.00066228,0.00050251,-0.0000
 0672,0.00006587,0.00022301,-0.00002604,-0.00035358,0.00020127,-0.00011
 374,0.00036737,0.00056405,-0.00039299,0.01219780,0.01116987,0.00251086
 ,-0.00008263,0.00007665,-0.00021800,-0.00011718,-0.00007406,0.00004189
 ,0.00021306,-0.00007368,-0.00005825,-0.00002530,-0.00002515,-0.0000007
 4,-0.00001558,0.00001750,-0.00000139,0.00003922,-0.00000239,0.00001042
 ,-0.00001478,0.00005095,0.00002319,-0.00002062,0.00000834,-0.00000476,
 0.00000918,-0.00001231,0.00000681,-0.00014866,-0.00035461,0.00011616,-
 0.00005265,-0.00010530,-0.00002497,-0.00002811,0.00002078,-0.00000210,
 -0.00092829,-0.00133416,0.00083648,0.00005666,-0.00000543,0.00001465,-
 0.00011083,-0.00009582,0.00000059,-0.00003101,0.00007199,0.00005878,-0
 .13374147,-0.15555645,-0.02442523,0.00077012,-0.00022066,0.00011777,0.
 00167623,-0.00449274,0.00264343,-0.02646013,-0.01462741,-0.00486608,-0
 .00143167,-0.00047343,0.00144581,-0.00013604,-0.00029309,0.00018174,-0
 .00010840,-0.00004169,-0.00015323,0.00033820,-0.00002722,0.00015784,-0
 .00000533,-0.00000240,0.00000013,-0.00000325,0.00000218,-0.00000165,-0
 .00000515,0.00000615,0.00000025,-0.00000431,0.00001095,0.00000089,-0.0
 0000854,-0.00000237,-0.00000123,0.00024490,-0.00006839,0.00000400,-0.0
 0004824,0.00004414,-0.00021972,-0.00119125,-0.00074291,-0.00020251,0.0
 0046699,0.00089511,-0.00090482,0.00019528,0.00003755,0.00032818,0.0000
 6478,0.00001113,-0.00017478,0.00000895,-0.00000617,-0.00000046,0.00002
 244,0.00000130,-0.00002336,0.00000854,0.00001084,-0.00000108,0.0000077
 6,0.00000846,-0.00000621,0.14543692,0.16549220,-0.00242761,0.00163875,
 0.00361279,-0.00046889,-0.00049034,0.00009799,-0.00007841,-0.00019584,
 -0.00014592,0.00057962,-0.00013080,-0.00006789,0.00042202,0.00000614,-
 0.00210563,-0.00656030,-0.00768512,0.00243823,-0.00009574,0.00009567,-
 0.00002397,0.00002555,0.00010805,0.00010721,-0.00009605,0.00011586,-0.
 00004417,0.00011779,-0.00001812,0.00001788,0.00001635,-0.00010366,0.00
 000679,-0.00003387,0.00007827,-0.00001376,0.00011394,-0.00003434,0.000
 04358,0.00012057,0.00003993,0.00001131,-0.00009763,0.00009612,-0.00000
 208,-0.00024233,0.00020109,0.00011085,0.00013695,-0.00007803,-0.000049
 47,-0.00008477,0.00003495,-0.00002559,0.00013567,0.00091294,0.00009766
 ,-0.00011601,-0.00009193,-0.00006526,0.00019896,0.00011287,0.00007355,
 0.00005513,-0.00004414,0.00001694,-0.04415498,-0.02321920,-0.04508251,
 -0.00006831,0.00063897,-0.00105973,-0.00175460,0.00245390,0.00749909,0
 .00449470,0.00397569,0.00524883,0.00100704,0.00120808,-0.00138497,0.00
 049643,-0.00015370,-0.00028086,-0.00023456,-0.00002258,-0.00015766,0.0
 0014392,-0.00007204,0.00007847,0.00000268,0.00000762,0.00000040,0.0000
 0315,0.00000649,0.00000090,0.00000376,-0.00000432,-0.00000240,0.000004
 76,-0.00001326,0.00001002,0.00000136,-0.00000413,0.00001299,-0.0002278
 3,0.00012625,0.00023615,0.00023176,-0.00019154,-0.00097603,0.00019229,
 0.00021872,0.00021434,0.00168146,-0.00103064,-0.00460268,0.00004619,0.
 00009234,-0.00036749,0.00004321,-0.00000025,-0.00006792,-0.00005143,-0
 .00000088,0.00000038,-0.00002827,-0.00002739,0.00000847,-0.00001863,-0
 .00003887,0.00000297,0.00000746,-0.00001497,-0.00000109,0.04650872,0.0
 2157007,0.03649252,0.00025167,0.00018782,0.00015011,-0.00002885,-0.000
 04808,-0.00001569,-0.00002368,0.00008020,-0.00003522,-0.00007809,0.000
 02499,0.00014941,-0.00031654,0.00001030,0.00035449,-0.00019987,-0.0003
 2988,0.00079065,0.00000851,-0.00003553,0.00004951,-0.00007058,-0.00008
 409,-0.00003703,0.00020782,-0.00006436,0.00009204,0.00002288,-0.000033
 10,-0.00000209,-0.00000911,-0.00007869,-0.00000674,0.00000776,0.000035
 30,0.00000615,0.00012017,0.00000719,0.00003112,0.00006792,0.00004943,0
 .00002317,-0.00008413,0.00003968,-0.00001394,0.00026930,0.00000807,-0.
 00078723,0.00014397,-0.00010600,-0.00001406,-0.00009586,0.00004561,0.0
 0001776,-0.00009080,0.00098301,0.00166161,-0.00006017,0.00000004,-0.00
 003052,-0.00089947,-0.00098587,0.00093043,-0.00014842,-0.00006957,0.00
 004826,-0.00037525,0.00027659,0.00005885,-0.00003141,0.00000565,-0.000
 03278,0.00005141,-0.00001725,0.00003536,-0.00007175,-0.00003011,0.0000
 0555,-0.04434439,-0.01155167,-0.04234977,0.00372469,-0.00139397,0.0015
 3331,0.00002776,-0.00041633,-0.00046364,0.00045726,-0.00041415,0.00093
 262,0.00000338,0.00000026,-0.00000298,0.00000346,0.00000099,-0.0000008
 8,-0.00000077,-0.00000252,-0.00000791,0.00000112,-0.00000647,0.0000012
 8,0.00000080,0.00000223,-0.00000692,-0.00000625,0.00000222,-0.00000511
 ,0.00000289,-0.00000775,-0.00000481,0.00000124,0.00000232,-0.00000296,
 0.00000961,-0.00002132,-0.00001540,-0.03961842,-0.00768371,-0.03252060
 ,0.00027994,0.00108139,0.00039330,-0.00002513,0.00017842,-0.00012455,0
 .00002060,0.00005456,-0.00003514,-0.00002958,-0.00007166,-0.00005286,0
 .00000918,-0.00000772,-0.00000296,-0.00008464,-0.00009354,0.00004878,0
 .08099983,0.00003816,0.00009728,0.00007016,0.00005657,-0.00004590,0.00
 004174,-0.00001329,0.00009417,0.00000606,0.00007213,-0.00006224,-0.000
 08139,0.00009025,0.00006976,0.00001838,0.00000496,-0.00011537,0.000162
 99,-0.00005257,-0.00032024,-0.00008531,-0.00004648,0.00005902,-0.00001
 534,0.00000112,0.00003970,0.00003986,0.00003447,-0.00003079,-0.0000046
 9,0.00003631,-0.00011992,0.00001247,-0.00001209,0.00003836,-0.00000306
 ,0.00009237,-0.00003105,0.00000383,0.00006438,0.00009257,0.00001725,-0
 .00009958,0.00003066,-0.00001382,0.00010616,0.00047865,-0.00016577,0.0
 0006432,-0.00020933,0.00000528,-0.00012193,0.00006019,0.00001627,0.000
 34978,0.00047227,0.00118938,0.00001249,0.00001168,0.00000168,-0.000238
 23,-0.00026712,0.00045776,-0.00004946,0.00005931,0.00000610,-0.0002537
 3,-0.00025551,0.00034482,0.00006289,-0.00010526,0.00002730,-0.00016766
 ,-0.00003972,-0.00004309,0.00001660,0.00034627,-0.00002438,-0.01272393
 ,0.00187125,-0.01295531,0.00047319,-0.00033300,0.00100421,0.00002704,-
 0.00016789,-0.00017747,-0.00023630,-0.00030406,0.00042893,0.00000310,-
 0.00000018,-0.00000103,0.00000363,0.00000101,-0.00000145,-0.00000215,-
 0.00000158,-0.00000015,0.00000092,-0.00000077,-0.00000540,-0.00000060,
 0.00000228,-0.00000013,-0.00000362,-0.00000148,-0.00000407,0.00000295,
 -0.00000511,-0.00000320,-0.00000118,0.00000078,-0.00001050,0.00000468,
 -0.00000850,-0.00001311,-0.00771755,-0.01502654,-0.00942354,-0.0003710
 0,0.00045616,-0.00011247,-0.00001785,0.00011283,-0.00007880,0.00000279
 ,0.00002899,-0.00000823,-0.00000142,-0.00001191,-0.00003959,0.00000625
 ,-0.00000449,-0.00000216,0.00002605,-0.00003092,-0.00007270,0.02047703
 ,0.01307570,-0.00006988,0.00005786,-0.00011699,0.00014716,-0.00013397,
 0.00009270,0.00002192,0.00020506,-0.00001582,-0.00008414,-0.00002838,-
 0.00005784,0.00043570,-0.00010037,-0.00041654,0.00011166,0.00019380,-0
 .00042890,0.00008021,-0.00037124,-0.00014547,0.00003005,0.00000537,0.0
 0004197,-0.00001892,0.00010498,0.00004259,0.00005337,-0.00007181,0.000
 00514,-0.00003707,-0.00011927,-0.00002344,0.00002722,0.00008674,0.0000
 0574,0.00008951,-0.00009947,-0.00000896,0.00007002,0.00009033,0.000022
 98,-0.00011653,0.00002891,-0.00001478,0.00042973,0.00012878,-0.0007145
 6,0.00008851,-0.00010309,0.00003808,-0.00004703,0.00004667,0.00003168,
 -0.00020807,0.00159637,0.00111069,-0.00003461,0.00000326,-0.00004141,-
 0.00034473,-0.00114476,0.00084942,-0.00021532,-0.00007665,0.00009005,0
 .00004778,-0.00011975,0.00008779,0.00001576,-0.00005518,0.00000348,-0.
 00005814,-0.00001106,0.00000343,-0.00000589,0.00011629,0.00007739,-0.0
 4471325,-0.01139727,-0.03462245,0.00361982,-0.00066828,0.00105218,0.00
 008746,-0.00002974,-0.00029528,-0.00044278,-0.00088806,0.00130251,0.00
 000368,0.00000049,-0.00000395,0.00000378,0.00000126,-0.00000077,-0.000
 00206,-0.00000167,-0.00000395,0.00000471,-0.00000641,-0.00000790,-0.00
 000012,0.00000177,-0.00000274,0.00000214,-0.00000200,-0.00000534,0.000
 00461,-0.00000224,-0.00000511,0.00000046,0.00000141,-0.00000633,0.0000
 0769,-0.00001020,-0.00001631,-0.02798498,-0.00821367,-0.04242996,-0.00
 001023,0.00145491,-0.00011830,-0.00012050,0.00012549,-0.00003727,0.000
 02664,0.00013848,-0.00017523,-0.00003401,-0.00009839,-0.00003488,0.000
 01016,-0.00000675,-0.00001012,-0.00012949,-0.00012024,0.00008680,0.069
 25803,0.01949169,0.07481594\\0.00000538,-0.00000060,0.00000390,-0.0000
 0307,0.00000426,-0.00000292,0.00000062,-0.00000278,-0.00000559,0.00000
 614,0.00000317,-0.00001198,-0.00000341,0.00001358,0.00000189,-0.000003
 85,-0.00000974,0.00001588,-0.00000537,-0.00000048,-0.00001249,-0.00000
 006,-0.00000071,-0.00000163,0.00000008,-0.00000380,0.00000084,0.000000
 26,0.00000335,0.00000282,0.00000062,0.00000005,-0.00000382,-0.00000079
 ,-0.00000119,0.00000485,0.00000133,-0.00000199,0.00000007,-0.00000051,
 0.00000093,0.00000752,-0.00000209,0.00000002,0.00000602,-0.00000260,-0
 .00000007,0.00000285,0.00000062,-0.00000061,0.00000253,-0.00000140,-0.
 00000136,0.00000654,0.00001091,-0.00000989,-0.00000129,0.00000088,-0.0
 0000134,0.00000314,0.00000985,0.00000130,0.00000063,0.00000149,-0.0000
 0196,0.00000215,0.00000086,0.00000258,-0.00000799,-0.00000020,-0.00000
 174,-0.00000408,-0.00000121,-0.00000108,-0.00000365,-0.00000132,-0.000
 00331,0.00000259,-0.00003937,0.00003348,0.00001371,0.00000159,-0.00000
 631,-0.00000670,-0.00000302,0.00000315,0.00000538,-0.00000195,-0.00000
 402,-0.00000077,0.00000046,0.00000080,-0.00000286,0.00000010,0.0000006
 1,-0.00000079,0.00000031,0.00000014,0.00000080,-0.00000010,-0.00000069
 ,0.00000253,0.00000055,0.00000042,-0.00000325,0.00000083,-0.00000004,-
 0.00000301,0.00000023,-0.00000075,-0.00000348,-0.00000114,-0.00000144,
 -0.00000445,-0.00000100,-0.00000127,-0.00000328,0.00002063,-0.00001729
 ,-0.00001481,-0.00000146,0.00000309,-0.00000183,0.00000140,0.00000119,
 0.00000165,0.00000069,0.00000058,0.00000031,0.00000055,0.00000076,0.00
 000194,0.00000049,-0.00000114,0.00000564,-0.00000074,-0.00000002,0.000
 00013,0.00000782,0.00000221,0.00000436\\\@


 IT IS A QUALITY OF REVOLUTIONS NOT TO GO BY OLD LINES OR OLD LAWS,
 BUT TO BREAK UP BOTH, AND MAKE NEW ONES.
                                              -- A. LINCOLN (1848)
 Job cpu time:       1 days 23 hours 13 minutes 32.2 seconds.
 Elapsed time:       0 days  2 hours 21 minutes 38.8 seconds.
 File lengths (MBytes):  RWF=   4615 Int=      0 D2E=      0 Chk=     65 Scr=      1
 Normal termination of Gaussian 16 at Tue Jun 11 00:22:16 2019.
