 Entering Gaussian System, Link 0=/share/apps/gaussian16/g16/g16
 Initial command:
 /share/apps/gaussian16/g16/l1.exe "/home/amen01//scratch/505/Gau-12487.inp" -scrdir="/home/amen01//scratch/505/"
 Entering Link 1 = /share/apps/gaussian16/g16/l1.exe PID=     12488.
  
 Copyright (c) 1988-2017, Gaussian, Inc.  All Rights Reserved.
  
 This is part of the Gaussian(R) 16 program.  It is based on
 the Gaussian(R) 09 system (copyright 2009, Gaussian, Inc.),
 the Gaussian(R) 03 system (copyright 2003, Gaussian, Inc.),
 the Gaussian(R) 98 system (copyright 1998, Gaussian, Inc.),
 the Gaussian(R) 94 system (copyright 1995, Gaussian, Inc.),
 the Gaussian 92(TM) system (copyright 1992, Gaussian, Inc.),
 the Gaussian 90(TM) system (copyright 1990, Gaussian, Inc.),
 the Gaussian 88(TM) system (copyright 1988, Gaussian, Inc.),
 the Gaussian 86(TM) system (copyright 1986, Carnegie Mellon
 University), and the Gaussian 82(TM) system (copyright 1983,
 Carnegie Mellon University). Gaussian is a federally registered
 trademark of Gaussian, Inc.
  
 This software contains proprietary and confidential information,
 including trade secrets, belonging to Gaussian, Inc.
  
 This software is provided under written license and may be
 used, copied, transmitted, or stored only in accord with that
 written license.
  
 The following legend is applicable only to US Government
 contracts under FAR:
  
                    RESTRICTED RIGHTS LEGEND
  
 Use, reproduction and disclosure by the US Government is
 subject to restrictions as set forth in subparagraphs (a)
 and (c) of the Commercial Computer Software - Restricted
 Rights clause in FAR 52.227-19.
  
 Gaussian, Inc.
 340 Quinnipiac St., Bldg. 40, Wallingford CT 06492
  
  
 ---------------------------------------------------------------
 Warning -- This program may not be used in any manner that
 competes with the business of Gaussian, Inc. or will provide
 assistance to any competitor of Gaussian, Inc.  The licensee
 of this program is prohibited from giving any competitor of
 Gaussian, Inc. access to this program.  By using this program,
 the user acknowledges that Gaussian, Inc. is engaged in the
 business of creating and licensing software in the field of
 computational chemistry and represents and warrants to the
 licensee that it is not a competitor of Gaussian, Inc. and that
 it will not use this program in any manner prohibited above.
 ---------------------------------------------------------------
  

 Cite this work as:
 Gaussian 16, Revision B.01,
 M. J. Frisch, G. W. Trucks, H. B. Schlegel, G. E. Scuseria, 
 M. A. Robb, J. R. Cheeseman, G. Scalmani, V. Barone, 
 G. A. Petersson, H. Nakatsuji, X. Li, M. Caricato, A. V. Marenich, 
 J. Bloino, B. G. Janesko, R. Gomperts, B. Mennucci, H. P. Hratchian, 
 J. V. Ortiz, A. F. Izmaylov, J. L. Sonnenberg, D. Williams-Young, 
 F. Ding, F. Lipparini, F. Egidi, J. Goings, B. Peng, A. Petrone, 
 T. Henderson, D. Ranasinghe, V. G. Zakrzewski, J. Gao, N. Rega, 
 G. Zheng, W. Liang, M. Hada, M. Ehara, K. Toyota, R. Fukuda, 
 J. Hasegawa, M. Ishida, T. Nakajima, Y. Honda, O. Kitao, H. Nakai, 
 T. Vreven, K. Throssell, J. A. Montgomery, Jr., J. E. Peralta, 
 F. Ogliaro, M. J. Bearpark, J. J. Heyd, E. N. Brothers, K. N. Kudin, 
 V. N. Staroverov, T. A. Keith, R. Kobayashi, J. Normand, 
 K. Raghavachari, A. P. Rendell, J. C. Burant, S. S. Iyengar, 
 J. Tomasi, M. Cossi, J. M. Millam, M. Klene, C. Adamo, R. Cammi, 
 J. W. Ochterski, R. L. Martin, K. Morokuma, O. Farkas, 
 J. B. Foresman, and D. J. Fox, Gaussian, Inc., Wallingford CT, 2016.
 
 ******************************************
 Gaussian 16:  ES64L-G16RevB.01 20-Dec-2017
                14-Jun-2019 
 ******************************************
 %nprocshared=20
 Will use up to   20 processors via shared memory.
 %mem=100GB
 %chk=7-memb-haddTSguess-2b.chk
 ---------------------------------------------------------------
 # opt=(ts,calcfc,noeigen) freq b3lyp/6-311+g(d,p) int=grid=fine
 ---------------------------------------------------------------
 1/5=1,10=4,11=1,18=20,26=3,38=1/1,3;
 2/9=110,12=2,17=6,18=5,40=1/2;
 3/5=4,6=6,7=111,11=2,25=1,30=1,71=2,74=-5,75=-4,140=1/1,2,3;
 4//1;
 5/5=2,38=5/2;
 8/6=4,10=90,11=11/1;
 11/6=1,8=1,9=11,15=111,16=1/1,2,10;
 10/6=1,13=1/2;
 6/7=2,8=2,9=2,10=2,28=1/1;
 7/10=1,18=20,25=1/1,2,3,16;
 1/5=1,10=4,11=1,18=20,26=3/3(2);
 2/9=110/2;
 99//99;
 2/9=110/2;
 3/5=4,6=6,7=111,11=2,25=1,30=1,71=1,74=-5,75=-4/1,2,3;
 4/5=5,16=3,69=1/1;
 5/5=2,38=5/2;
 7//1,2,3,16;
 1/5=1,11=1,18=20,26=3/3(-5);
 2/9=110/2;
 6/7=2,8=2,9=2,10=2,19=2,28=1/1;
 99/9=1/99;
 ---------------------
 7-memb-haddTSguess-2b
 ---------------------
 Symbolic Z-matrix:
 Charge =  0 Multiplicity = 2
 C                     1.64225  -2.81607  -0.04491 
 C                     1.46241  -1.43631   0.04227 
 C                     2.54423  -0.54723   0.13103 
 C                     3.87175  -0.8922    0.14047 
 C                     3.03937  -3.22764  -0.02253 
 C                     4.08849  -2.32812   0.06611 
 C                     2.04009   0.75225   0.1208 
 C                     2.8586    1.87429   0.12794 
 C                     4.27473   1.55661   0.18649 
 C                     4.75687   0.25402   0.1877 
 C                     0.63578   0.70718  -0.0162 
 C                    -0.03023   1.88946  -0.26112 
 C                     0.74127   3.11581  -0.11545 
 C                     2.14926   3.10003   0.06113 
 C                     0.44196  -3.5395   -0.19447 
 C                    -0.8133   -2.87607  -0.18254 
 C                    -0.93537  -1.4373    0.0012 
 C                     0.25988  -0.71565   0.0064 
 C                     0.00679   4.34288  -0.16916 
 C                    -1.44462   1.89977  -0.65561 
 C                    -2.06735   3.18318  -0.72455 
 C                    -1.36011   4.35102  -0.4259 
 C                    -2.0294   -3.60076  -0.3827 
 C                    -3.24081  -2.96278  -0.38416 
 C                    -3.36256  -1.57233  -0.08433 
 C                    -2.21879  -0.81627   0.18744 
 C                    -2.32847   0.55689   0.70449 
 C                    -3.70883   1.04101   1.10637 
 C                    -4.67726  -0.94323  -0.02406 
 C                    -4.84717   0.28229   0.49173 
 H                    -5.83539   0.72985   0.52842 
 H                    -3.80417   0.95428   2.20185 
 H                    -1.56968   0.79045   1.44256 
 H                    -5.52447  -1.50366  -0.40724 
 H                    -4.14741  -3.52904  -0.57117 
 H                    -1.97896  -4.6716   -0.54958 
 H                     0.44938  -4.61625  -0.33474 
 H                     3.27418  -4.28524  -0.08757 
 H                     5.10123  -2.71846   0.06832 
 H                     5.83135   0.10399   0.21587 
 H                     4.99504   2.36808   0.21608 
 H                     2.66695   4.05188   0.13103 
 H                     0.53531   5.27853  -0.02316 
 H                    -1.87798   5.30361  -0.47215 
 H                    -1.70876   1.1964   -1.4401 
 H                    -3.09129   3.26062  -1.07384 
 H                    -3.81205   2.11503   0.91219 
 

 GradGradGradGradGradGradGradGradGradGradGradGradGradGradGradGradGradGrad
 Berny optimization.
 Initialization pass.
                           ----------------------------
                           !    Initial Parameters    !
                           ! (Angstroms and Degrees)  !
 --------------------------                            --------------------------
 ! Name  Definition              Value          Derivative Info.                !
 --------------------------------------------------------------------------------
 ! R1    R(1,2)                  1.3942         calculate D2E/DX2 analytically  !
 ! R2    R(1,5)                  1.4566         calculate D2E/DX2 analytically  !
 ! R3    R(1,15)                 1.4094         calculate D2E/DX2 analytically  !
 ! R4    R(2,3)                  1.4031         calculate D2E/DX2 analytically  !
 ! R5    R(2,18)                 1.4024         calculate D2E/DX2 analytically  !
 ! R6    R(3,4)                  1.3716         calculate D2E/DX2 analytically  !
 ! R7    R(3,7)                  1.3939         calculate D2E/DX2 analytically  !
 ! R8    R(4,6)                  1.4541         calculate D2E/DX2 analytically  !
 ! R9    R(4,10)                 1.449          calculate D2E/DX2 analytically  !
 ! R10   R(5,6)                  1.3848         calculate D2E/DX2 analytically  !
 ! R11   R(5,38)                 1.0853         calculate D2E/DX2 analytically  !
 ! R12   R(6,39)                 1.0854         calculate D2E/DX2 analytically  !
 ! R13   R(7,8)                  1.3889         calculate D2E/DX2 analytically  !
 ! R14   R(7,11)                 1.4117         calculate D2E/DX2 analytically  !
 ! R15   R(8,9)                  1.4525         calculate D2E/DX2 analytically  !
 ! R16   R(8,14)                 1.4178         calculate D2E/DX2 analytically  !
 ! R17   R(9,10)                 1.389          calculate D2E/DX2 analytically  !
 ! R18   R(9,41)                 1.0855         calculate D2E/DX2 analytically  !
 ! R19   R(10,40)                1.0853         calculate D2E/DX2 analytically  !
 ! R20   R(11,12)                1.3789         calculate D2E/DX2 analytically  !
 ! R21   R(11,18)                1.4718         calculate D2E/DX2 analytically  !
 ! R22   R(12,13)                1.4561         calculate D2E/DX2 analytically  !
 ! R23   R(12,20)                1.4684         calculate D2E/DX2 analytically  !
 ! R24   R(13,14)                1.4191         calculate D2E/DX2 analytically  !
 ! R25   R(13,19)                1.4311         calculate D2E/DX2 analytically  !
 ! R26   R(14,42)                1.0858         calculate D2E/DX2 analytically  !
 ! R27   R(15,16)                1.4198         calculate D2E/DX2 analytically  !
 ! R28   R(15,37)                1.0859         calculate D2E/DX2 analytically  !
 ! R29   R(16,17)                1.4556         calculate D2E/DX2 analytically  !
 ! R30   R(16,23)                1.4297         calculate D2E/DX2 analytically  !
 ! R31   R(17,18)                1.3962         calculate D2E/DX2 analytically  !
 ! R32   R(17,26)                1.4379         calculate D2E/DX2 analytically  !
 ! R33   R(19,22)                1.3908         calculate D2E/DX2 analytically  !
 ! R34   R(19,43)                1.0845         calculate D2E/DX2 analytically  !
 ! R35   R(20,21)                1.4282         calculate D2E/DX2 analytically  !
 ! R36   R(20,45)                1.0862         calculate D2E/DX2 analytically  !
 ! R37   R(21,22)                1.3976         calculate D2E/DX2 analytically  !
 ! R38   R(21,46)                1.0846         calculate D2E/DX2 analytically  !
 ! R39   R(22,44)                1.0852         calculate D2E/DX2 analytically  !
 ! R40   R(23,24)                1.3691         calculate D2E/DX2 analytically  !
 ! R41   R(23,36)                1.0849         calculate D2E/DX2 analytically  !
 ! R42   R(24,25)                1.4276         calculate D2E/DX2 analytically  !
 ! R43   R(24,35)                1.0852         calculate D2E/DX2 analytically  !
 ! R44   R(25,26)                1.3977         calculate D2E/DX2 analytically  !
 ! R45   R(25,29)                1.4587         calculate D2E/DX2 analytically  !
 ! R46   R(26,27)                1.4714         calculate D2E/DX2 analytically  !
 ! R47   R(27,28)                1.517          calculate D2E/DX2 analytically  !
 ! R48   R(27,33)                1.084          calculate D2E/DX2 analytically  !
 ! R49   R(28,30)                1.4998         calculate D2E/DX2 analytically  !
 ! R50   R(28,32)                1.103          calculate D2E/DX2 analytically  !
 ! R51   R(28,47)                1.0963         calculate D2E/DX2 analytically  !
 ! R52   R(29,30)                1.3404         calculate D2E/DX2 analytically  !
 ! R53   R(29,34)                1.0857         calculate D2E/DX2 analytically  !
 ! R54   R(30,31)                1.0855         calculate D2E/DX2 analytically  !
 ! A1    A(2,1,5)              113.7282         calculate D2E/DX2 analytically  !
 ! A2    A(2,1,15)             113.8763         calculate D2E/DX2 analytically  !
 ! A3    A(5,1,15)             132.3319         calculate D2E/DX2 analytically  !
 ! A4    A(1,2,3)              122.1138         calculate D2E/DX2 analytically  !
 ! A5    A(1,2,18)             128.1398         calculate D2E/DX2 analytically  !
 ! A6    A(3,2,18)             109.7029         calculate D2E/DX2 analytically  !
 ! A7    A(2,3,4)              125.9655         calculate D2E/DX2 analytically  !
 ! A8    A(2,3,7)              108.1439         calculate D2E/DX2 analytically  !
 ! A9    A(4,3,7)              125.7723         calculate D2E/DX2 analytically  !
 ! A10   A(3,4,6)              113.0958         calculate D2E/DX2 analytically  !
 ! A11   A(3,4,10)             113.1094         calculate D2E/DX2 analytically  !
 ! A12   A(6,4,10)             133.772          calculate D2E/DX2 analytically  !
 ! A13   A(1,5,6)              122.9621         calculate D2E/DX2 analytically  !
 ! A14   A(1,5,38)             118.8119         calculate D2E/DX2 analytically  !
 ! A15   A(6,5,38)             118.2233         calculate D2E/DX2 analytically  !
 ! A16   A(4,6,5)              122.1271         calculate D2E/DX2 analytically  !
 ! A17   A(4,6,39)             119.6125         calculate D2E/DX2 analytically  !
 ! A18   A(5,6,39)             118.2569         calculate D2E/DX2 analytically  !
 ! A19   A(3,7,8)              122.6816         calculate D2E/DX2 analytically  !
 ! A20   A(3,7,11)             109.3136         calculate D2E/DX2 analytically  !
 ! A21   A(8,7,11)             127.7735         calculate D2E/DX2 analytically  !
 ! A22   A(7,8,9)              113.4586         calculate D2E/DX2 analytically  !
 ! A23   A(7,8,14)             113.7881         calculate D2E/DX2 analytically  !
 ! A24   A(9,8,14)             132.7485         calculate D2E/DX2 analytically  !
 ! A25   A(8,9,10)             122.9277         calculate D2E/DX2 analytically  !
 ! A26   A(8,9,41)             118.9846         calculate D2E/DX2 analytically  !
 ! A27   A(10,9,41)            118.0815         calculate D2E/DX2 analytically  !
 ! A28   A(4,10,9)             121.9919         calculate D2E/DX2 analytically  !
 ! A29   A(4,10,40)            119.7541         calculate D2E/DX2 analytically  !
 ! A30   A(9,10,40)            118.2515         calculate D2E/DX2 analytically  !
 ! A31   A(7,11,12)            118.0564         calculate D2E/DX2 analytically  !
 ! A32   A(7,11,18)            106.4652         calculate D2E/DX2 analytically  !
 ! A33   A(12,11,18)           135.0921         calculate D2E/DX2 analytically  !
 ! A34   A(11,12,13)           116.6427         calculate D2E/DX2 analytically  !
 ! A35   A(11,12,20)           121.2636         calculate D2E/DX2 analytically  !
 ! A36   A(13,12,20)           122.093          calculate D2E/DX2 analytically  !
 ! A37   A(12,13,14)           121.9216         calculate D2E/DX2 analytically  !
 ! A38   A(12,13,19)           116.5158         calculate D2E/DX2 analytically  !
 ! A39   A(14,13,19)           121.5611         calculate D2E/DX2 analytically  !
 ! A40   A(8,14,13)            120.789          calculate D2E/DX2 analytically  !
 ! A41   A(8,14,42)            121.0868         calculate D2E/DX2 analytically  !
 ! A42   A(13,14,42)           118.12           calculate D2E/DX2 analytically  !
 ! A43   A(1,15,16)            120.8093         calculate D2E/DX2 analytically  !
 ! A44   A(1,15,37)            121.1218         calculate D2E/DX2 analytically  !
 ! A45   A(16,15,37)           118.0642         calculate D2E/DX2 analytically  !
 ! A46   A(15,16,17)           122.4841         calculate D2E/DX2 analytically  !
 ! A47   A(15,16,23)           120.9285         calculate D2E/DX2 analytically  !
 ! A48   A(17,16,23)           116.5738         calculate D2E/DX2 analytically  !
 ! A49   A(16,17,18)           116.0758         calculate D2E/DX2 analytically  !
 ! A50   A(16,17,26)           121.2061         calculate D2E/DX2 analytically  !
 ! A51   A(18,17,26)           122.71           calculate D2E/DX2 analytically  !
 ! A52   A(2,18,11)            106.1507         calculate D2E/DX2 analytically  !
 ! A53   A(2,18,17)            117.9408         calculate D2E/DX2 analytically  !
 ! A54   A(11,18,17)           135.9085         calculate D2E/DX2 analytically  !
 ! A55   A(13,19,22)           121.0873         calculate D2E/DX2 analytically  !
 ! A56   A(13,19,43)           118.9853         calculate D2E/DX2 analytically  !
 ! A57   A(22,19,43)           119.9188         calculate D2E/DX2 analytically  !
 ! A58   A(12,20,21)           116.0574         calculate D2E/DX2 analytically  !
 ! A59   A(12,20,45)           115.0683         calculate D2E/DX2 analytically  !
 ! A60   A(21,20,45)           116.1677         calculate D2E/DX2 analytically  !
 ! A61   A(20,21,22)           121.3286         calculate D2E/DX2 analytically  !
 ! A62   A(20,21,46)           119.4285         calculate D2E/DX2 analytically  !
 ! A63   A(22,21,46)           119.1355         calculate D2E/DX2 analytically  !
 ! A64   A(19,22,21)           122.1336         calculate D2E/DX2 analytically  !
 ! A65   A(19,22,44)           118.8155         calculate D2E/DX2 analytically  !
 ! A66   A(21,22,44)           118.8738         calculate D2E/DX2 analytically  !
 ! A67   A(16,23,24)           121.1014         calculate D2E/DX2 analytically  !
 ! A68   A(16,23,36)           118.8337         calculate D2E/DX2 analytically  !
 ! A69   A(24,23,36)           120.0589         calculate D2E/DX2 analytically  !
 ! A70   A(23,24,25)           121.943          calculate D2E/DX2 analytically  !
 ! A71   A(23,24,35)           119.7516         calculate D2E/DX2 analytically  !
 ! A72   A(25,24,35)           118.2416         calculate D2E/DX2 analytically  !
 ! A73   A(24,25,26)           119.8601         calculate D2E/DX2 analytically  !
 ! A74   A(24,25,29)           120.3701         calculate D2E/DX2 analytically  !
 ! A75   A(26,25,29)           119.7487         calculate D2E/DX2 analytically  !
 ! A76   A(17,26,25)           118.137          calculate D2E/DX2 analytically  !
 ! A77   A(17,26,27)           121.0057         calculate D2E/DX2 analytically  !
 ! A78   A(25,26,27)           120.8063         calculate D2E/DX2 analytically  !
 ! A79   A(26,27,28)           117.3067         calculate D2E/DX2 analytically  !
 ! A80   A(26,27,33)           112.8403         calculate D2E/DX2 analytically  !
 ! A81   A(28,27,33)           112.8176         calculate D2E/DX2 analytically  !
 ! A82   A(27,28,30)           114.8743         calculate D2E/DX2 analytically  !
 ! A83   A(27,28,32)           108.4613         calculate D2E/DX2 analytically  !
 ! A84   A(27,28,47)           110.5723         calculate D2E/DX2 analytically  !
 ! A85   A(30,28,32)           107.5562         calculate D2E/DX2 analytically  !
 ! A86   A(30,28,47)           110.5827         calculate D2E/DX2 analytically  !
 ! A87   A(32,28,47)           104.1706         calculate D2E/DX2 analytically  !
 ! A88   A(25,29,30)           121.63           calculate D2E/DX2 analytically  !
 ! A89   A(25,29,34)           117.782          calculate D2E/DX2 analytically  !
 ! A90   A(30,29,34)           120.587          calculate D2E/DX2 analytically  !
 ! A91   A(28,30,29)           121.6016         calculate D2E/DX2 analytically  !
 ! A92   A(28,30,31)           117.9417         calculate D2E/DX2 analytically  !
 ! A93   A(29,30,31)           120.3562         calculate D2E/DX2 analytically  !
 ! D1    D(5,1,2,3)              0.5078         calculate D2E/DX2 analytically  !
 ! D2    D(5,1,2,18)           177.8514         calculate D2E/DX2 analytically  !
 ! D3    D(15,1,2,3)          -176.9552         calculate D2E/DX2 analytically  !
 ! D4    D(15,1,2,18)            0.3885         calculate D2E/DX2 analytically  !
 ! D5    D(2,1,5,6)             -0.5021         calculate D2E/DX2 analytically  !
 ! D6    D(2,1,5,38)          -179.8975         calculate D2E/DX2 analytically  !
 ! D7    D(15,1,5,6)           176.3591         calculate D2E/DX2 analytically  !
 ! D8    D(15,1,5,38)           -3.0362         calculate D2E/DX2 analytically  !
 ! D9    D(2,1,15,16)           -2.9798         calculate D2E/DX2 analytically  !
 ! D10   D(2,1,15,37)          176.2245         calculate D2E/DX2 analytically  !
 ! D11   D(5,1,15,16)         -179.8375         calculate D2E/DX2 analytically  !
 ! D12   D(5,1,15,37)           -0.6332         calculate D2E/DX2 analytically  !
 ! D13   D(1,2,3,4)              0.1878         calculate D2E/DX2 analytically  !
 ! D14   D(1,2,3,7)            176.4066         calculate D2E/DX2 analytically  !
 ! D15   D(18,2,3,4)          -177.5932         calculate D2E/DX2 analytically  !
 ! D16   D(18,2,3,7)            -1.3745         calculate D2E/DX2 analytically  !
 ! D17   D(1,2,18,11)         -173.7908         calculate D2E/DX2 analytically  !
 ! D18   D(1,2,18,17)            6.2531         calculate D2E/DX2 analytically  !
 ! D19   D(3,2,18,11)            3.8196         calculate D2E/DX2 analytically  !
 ! D20   D(3,2,18,17)         -176.1365         calculate D2E/DX2 analytically  !
 ! D21   D(2,3,4,6)             -0.8405         calculate D2E/DX2 analytically  !
 ! D22   D(2,3,4,10)           177.6671         calculate D2E/DX2 analytically  !
 ! D23   D(7,3,4,6)           -176.4105         calculate D2E/DX2 analytically  !
 ! D24   D(7,3,4,10)             2.097          calculate D2E/DX2 analytically  !
 ! D25   D(2,3,7,8)           -176.665          calculate D2E/DX2 analytically  !
 ! D26   D(2,3,7,11)            -1.799          calculate D2E/DX2 analytically  !
 ! D27   D(4,3,7,8)             -0.4371         calculate D2E/DX2 analytically  !
 ! D28   D(4,3,7,11)           174.4289         calculate D2E/DX2 analytically  !
 ! D29   D(3,4,6,5)              0.8143         calculate D2E/DX2 analytically  !
 ! D30   D(3,4,6,39)          -179.8784         calculate D2E/DX2 analytically  !
 ! D31   D(10,4,6,5)          -177.2846         calculate D2E/DX2 analytically  !
 ! D32   D(10,4,6,39)            2.0227         calculate D2E/DX2 analytically  !
 ! D33   D(3,4,10,9)            -1.5947         calculate D2E/DX2 analytically  !
 ! D34   D(3,4,10,40)          178.9856         calculate D2E/DX2 analytically  !
 ! D35   D(6,4,10,9)           176.504          calculate D2E/DX2 analytically  !
 ! D36   D(6,4,10,40)           -2.9157         calculate D2E/DX2 analytically  !
 ! D37   D(1,5,6,4)             -0.1726         calculate D2E/DX2 analytically  !
 ! D38   D(1,5,6,39)          -179.489          calculate D2E/DX2 analytically  !
 ! D39   D(38,5,6,4)           179.2261         calculate D2E/DX2 analytically  !
 ! D40   D(38,5,6,39)           -0.0902         calculate D2E/DX2 analytically  !
 ! D41   D(3,7,8,9)             -1.7017         calculate D2E/DX2 analytically  !
 ! D42   D(3,7,8,14)           177.6064         calculate D2E/DX2 analytically  !
 ! D43   D(11,7,8,9)          -175.5686         calculate D2E/DX2 analytically  !
 ! D44   D(11,7,8,14)            3.7394         calculate D2E/DX2 analytically  !
 ! D45   D(3,7,11,12)         -169.8473         calculate D2E/DX2 analytically  !
 ! D46   D(3,7,11,18)            4.0839         calculate D2E/DX2 analytically  !
 ! D47   D(8,7,11,12)            4.6849         calculate D2E/DX2 analytically  !
 ! D48   D(8,7,11,18)          178.6161         calculate D2E/DX2 analytically  !
 ! D49   D(7,8,9,10)             2.1192         calculate D2E/DX2 analytically  !
 ! D50   D(7,8,9,41)          -178.812          calculate D2E/DX2 analytically  !
 ! D51   D(14,8,9,10)         -177.0186         calculate D2E/DX2 analytically  !
 ! D52   D(14,8,9,41)            2.0502         calculate D2E/DX2 analytically  !
 ! D53   D(7,8,14,13)           -5.1982         calculate D2E/DX2 analytically  !
 ! D54   D(7,8,14,42)          175.5614         calculate D2E/DX2 analytically  !
 ! D55   D(9,8,14,13)          173.9373         calculate D2E/DX2 analytically  !
 ! D56   D(9,8,14,42)           -5.303          calculate D2E/DX2 analytically  !
 ! D57   D(8,9,10,4)            -0.4865         calculate D2E/DX2 analytically  !
 ! D58   D(8,9,10,40)          178.9416         calculate D2E/DX2 analytically  !
 ! D59   D(41,9,10,4)         -179.5633         calculate D2E/DX2 analytically  !
 ! D60   D(41,9,10,40)          -0.1351         calculate D2E/DX2 analytically  !
 ! D61   D(7,11,12,13)         -10.8973         calculate D2E/DX2 analytically  !
 ! D62   D(7,11,12,20)         168.7808         calculate D2E/DX2 analytically  !
 ! D63   D(18,11,12,13)        177.3597         calculate D2E/DX2 analytically  !
 ! D64   D(18,11,12,20)         -2.9622         calculate D2E/DX2 analytically  !
 ! D65   D(7,11,18,2)           -4.7987         calculate D2E/DX2 analytically  !
 ! D66   D(7,11,18,17)         175.1456         calculate D2E/DX2 analytically  !
 ! D67   D(12,11,18,2)         167.6071         calculate D2E/DX2 analytically  !
 ! D68   D(12,11,18,17)        -12.4487         calculate D2E/DX2 analytically  !
 ! D69   D(11,12,13,14)          9.629          calculate D2E/DX2 analytically  !
 ! D70   D(11,12,13,19)       -170.8094         calculate D2E/DX2 analytically  !
 ! D71   D(20,12,13,14)       -170.0463         calculate D2E/DX2 analytically  !
 ! D72   D(20,12,13,19)          9.5154         calculate D2E/DX2 analytically  !
 ! D73   D(11,12,20,21)        172.718          calculate D2E/DX2 analytically  !
 ! D74   D(11,12,20,45)        -46.868          calculate D2E/DX2 analytically  !
 ! D75   D(13,12,20,21)         -7.6216         calculate D2E/DX2 analytically  !
 ! D76   D(13,12,20,45)        132.7924         calculate D2E/DX2 analytically  !
 ! D77   D(12,13,14,8)          -1.2174         calculate D2E/DX2 analytically  !
 ! D78   D(12,13,14,42)        178.045          calculate D2E/DX2 analytically  !
 ! D79   D(19,13,14,8)         179.243          calculate D2E/DX2 analytically  !
 ! D80   D(19,13,14,42)         -1.4946         calculate D2E/DX2 analytically  !
 ! D81   D(12,13,19,22)         -3.626          calculate D2E/DX2 analytically  !
 ! D82   D(12,13,19,43)        177.4373         calculate D2E/DX2 analytically  !
 ! D83   D(14,13,19,22)        175.9373         calculate D2E/DX2 analytically  !
 ! D84   D(14,13,19,43)         -2.9994         calculate D2E/DX2 analytically  !
 ! D85   D(1,15,16,17)          -0.9096         calculate D2E/DX2 analytically  !
 ! D86   D(1,15,16,23)         177.7007         calculate D2E/DX2 analytically  !
 ! D87   D(37,15,16,17)        179.8624         calculate D2E/DX2 analytically  !
 ! D88   D(37,15,16,23)         -1.5273         calculate D2E/DX2 analytically  !
 ! D89   D(15,16,17,18)          7.3996         calculate D2E/DX2 analytically  !
 ! D90   D(15,16,17,26)       -171.5956         calculate D2E/DX2 analytically  !
 ! D91   D(23,16,17,18)       -171.2675         calculate D2E/DX2 analytically  !
 ! D92   D(23,16,17,26)          9.7373         calculate D2E/DX2 analytically  !
 ! D93   D(15,16,23,24)       -179.3918         calculate D2E/DX2 analytically  !
 ! D94   D(15,16,23,36)         -0.2804         calculate D2E/DX2 analytically  !
 ! D95   D(17,16,23,24)         -0.7025         calculate D2E/DX2 analytically  !
 ! D96   D(17,16,23,36)        178.4089         calculate D2E/DX2 analytically  !
 ! D97   D(16,17,18,2)          -9.5187         calculate D2E/DX2 analytically  !
 ! D98   D(16,17,18,11)        170.5419         calculate D2E/DX2 analytically  !
 ! D99   D(26,17,18,2)         169.4599         calculate D2E/DX2 analytically  !
 ! D100  D(26,17,18,11)        -10.4795         calculate D2E/DX2 analytically  !
 ! D101  D(16,17,26,25)        -12.9945         calculate D2E/DX2 analytically  !
 ! D102  D(16,17,26,27)        164.427          calculate D2E/DX2 analytically  !
 ! D103  D(18,17,26,25)        168.0781         calculate D2E/DX2 analytically  !
 ! D104  D(18,17,26,27)        -14.5004         calculate D2E/DX2 analytically  !
 ! D105  D(13,19,22,21)         -4.0411         calculate D2E/DX2 analytically  !
 ! D106  D(13,19,22,44)       -179.1489         calculate D2E/DX2 analytically  !
 ! D107  D(43,19,22,21)        174.8857         calculate D2E/DX2 analytically  !
 ! D108  D(43,19,22,44)         -0.2221         calculate D2E/DX2 analytically  !
 ! D109  D(12,20,21,22)         -0.2451         calculate D2E/DX2 analytically  !
 ! D110  D(12,20,21,46)        175.9539         calculate D2E/DX2 analytically  !
 ! D111  D(45,20,21,22)       -140.2198         calculate D2E/DX2 analytically  !
 ! D112  D(45,20,21,46)         35.9792         calculate D2E/DX2 analytically  !
 ! D113  D(20,21,22,19)          6.0921         calculate D2E/DX2 analytically  !
 ! D114  D(20,21,22,44)       -178.8029         calculate D2E/DX2 analytically  !
 ! D115  D(46,21,22,19)       -170.1178         calculate D2E/DX2 analytically  !
 ! D116  D(46,21,22,44)          4.9872         calculate D2E/DX2 analytically  !
 ! D117  D(16,23,24,25)         -4.9961         calculate D2E/DX2 analytically  !
 ! D118  D(16,23,24,35)        177.9593         calculate D2E/DX2 analytically  !
 ! D119  D(36,23,24,25)        175.9033         calculate D2E/DX2 analytically  !
 ! D120  D(36,23,24,35)         -1.1414         calculate D2E/DX2 analytically  !
 ! D121  D(23,24,25,26)          1.6869         calculate D2E/DX2 analytically  !
 ! D122  D(23,24,25,29)       -176.6391         calculate D2E/DX2 analytically  !
 ! D123  D(35,24,25,26)        178.7745         calculate D2E/DX2 analytically  !
 ! D124  D(35,24,25,29)          0.4485         calculate D2E/DX2 analytically  !
 ! D125  D(24,25,26,17)          7.1702         calculate D2E/DX2 analytically  !
 ! D126  D(24,25,26,27)       -170.2567         calculate D2E/DX2 analytically  !
 ! D127  D(29,25,26,17)       -174.4933         calculate D2E/DX2 analytically  !
 ! D128  D(29,25,26,27)          8.0798         calculate D2E/DX2 analytically  !
 ! D129  D(24,25,29,30)        167.4068         calculate D2E/DX2 analytically  !
 ! D130  D(24,25,29,34)        -12.2273         calculate D2E/DX2 analytically  !
 ! D131  D(26,25,29,30)        -10.9211         calculate D2E/DX2 analytically  !
 ! D132  D(26,25,29,34)        169.4448         calculate D2E/DX2 analytically  !
 ! D133  D(17,26,27,28)       -169.1593         calculate D2E/DX2 analytically  !
 ! D134  D(17,26,27,33)        -35.4484         calculate D2E/DX2 analytically  !
 ! D135  D(25,26,27,28)          8.1933         calculate D2E/DX2 analytically  !
 ! D136  D(25,26,27,33)        141.9042         calculate D2E/DX2 analytically  !
 ! D137  D(26,27,28,30)        -21.0118         calculate D2E/DX2 analytically  !
 ! D138  D(26,27,28,32)         99.34           calculate D2E/DX2 analytically  !
 ! D139  D(26,27,28,47)       -147.0211         calculate D2E/DX2 analytically  !
 ! D140  D(33,27,28,30)       -154.7327         calculate D2E/DX2 analytically  !
 ! D141  D(33,27,28,32)        -34.3809         calculate D2E/DX2 analytically  !
 ! D142  D(33,27,28,47)         79.2579         calculate D2E/DX2 analytically  !
 ! D143  D(27,28,30,29)         19.2582         calculate D2E/DX2 analytically  !
 ! D144  D(27,28,30,31)       -164.375          calculate D2E/DX2 analytically  !
 ! D145  D(32,28,30,29)       -101.5911         calculate D2E/DX2 analytically  !
 ! D146  D(32,28,30,31)         74.7757         calculate D2E/DX2 analytically  !
 ! D147  D(47,28,30,29)        145.2621         calculate D2E/DX2 analytically  !
 ! D148  D(47,28,30,31)        -38.371          calculate D2E/DX2 analytically  !
 ! D149  D(25,29,30,28)         -3.5745         calculate D2E/DX2 analytically  !
 ! D150  D(25,29,30,31)       -179.8548         calculate D2E/DX2 analytically  !
 ! D151  D(34,29,30,28)        176.0495         calculate D2E/DX2 analytically  !
 ! D152  D(34,29,30,31)         -0.2308         calculate D2E/DX2 analytically  !
 --------------------------------------------------------------------------------
 Trust Radius=3.00D-01 FncErr=1.00D-07 GrdErr=1.00D-06 EigMax=2.50D+02 EigMin=1.00D-04
 Number of steps in this run=    282 maximum allowed number of steps=    282.
 Search for a saddle point of order  1.
 GradGradGradGradGradGradGradGradGradGradGradGradGradGradGradGradGradGrad

                          Input orientation:                          
 ---------------------------------------------------------------------
 Center     Atomic      Atomic             Coordinates (Angstroms)
 Number     Number       Type             X           Y           Z
 ---------------------------------------------------------------------
      1          6           0        1.642253   -2.816065   -0.044910
      2          6           0        1.462409   -1.436308    0.042272
      3          6           0        2.544234   -0.547233    0.131027
      4          6           0        3.871750   -0.892199    0.140466
      5          6           0        3.039367   -3.227644   -0.022526
      6          6           0        4.088495   -2.328119    0.066112
      7          6           0        2.040087    0.752254    0.120796
      8          6           0        2.858599    1.874294    0.127942
      9          6           0        4.274731    1.556609    0.186492
     10          6           0        4.756870    0.254019    0.187699
     11          6           0        0.635780    0.707184   -0.016196
     12          6           0       -0.030231    1.889463   -0.261122
     13          6           0        0.741267    3.115807   -0.115449
     14          6           0        2.149262    3.100030    0.061125
     15          6           0        0.441955   -3.539499   -0.194469
     16          6           0       -0.813299   -2.876070   -0.182537
     17          6           0       -0.935374   -1.437297    0.001196
     18          6           0        0.259881   -0.715654    0.006403
     19          6           0        0.006787    4.342882   -0.169160
     20          6           0       -1.444617    1.899774   -0.655612
     21          6           0       -2.067349    3.183180   -0.724552
     22          6           0       -1.360109    4.351022   -0.425898
     23          6           0       -2.029401   -3.600755   -0.382701
     24          6           0       -3.240807   -2.962777   -0.384162
     25          6           0       -3.362555   -1.572327   -0.084331
     26          6           0       -2.218793   -0.816273    0.187444
     27          6           0       -2.328472    0.556885    0.704486
     28          6           0       -3.708830    1.041008    1.106374
     29          6           0       -4.677264   -0.943225   -0.024063
     30          6           0       -4.847172    0.282286    0.491726
     31          1           0       -5.835394    0.729848    0.528416
     32          1           0       -3.804169    0.954278    2.201851
     33          1           0       -1.569682    0.790448    1.442556
     34          1           0       -5.524472   -1.503659   -0.407244
     35          1           0       -4.147410   -3.529041   -0.571173
     36          1           0       -1.978960   -4.671600   -0.549575
     37          1           0        0.449380   -4.616245   -0.334740
     38          1           0        3.274184   -4.285241   -0.087566
     39          1           0        5.101226   -2.718460    0.068323
     40          1           0        5.831354    0.103986    0.215872
     41          1           0        4.995043    2.368083    0.216081
     42          1           0        2.666951    4.051884    0.131031
     43          1           0        0.535314    5.278533   -0.023162
     44          1           0       -1.877982    5.303609   -0.472153
     45          1           0       -1.708758    1.196403   -1.440095
     46          1           0       -3.091293    3.260623   -1.073838
     47          1           0       -3.812046    2.115034    0.912185
 ---------------------------------------------------------------------
                    Distance matrix (angstroms):
                    1          2          3          4          5
     1  C    0.000000
     2  C    1.394157   0.000000
     3  C    2.447881   1.403096   0.000000
     4  C    2.950641   2.471967   1.371637   0.000000
     5  C    1.456649   2.387442   2.730080   2.484699   0.000000
     6  C    2.496902   2.773486   2.358074   1.454088   1.384800
     7  C    3.594250   2.264880   1.393892   2.461626   4.105933
     8  C    4.848592   3.593991   2.441849   2.946204   5.107356
     9  C    5.109184   4.109441   2.724674   2.482171   4.945593
    10  C    4.379539   3.705648   2.353927   1.448960   3.887929
    11  C    3.664300   2.298106   2.288544   3.613042   4.610872
    12  C    4.998594   3.657974   3.566390   4.808781   5.971946
    13  C    6.000321   4.611580   4.090147   5.092105   6.747538
    14  C    5.938727   4.588081   3.669253   4.348695   6.390520
    15  C    1.409411   2.349635   3.671400   4.345558   2.621711
    16  C    2.460138   2.702277   4.098150   5.098015   3.871982
    17  C    2.923575   2.398135   3.593987   4.839935   4.359412
    18  C    2.515017   1.402392   2.293941   3.618665   3.746528
    19  C    7.344434   5.963437   5.517425   6.514590   8.156648
    20  C    5.669291   4.479652   4.745269   6.057443   6.840857
    21  C    7.086184   5.864033   5.992887   7.254645   8.226181
    22  C    7.779876   6.455926   6.288638   7.428626   8.772359
    23  C    3.769733   4.130154   5.523228   6.514105   5.095228
    24  C    4.897029   4.963083   6.290228   7.426372   6.296151
    25  C    5.157183   4.828541   5.998946   7.269682   6.612753
    26  C    4.354404   3.735876   4.770953   6.091197   5.788527
    27  C    5.263558   4.333835   5.029035   6.392239   6.607942
    28  C    6.696010   5.831905   6.524923   7.882605   8.064364
    29  C    6.591226   6.159798   7.234010   8.550749   8.047668
    30  C    7.211130   6.554875   7.446549   8.804681   8.647633
    31  H    8.295626   7.628007   8.485695   9.849375   9.732762
    32  H    6.994779   6.173777   6.844346   8.159566   8.322879
    33  H    5.053317   4.014077   4.520376   5.842595   6.287675
    34  H    7.294905   7.001650   8.143003   9.432012   8.744111
    35  H    5.857088   6.018797   7.359508   8.471499   7.213988
    36  H    4.100107   4.760296   6.158970   6.999345   5.248466
    37  H    2.178898   3.358625   4.600240   5.080055   2.955287
    38  H    2.196246   3.378728   3.814881   3.452799   1.085302
    39  H    3.462202   3.858184   3.355051   2.202736   2.125743
    40  H    5.113049   4.635766   3.352080   2.199572   4.353365
    41  H    6.179378   5.194526   3.809562   3.449195   5.932433
    42  H    6.946199   5.619524   4.600754   5.088771   7.290665
    43  H    8.169964   6.778855   6.164340   7.016873   8.867092
    44  H    8.860231   7.539849   7.358816   8.474831   9.857219
    45  H    5.410704   4.380055   4.857636   6.164617   6.642769
    46  H    7.771183   6.636495   6.907288   8.197831   8.988207
    47  H    7.414927   6.417839   6.935429   8.287323   8.738407
                    6          7          8          9         10
     6  C    0.000000
     7  C    3.699684   0.000000
     8  C    4.379126   1.388880   0.000000
     9  C    3.891052   2.375908   1.452509   0.000000
    10  C    2.670008   2.762901   2.496456   1.388957   0.000000
    11  C    4.597943   1.411693   2.514726   3.742268   4.150941
    12  C    5.904150   2.392765   2.914951   4.340950   5.078627
    13  C    6.393217   2.707236   2.466513   3.873969   4.940324
    14  C    5.764152   2.351070   1.417763   2.629731   3.862049
    15  C    3.851311   4.590486   5.937447   6.387928   5.758066
    16  C    4.938589   4.625858   6.012087   6.758171   6.400103
    17  C    5.102650   3.696188   5.037552   6.011905   5.941126
    18  C    4.154744   2.310189   3.670959   4.616777   4.603916
    19  C    7.824190   4.136544   3.783521   5.109320   6.277694
    20  C    7.000807   3.750036   4.374046   5.791187   6.471331
    21  C    8.300240   4.847169   5.167678   6.610425   7.482122
    22  C    8.633672   4.981098   4.923253   6.319429   7.387785
    23  C    6.264957   5.980211   7.357273   8.164831   7.825478
    24  C    7.370496   6.476440   7.801427   8.788277   8.639308
    25  C    7.490794   5.885091   7.115266   8.257828   8.326740
    26  C    6.487086   4.539028   5.746529   6.913496   7.057294
    27  C    7.064576   4.411708   5.382720   6.698511   7.110617
    28  C    8.557537   5.839931   6.691997   8.052905   8.551689
    29  C    8.874942   6.929534   8.046785   9.296866   9.512156
    30  C    9.318879   6.913233   7.876912   9.215540   9.608895
    31  H   10.394636   7.886055   8.778135  10.149634  10.608419
    32  H    8.810769   6.207007   7.038466   8.348239   8.822616
    33  H    6.605681   3.844339   4.744745   6.026762   6.472069
    34  H    9.659862   7.911417   9.053887  10.283100  10.447458
    35  H    8.347363   7.556019   8.875187   9.867642   9.704310
    36  H    6.533375   6.783828   8.167603   8.856694   8.377154
    37  H    4.317333   5.617708   6.938696   7.280736   6.522797
    38  H    2.125334   5.190642   6.177299   5.933246   4.783201
    39  H    1.085355   4.628086   5.111391   4.355832   2.994739
    40  H    2.995851   3.847466   3.461068   2.129331   1.085274
    41  H    4.785252   3.369235   2.194536   1.085456   2.127627
    42  H    6.536776   3.358664   2.186009   2.968911   4.335291
    43  H    8.396084   4.772030   4.124237   5.280143   6.565953
    44  H    9.702157   6.034707   5.878394   7.233927   8.363912
    45  H    6.949752   4.085032   4.876374   6.211093   6.733658
    46  H    9.169672   5.835249   6.226347   7.664881   8.498518
    47  H    9.103625   6.060604   6.720900   8.138454   8.798555
                   11         12         13         14         15
    11  C    0.000000
    12  C    1.378892   0.000000
    13  C    2.412974   1.456142   0.000000
    14  C    2.832370   2.513863   1.419111   0.000000
    15  C    4.254840   5.449865   6.662502   6.860289   0.000000
    16  C    3.868748   4.830080   6.190619   6.674572   1.419839
    17  C    2.658501   3.457662   4.853400   5.486885   2.520828
    18  C    1.471828   2.634838   3.863505   4.258192   2.836829
    19  C    3.692876   2.455421   1.431104   2.487551   7.894425
    20  C    2.481769   1.468406   2.559023   3.856202   5.775595
    21  C    3.733528   2.457299   2.874695   4.289990   7.195277
    22  C    4.174803   2.802677   2.457217   3.757374   8.096994
    23  C    5.078962   5.844139   7.270504   7.909407   2.479271
    24  C    5.350882   5.819551   7.271747   8.124577   3.732469
    25  C    4.602988   4.808287   6.230644   7.227185   4.284413
    26  C    3.242064   3.508849   4.931019   5.867989   3.826408
    27  C    3.054302   2.826672   4.079666   5.189567   5.026306
    28  C    4.499693   4.015223   5.059744   6.296774   6.316823
    29  C    5.563483   5.447498   6.770862   7.934521   5.742480
    30  C    5.522797   5.133490   6.295090   7.554812   6.561385
    31  H    6.494090   5.972269   7.025655   8.342113   7.625942
    32  H    4.969299   4.602544   5.541036   6.680591   6.630682
    33  H    2.645553   2.545636   3.629760   4.590541   5.047274
    34  H    6.556634   6.459204   7.790000   8.961000   6.307786
    35  H    6.413463   6.812304   8.262013   9.164740   4.604811
    36  H    6.004388   6.850423   8.260255   8.821191   2.696031
    37  H    5.336208   6.523778   7.740666   7.911208   1.085870
    38  H    5.647174   7.005444   7.822529   7.471933   2.930713
    39  H    5.628711   6.904588   7.285718   6.524490   4.738351
    40  H    5.235618   6.146026   5.923667   4.749529   6.518357
    41  H    4.670729   5.070521   4.331699   2.942487   7.469852
    42  H    3.915910   3.479172   2.155285   1.085778   7.917427
    43  H    4.572458   3.444163   2.174469   2.712528   8.820190
    44  H    5.258709   3.887816   3.431353   4.621563   9.146572
    45  H    2.786338   2.165124   3.382517   4.556509   5.348450
    46  H    4.640014   3.451186   3.953226   5.364452   7.713546
    47  H    4.756794   3.966063   4.773912   6.101780   7.162049
                   16         17         18         19         20
    16  C    0.000000
    17  C    1.455585   0.000000
    18  C    2.419672   1.396220   0.000000
    19  C    7.265397   5.858938   5.067905   0.000000
    20  C    4.840563   3.439007   3.191244   2.883051   0.000000
    21  C    6.211355   4.812160   4.599044   2.440371   1.428173
    22  C    7.251833   5.819574   5.336896   1.390822   2.463438
    23  C    1.429734   2.454551   3.703515   8.203233   5.538255
    24  C    2.437410   2.791167   4.178148   7.997859   5.190798
    25  C    2.864978   2.432438   3.723461   6.808036   4.007535
    26  C    2.520925   1.437889   2.487313   5.630031   2.947372
    27  C    3.855871   2.532213   2.967532   4.533262   2.105806
    28  C    5.038739   3.880138   4.477328   5.131780   2.994785
    29  C    4.323335   3.774452   4.942481   7.064299   4.351035
    30  C    5.167395   4.301133   5.226224   6.362871   3.938278
    31  H    6.223306   5.383742   6.286044   6.904470   4.695697
    32  H    5.413148   4.335032   4.911738   5.623852   3.824466
    33  H    4.081225   2.728134   2.770953   4.207454   2.376669
    34  H    4.912144   4.607716   5.852418   8.051928   5.318859
    35  H    3.419606   3.875587   5.260509   8.909890   6.065002
    36  H    2.171960   3.442838   4.579414   9.238441   6.593916
    37  H    2.155396   3.483692   3.920064   8.971581   6.793282
    38  H    4.324616   5.083212   4.672987   9.226432   7.800267
    39  H    5.921940   6.171420   5.239627   8.710468   8.043645
    40  H    7.293208   6.943360   5.635335   7.214019   7.544806
    41  H    7.835616   7.049606   5.654658   5.378749   6.515242
    42  H    7.759318   6.566941   5.342185   2.692818   4.706950
    43  H    8.266904   6.875019   6.000585   1.084481   3.966879
    44  H    8.253761   6.822931   6.405545   2.137090   3.436212
    45  H    4.355265   3.100293   3.102234   3.802460   1.086239
    46  H    6.606260   5.279596   5.311127   3.404090   2.176779
    47  H    5.924696   4.660922   5.041213   4.551494   2.847638
                   21         22         23         24         25
    21  C    0.000000
    22  C    1.397583   0.000000
    23  C    6.792649   7.980011   0.000000
    24  C    6.266231   7.551849   1.369132   0.000000
    25  C    4.970140   6.261990   2.445576   1.427611   0.000000
    26  C    4.104911   5.273942   2.848557   2.445143   1.397738
    27  C    3.001293   4.075656   4.307829   3.795462   2.495016
    28  C    3.261235   4.338265   5.155947   4.297794   2.892612
    29  C    4.932500   6.260514   3.768589   2.504330   1.458719
    30  C    4.197849   5.436566   4.876727   3.725322   2.444487
    31  H    4.667647   5.835391   5.836937   4.604363   3.433715
    32  H    4.067970   4.941292   5.529741   4.727384   3.435896
    33  H    3.266374   4.026503   4.777611   4.496249   3.335938
    34  H    5.832567   7.184675   4.076020   2.710108   2.186978
    35  H    7.028804   8.359757   2.127587   1.085153   2.163733
    36  H    7.857226   9.044666   1.084943   2.130656   3.425825
    37  H    8.204688   9.148466   2.679156   4.043993   4.884567
    38  H    9.204077   9.806945   5.355711   6.654471   7.169813
    39  H    9.319146   9.590135   7.199146   8.357867   8.542395
    40  H    8.529674   8.376534   8.710618   9.595269   9.350300
    41  H    7.171231   6.688209   9.237336   9.828916   9.244811
    42  H    4.888790   4.076379   8.993471   9.185450   8.248216
    43  H    3.414133   2.148279   9.249259   9.072409   7.882348
    44  H    2.143778   1.085244   8.906101   8.378435   7.045059
    45  H    2.141932   3.331932   4.922765   4.556418   3.498429
    46  H    1.084647   2.146111   6.977377   6.263283   4.940659
    47  H    2.619888   3.578003   6.125749   5.271716   3.846000
                   26         27         28         29         30
    26  C    0.000000
    27  C    1.471368   0.000000
    28  C    2.552280   1.516996   0.000000
    29  C    2.470816   2.880614   2.480511   0.000000
    30  C    2.864925   2.542542   1.499758   1.340442   0.000000
    31  H    3.947981   3.515597   2.225563   2.108476   1.085468
    32  H    3.115462   2.139557   1.103033   3.052459   2.112808
    33  H    2.139674   1.084002   2.179852   3.848852   3.450253
    34  H    3.428362   3.961843   3.473172   1.085668   2.111038
    35  H    3.413821   4.650874   4.887930   2.695648   4.018163
    36  H    3.932463   5.388124   6.194232   4.632255   5.818242
    37  H    4.672431   5.963030   7.167429   6.314275   7.261688
    38  H    6.502474   7.447368   8.863233   8.625464   9.335647
    39  H    7.564072   8.144507   9.634741   9.938756  10.399729
    40  H    8.102626   8.186979   9.627363  10.563393  10.683576
    41  H    7.885453   7.559950   8.849359  10.226238  10.064578
    42  H    6.897291   6.123571   7.118093   8.883280   8.414393
    43  H    6.691496   5.569982   6.102887   8.116726   7.361980
    44  H    6.164753   4.911090   4.900359   6.860007   5.912600
    45  H    2.638159   2.322123   3.241750   3.923670   3.796997
    46  H    4.355820   3.324836   3.171966   4.614073   3.795338
    47  H    3.414127   2.161471   1.096310   3.313323   2.146447
                   31         32         33         34         35
    31  H    0.000000
    32  H    2.641331   0.000000
    33  H    4.362983   2.365650   0.000000
    34  H    2.441452   3.975962   4.932043   0.000000
    35  H    4.711318   5.282767   5.418281   2.454658   0.000000
    36  H    6.723822   6.523208   5.828384   4.756760   2.451139
    37  H    8.296031   7.453704   6.038851   6.736494   4.729523
    38  H   10.417052   9.099290   7.181012   9.233403   7.475679
    39  H   11.476592   9.866459   7.661721  10.705483   9.306087
    40  H   11.687703   9.874736   7.533347  11.485973  10.648665
    41  H   10.958090   9.130622   6.862127  11.226714  10.907809
    42  H    9.136942   7.467185   5.505100   9.912276  10.217584
    43  H    7.847337   6.517743   5.169356   9.103112   9.990074
    44  H    6.130378   5.456847   4.912207   7.722694   9.120078
    45  H    4.595850   4.208698   2.914416   4.787148   5.388123
    46  H    4.062281   4.069098   3.840482   5.391019   6.889673
    47  H    2.481926   1.735124   2.657822   4.215238   5.845374
                   36         37         38         39         40
    36  H    0.000000
    37  H    2.438453   0.000000
    38  H    5.287556   2.854851   0.000000
    39  H    7.370589   5.040210   2.411884   0.000000
    40  H    9.186574   7.179791   5.088861   2.919085   0.000000
    41  H    9.938817   8.351485   6.878974   5.089796   2.413618
    42  H    9.906911   8.959410   8.362067   7.194942   5.060291
    43  H   10.276372   9.900055   9.948434   9.209116   7.408179
    44  H    9.976021  10.190142  10.892142  10.646833   9.324340
    45  H    5.941338   6.298114   7.530436   7.998585   7.796723
    46  H    8.026973   8.667623   9.921295  10.206436   9.552033
    47  H    7.180205   8.063789   9.600921  10.174536   9.875441
                   41         42         43         44         45
    41  H    0.000000
    42  H    2.874445   0.000000
    43  H    5.330773   2.464208   0.000000
    44  H    7.505295   4.752585   2.454836   0.000000
    45  H    7.004049   5.456101   4.869019   4.223114   0.000000
    46  H    8.237072   5.935923   4.281140   2.451110   2.511285
    47  H    8.838179   6.807275   5.457301   3.977940   3.286476
                   46         47
    46  H    0.000000
    47  H    2.403361   0.000000
 Stoichiometry    C30H17(2)
 Framework group  C1[X(C30H17)]
 Deg. of freedom   135
 Full point group                 C1      NOp   1
 Largest Abelian subgroup         C1      NOp   1
 Largest concise Abelian subgroup C1      NOp   1
                         Standard orientation:                         
 ---------------------------------------------------------------------
 Center     Atomic      Atomic             Coordinates (Angstroms)
 Number     Number       Type             X           Y           Z
 ---------------------------------------------------------------------
      1          6           0        1.642253   -2.816065   -0.044910
      2          6           0        1.462409   -1.436308    0.042272
      3          6           0        2.544234   -0.547233    0.131027
      4          6           0        3.871750   -0.892199    0.140466
      5          6           0        3.039367   -3.227644   -0.022526
      6          6           0        4.088495   -2.328119    0.066112
      7          6           0        2.040087    0.752254    0.120796
      8          6           0        2.858599    1.874294    0.127942
      9          6           0        4.274731    1.556609    0.186492
     10          6           0        4.756870    0.254019    0.187699
     11          6           0        0.635780    0.707184   -0.016196
     12          6           0       -0.030231    1.889463   -0.261122
     13          6           0        0.741267    3.115807   -0.115449
     14          6           0        2.149262    3.100030    0.061125
     15          6           0        0.441955   -3.539499   -0.194469
     16          6           0       -0.813299   -2.876070   -0.182537
     17          6           0       -0.935374   -1.437297    0.001196
     18          6           0        0.259881   -0.715654    0.006403
     19          6           0        0.006787    4.342882   -0.169160
     20          6           0       -1.444617    1.899774   -0.655612
     21          6           0       -2.067349    3.183180   -0.724552
     22          6           0       -1.360109    4.351022   -0.425898
     23          6           0       -2.029401   -3.600755   -0.382701
     24          6           0       -3.240807   -2.962777   -0.384162
     25          6           0       -3.362555   -1.572327   -0.084331
     26          6           0       -2.218793   -0.816273    0.187444
     27          6           0       -2.328472    0.556885    0.704486
     28          6           0       -3.708830    1.041008    1.106374
     29          6           0       -4.677264   -0.943225   -0.024063
     30          6           0       -4.847172    0.282286    0.491726
     31          1           0       -5.835394    0.729848    0.528416
     32          1           0       -3.804169    0.954278    2.201851
     33          1           0       -1.569682    0.790448    1.442556
     34          1           0       -5.524472   -1.503659   -0.407244
     35          1           0       -4.147410   -3.529041   -0.571173
     36          1           0       -1.978960   -4.671600   -0.549575
     37          1           0        0.449380   -4.616245   -0.334740
     38          1           0        3.274184   -4.285241   -0.087566
     39          1           0        5.101226   -2.718460    0.068323
     40          1           0        5.831354    0.103986    0.215872
     41          1           0        4.995043    2.368083    0.216081
     42          1           0        2.666951    4.051884    0.131031
     43          1           0        0.535314    5.278533   -0.023162
     44          1           0       -1.877982    5.303609   -0.472153
     45          1           0       -1.708758    1.196403   -1.440095
     46          1           0       -3.091293    3.260623   -1.073838
     47          1           0       -3.812046    2.115034    0.912185
 ---------------------------------------------------------------------
 Rotational constants (GHZ):           0.2353118           0.1746511           0.1025996
 Standard basis: 6-311+G(d,p) (5D, 7F)
 There are   792 symmetry adapted cartesian basis functions of A   symmetry.
 There are   762 symmetry adapted basis functions of A   symmetry.
   762 basis functions,  1216 primitive gaussians,   792 cartesian basis functions
    99 alpha electrons       98 beta electrons
       nuclear repulsion energy      2643.1549735399 Hartrees.
 NAtoms=   47 NActive=   47 NUniq=   47 SFac= 1.00D+00 NAtFMM=   60 NAOKFM=F Big=F
 Integral buffers will be    131072 words long.
 Raffenetti 2 integral format.
 Two-electron integral symmetry is turned on.
 One-electron integrals computed using PRISM.
 NBasis=   762 RedAO= T EigKep=  1.09D-06  NBF=   762
 NBsUse=   741 1.00D-06 EigRej=  9.68D-07 NBFU=   741
 ExpMin= 4.38D-02 ExpMax= 4.56D+03 ExpMxC= 6.82D+02 IAcc=2 IRadAn=         4 AccDes= 0.00D+00
 Harris functional with IExCor=  402 and IRadAn=       4 diagonalized for initial guess.
 HarFok:  IExCor=  402 AccDes= 0.00D+00 IRadAn=         4 IDoV= 1 UseB2=F ITyADJ=14
 ICtDFT=  3500011 ScaDFX=  1.000000  1.000000  1.000000  1.000000
 FoFCou: FMM=F IPFlag=           0 FMFlag=      100000 FMFlg1=           0
         NFxFlg=           0 DoJE=T BraDBF=F KetDBF=T FulRan=T
         wScrn=  0.000000 ICntrl=       500 IOpCl=  0 I1Cent=   200000004 NGrid=           0
         NMat0=    1 NMatS0=      1 NMatT0=    0 NMatD0=    1 NMtDS0=    0 NMtDT0=    0
 Petite list used in FoFCou.
 Initial guess <Sx>= 0.0000 <Sy>= 0.0000 <Sz>= 0.5000 <S**2>= 0.7500 S= 0.5000
 Requested convergence on RMS density matrix=1.00D-08 within 128 cycles.
 Requested convergence on MAX density matrix=1.00D-06.
 Requested convergence on             energy=1.00D-06.
 No special actions if energy rises.
 Restarting incremental Fock formation.
 SCF Done:  E(UB3LYP) =  -1153.64691859     A.U. after   26 cycles
            NFock= 26  Conv=0.40D-08     -V/T= 2.0045
 <Sx>= 0.0000 <Sy>= 0.0000 <Sz>= 0.5000 <S**2>= 0.8008 S= 0.5251
 <L.S>=  0.00000000000    
 Annihilation of the first spin contaminant:
 S**2 before annihilation     0.8008,   after     0.7520
 DoSCS=F DFT=T ScalE2(SS,OS)=  1.000000  1.000000
 Range of M.O.s used for correlation:     1   741
 NBasis=   762 NAE=    99 NBE=    98 NFC=     0 NFV=     0
 NROrb=    741 NOA=    99 NOB=    98 NVA=   642 NVB=   643

 **** Warning!!: The largest alpha MO coefficient is  0.14676167D+03


 **** Warning!!: The smallest alpha delta epsilon is  0.61034016D-01


 **** Warning!!: The largest beta MO coefficient is  0.14726565D+03

 Symmetrizing basis deriv contribution to polar:
 IMax=3 JMax=2 DiffMx= 0.00D+00
 G2DrvN: will do    48 centers at a time, making    1 passes.
 Calling FoFCou, ICntrl=  3107 FMM=F I1Cent=   0 AccDes= 0.00D+00.
 End of G2Drv F.D. properties file   721 does not exist.
 End of G2Drv F.D. properties file   722 does not exist.
 End of G2Drv F.D. properties file   788 does not exist.
          IDoAtm=11111111111111111111111111111111111111111111111
          Differentiating once with respect to nuclear coordinates.
 CalDSu exits because no D1Ps are significant.
          There are   144 degrees of freedom in the 1st order CPHF.  IDoFFX=6 NUNeed=     0.
    138 vectors produced by pass  0 Test12= 1.27D-13 1.00D-09 XBig12= 5.65D-01 1.65D-01.
 AX will form   138 AO Fock derivatives at one time.
    138 vectors produced by pass  1 Test12= 1.27D-13 1.00D-09 XBig12= 1.67D-01 6.52D-02.
    138 vectors produced by pass  2 Test12= 1.27D-13 1.00D-09 XBig12= 2.02D-03 6.49D-03.
    138 vectors produced by pass  3 Test12= 1.27D-13 1.00D-09 XBig12= 2.12D-05 5.66D-04.
    138 vectors produced by pass  4 Test12= 1.27D-13 1.00D-09 XBig12= 1.66D-07 4.67D-05.
    138 vectors produced by pass  5 Test12= 1.27D-13 1.00D-09 XBig12= 1.29D-09 2.68D-06.
    136 vectors produced by pass  6 Test12= 1.27D-13 1.00D-09 XBig12= 4.79D-11 4.34D-07.
    118 vectors produced by pass  7 Test12= 1.27D-13 1.00D-09 XBig12= 8.41D-12 1.57D-07.
     89 vectors produced by pass  8 Test12= 1.27D-13 1.00D-09 XBig12= 8.90D-13 3.93D-08.
     24 vectors produced by pass  9 Test12= 1.27D-13 1.00D-09 XBig12= 6.65D-15 3.91D-09.
      3 vectors produced by pass 10 Test12= 1.27D-13 1.00D-09 XBig12= 8.28D-16 1.53D-09.
      2 vectors produced by pass 11 Test12= 1.27D-13 1.00D-09 XBig12= 6.91D-16 1.52D-09.
      2 vectors produced by pass 12 Test12= 1.27D-13 1.00D-09 XBig12= 6.44D-16 1.31D-09.
      2 vectors produced by pass 13 Test12= 1.27D-13 1.00D-09 XBig12= 5.61D-16 1.10D-09.
      2 vectors produced by pass 14 Test12= 1.27D-13 1.00D-09 XBig12= 6.64D-16 1.28D-09.
      1 vectors produced by pass 15 Test12= 1.27D-13 1.00D-09 XBig12= 7.82D-16 1.49D-09.
 InvSVY:  IOpt=1 It=  1 EMax= 8.88D-16
 Solved reduced A of dimension  1207 with   144 vectors.
 End of Minotr F.D. properties file   721 does not exist.
 End of Minotr F.D. properties file   722 does not exist.
 End of Minotr F.D. properties file   788 does not exist.

 **********************************************************************

            Population analysis using the SCF Density.

 **********************************************************************

 Orbital symmetries:
 Alpha Orbitals:
       Occupied  (A) (A) (A) (A) (A) (A) (A) (A) (A) (A) (A) (A)
                 (A) (A) (A) (A) (A) (A) (A) (A) (A) (A) (A) (A)
                 (A) (A) (A) (A) (A) (A) (A) (A) (A) (A) (A) (A)
                 (A) (A) (A) (A) (A) (A) (A) (A) (A) (A) (A) (A)
                 (A) (A) (A) (A) (A) (A) (A) (A) (A) (A) (A) (A)
                 (A) (A) (A) (A) (A) (A) (A) (A) (A) (A) (A) (A)
                 (A) (A) (A) (A) (A) (A) (A) (A) (A) (A) (A) (A)
                 (A) (A) (A) (A) (A) (A) (A) (A) (A) (A) (A) (A)
                 (A) (A) (A)
       Virtual   (A) (A) (A) (A) (A) (A) (A) (A) (A) (A) (A) (A)
                 (A) (A) (A) (A) (A) (A) (A) (A) (A) (A) (A) (A)
                 (A) (A) (A) (A) (A) (A) (A) (A) (A) (A) (A) (A)
                 (A) (A) (A) (A) (A) (A) (A) (A) (A) (A) (A) (A)
                 (A) (A) (A) (A) (A) (A) (A) (A) (A) (A) (A) (A)
                 (A) (A) (A) (A) (A) (A) (A) (A) (A) (A) (A) (A)
                 (A) (A) (A) (A) (A) (A) (A) (A) (A) (A) (A) (A)
                 (A) (A) (A) (A) (A) (A) (A) (A) (A) (A) (A) (A)
                 (A) (A) (A) (A) (A) (A) (A) (A) (A) (A) (A) (A)
                 (A) (A) (A) (A) (A) (A) (A) (A) (A) (A) (A) (A)
                 (A) (A) (A) (A) (A) (A) (A) (A) (A) (A) (A) (A)
                 (A) (A) (A) (A) (A) (A) (A) (A) (A) (A) (A) (A)
                 (A) (A) (A) (A) (A) (A) (A) (A) (A) (A) (A) (A)
                 (A) (A) (A) (A) (A) (A) (A) (A) (A) (A) (A) (A)
                 (A) (A) (A) (A) (A) (A) (A) (A) (A) (A) (A) (A)
                 (A) (A) (A) (A) (A) (A) (A) (A) (A) (A) (A) (A)
                 (A) (A) (A) (A) (A) (A) (A) (A) (A) (A) (A) (A)
                 (A) (A) (A) (A) (A) (A) (A) (A) (A) (A) (A) (A)
                 (A) (A) (A) (A) (A) (A) (A) (A) (A) (A) (A) (A)
                 (A) (A) (A) (A) (A) (A) (A) (A) (A) (A) (A) (A)
                 (A) (A) (A) (A) (A) (A) (A) (A) (A) (A) (A) (A)
                 (A) (A) (A) (A) (A) (A) (A) (A) (A) (A) (A) (A)
                 (A) (A) (A) (A) (A) (A) (A) (A) (A) (A) (A) (A)
                 (A) (A) (A) (A) (A) (A) (A) (A) (A) (A) (A) (A)
                 (A) (A) (A) (A) (A) (A) (A) (A) (A) (A) (A) (A)
                 (A) (A) (A) (A) (A) (A) (A) (A) (A) (A) (A) (A)
                 (A) (A) (A) (A) (A) (A) (A) (A) (A) (A) (A) (A)
                 (A) (A) (A) (A) (A) (A) (A) (A) (A) (A) (A) (A)
                 (A) (A) (A) (A) (A) (A) (A) (A) (A) (A) (A) (A)
                 (A) (A) (A) (A) (A) (A) (A) (A) (A) (A) (A) (A)
                 (A) (A) (A) (A) (A) (A) (A) (A) (A) (A) (A) (A)
                 (A) (A) (A) (A) (A) (A) (A) (A) (A) (A) (A) (A)
                 (A) (A) (A) (A) (A) (A) (A) (A) (A) (A) (A) (A)
                 (A) (A) (A) (A) (A) (A) (A) (A) (A) (A) (A) (A)
                 (A) (A) (A) (A) (A) (A) (A) (A) (A) (A) (A) (A)
                 (A) (A) (A) (A) (A) (A) (A) (A) (A) (A) (A) (A)
                 (A) (A) (A) (A) (A) (A) (A) (A) (A) (A) (A) (A)
                 (A) (A) (A) (A) (A) (A) (A) (A) (A) (A) (A) (A)
                 (A) (A) (A) (A) (A) (A) (A) (A) (A) (A) (A) (A)
                 (A) (A) (A) (A) (A) (A) (A) (A) (A) (A) (A) (A)
                 (A) (A) (A) (A) (A) (A) (A) (A) (A) (A) (A) (A)
                 (A) (A) (A) (A) (A) (A) (A) (A) (A) (A) (A) (A)
                 (A) (A) (A) (A) (A) (A) (A) (A) (A) (A) (A) (A)
                 (A) (A) (A) (A) (A) (A) (A) (A) (A) (A) (A) (A)
                 (A) (A) (A) (A) (A) (A) (A) (A) (A) (A) (A) (A)
                 (A) (A) (A) (A) (A) (A) (A) (A) (A) (A) (A) (A)
                 (A) (A) (A) (A) (A) (A) (A) (A) (A) (A) (A) (A)
                 (A) (A) (A) (A) (A) (A) (A) (A) (A) (A) (A) (A)
                 (A) (A) (A) (A) (A) (A) (A) (A) (A) (A) (A) (A)
                 (A) (A) (A) (A) (A) (A) (A) (A) (A) (A) (A) (A)
                 (A) (A) (A) (A) (A) (A) (A) (A) (A) (A) (A) (A)
                 (A) (A) (A) (A) (A) (A) (A) (A) (A) (A) (A) (A)
                 (A) (A) (A) (A) (A) (A) (A) (A) (A) (A) (A) (A)
                 (A) (A) (A) (A) (A) (A)
 Beta  Orbitals:
       Occupied  (A) (A) (A) (A) (A) (A) (A) (A) (A) (A) (A) (A)
                 (A) (A) (A) (A) (A) (A) (A) (A) (A) (A) (A) (A)
                 (A) (A) (A) (A) (A) (A) (A) (A) (A) (A) (A) (A)
                 (A) (A) (A) (A) (A) (A) (A) (A) (A) (A) (A) (A)
                 (A) (A) (A) (A) (A) (A) (A) (A) (A) (A) (A) (A)
                 (A) (A) (A) (A) (A) (A) (A) (A) (A) (A) (A) (A)
                 (A) (A) (A) (A) (A) (A) (A) (A) (A) (A) (A) (A)
                 (A) (A) (A) (A) (A) (A) (A) (A) (A) (A) (A) (A)
                 (A) (A)
       Virtual   (A) (A) (A) (A) (A) (A) (A) (A) (A) (A) (A) (A)
                 (A) (A) (A) (A) (A) (A) (A) (A) (A) (A) (A) (A)
                 (A) (A) (A) (A) (A) (A) (A) (A) (A) (A) (A) (A)
                 (A) (A) (A) (A) (A) (A) (A) (A) (A) (A) (A) (A)
                 (A) (A) (A) (A) (A) (A) (A) (A) (A) (A) (A) (A)
                 (A) (A) (A) (A) (A) (A) (A) (A) (A) (A) (A) (A)
                 (A) (A) (A) (A) (A) (A) (A) (A) (A) (A) (A) (A)
                 (A) (A) (A) (A) (A) (A) (A) (A) (A) (A) (A) (A)
                 (A) (A) (A) (A) (A) (A) (A) (A) (A) (A) (A) (A)
                 (A) (A) (A) (A) (A) (A) (A) (A) (A) (A) (A) (A)
                 (A) (A) (A) (A) (A) (A) (A) (A) (A) (A) (A) (A)
                 (A) (A) (A) (A) (A) (A) (A) (A) (A) (A) (A) (A)
                 (A) (A) (A) (A) (A) (A) (A) (A) (A) (A) (A) (A)
                 (A) (A) (A) (A) (A) (A) (A) (A) (A) (A) (A) (A)
                 (A) (A) (A) (A) (A) (A) (A) (A) (A) (A) (A) (A)
                 (A) (A) (A) (A) (A) (A) (A) (A) (A) (A) (A) (A)
                 (A) (A) (A) (A) (A) (A) (A) (A) (A) (A) (A) (A)
                 (A) (A) (A) (A) (A) (A) (A) (A) (A) (A) (A) (A)
                 (A) (A) (A) (A) (A) (A) (A) (A) (A) (A) (A) (A)
                 (A) (A) (A) (A) (A) (A) (A) (A) (A) (A) (A) (A)
                 (A) (A) (A) (A) (A) (A) (A) (A) (A) (A) (A) (A)
                 (A) (A) (A) (A) (A) (A) (A) (A) (A) (A) (A) (A)
                 (A) (A) (A) (A) (A) (A) (A) (A) (A) (A) (A) (A)
                 (A) (A) (A) (A) (A) (A) (A) (A) (A) (A) (A) (A)
                 (A) (A) (A) (A) (A) (A) (A) (A) (A) (A) (A) (A)
                 (A) (A) (A) (A) (A) (A) (A) (A) (A) (A) (A) (A)
                 (A) (A) (A) (A) (A) (A) (A) (A) (A) (A) (A) (A)
                 (A) (A) (A) (A) (A) (A) (A) (A) (A) (A) (A) (A)
                 (A) (A) (A) (A) (A) (A) (A) (A) (A) (A) (A) (A)
                 (A) (A) (A) (A) (A) (A) (A) (A) (A) (A) (A) (A)
                 (A) (A) (A) (A) (A) (A) (A) (A) (A) (A) (A) (A)
                 (A) (A) (A) (A) (A) (A) (A) (A) (A) (A) (A) (A)
                 (A) (A) (A) (A) (A) (A) (A) (A) (A) (A) (A) (A)
                 (A) (A) (A) (A) (A) (A) (A) (A) (A) (A) (A) (A)
                 (A) (A) (A) (A) (A) (A) (A) (A) (A) (A) (A) (A)
                 (A) (A) (A) (A) (A) (A) (A) (A) (A) (A) (A) (A)
                 (A) (A) (A) (A) (A) (A) (A) (A) (A) (A) (A) (A)
                 (A) (A) (A) (A) (A) (A) (A) (A) (A) (A) (A) (A)
                 (A) (A) (A) (A) (A) (A) (A) (A) (A) (A) (A) (A)
                 (A) (A) (A) (A) (A) (A) (A) (A) (A) (A) (A) (A)
                 (A) (A) (A) (A) (A) (A) (A) (A) (A) (A) (A) (A)
                 (A) (A) (A) (A) (A) (A) (A) (A) (A) (A) (A) (A)
                 (A) (A) (A) (A) (A) (A) (A) (A) (A) (A) (A) (A)
                 (A) (A) (A) (A) (A) (A) (A) (A) (A) (A) (A) (A)
                 (A) (A) (A) (A) (A) (A) (A) (A) (A) (A) (A) (A)
                 (A) (A) (A) (A) (A) (A) (A) (A) (A) (A) (A) (A)
                 (A) (A) (A) (A) (A) (A) (A) (A) (A) (A) (A) (A)
                 (A) (A) (A) (A) (A) (A) (A) (A) (A) (A) (A) (A)
                 (A) (A) (A) (A) (A) (A) (A) (A) (A) (A) (A) (A)
                 (A) (A) (A) (A) (A) (A) (A) (A) (A) (A) (A) (A)
                 (A) (A) (A) (A) (A) (A) (A) (A) (A) (A) (A) (A)
                 (A) (A) (A) (A) (A) (A) (A) (A) (A) (A) (A) (A)
                 (A) (A) (A) (A) (A) (A) (A) (A) (A) (A) (A) (A)
                 (A) (A) (A) (A) (A) (A) (A)
 The electronic state is 2-A.
 Alpha  occ. eigenvalues --  -10.19900 -10.19738 -10.19712 -10.19428 -10.19359
 Alpha  occ. eigenvalues --  -10.19351 -10.19248 -10.19235 -10.19185 -10.19167
 Alpha  occ. eigenvalues --  -10.19102 -10.19045 -10.19028 -10.18867 -10.18843
 Alpha  occ. eigenvalues --  -10.18809 -10.18797 -10.18717 -10.18651 -10.18445
 Alpha  occ. eigenvalues --  -10.18277 -10.18161 -10.18099 -10.17987 -10.17907
 Alpha  occ. eigenvalues --  -10.17751 -10.17674 -10.16814 -10.16397 -10.16299
 Alpha  occ. eigenvalues --   -0.91989  -0.88525  -0.87247  -0.84990  -0.83475
 Alpha  occ. eigenvalues --   -0.82896  -0.80133  -0.79162  -0.77940  -0.76805
 Alpha  occ. eigenvalues --   -0.75196  -0.74525  -0.72546  -0.71463  -0.70715
 Alpha  occ. eigenvalues --   -0.66518  -0.65001  -0.63816  -0.63484  -0.62522
 Alpha  occ. eigenvalues --   -0.60103  -0.59081  -0.58718  -0.56481  -0.55506
 Alpha  occ. eigenvalues --   -0.52888  -0.52302  -0.51608  -0.50745  -0.49309
 Alpha  occ. eigenvalues --   -0.48705  -0.47477  -0.47317  -0.46337  -0.45157
 Alpha  occ. eigenvalues --   -0.45058  -0.44409  -0.43622  -0.43589  -0.43108
 Alpha  occ. eigenvalues --   -0.42733  -0.42210  -0.41880  -0.40941  -0.40375
 Alpha  occ. eigenvalues --   -0.40231  -0.39808  -0.39544  -0.38792  -0.37989
 Alpha  occ. eigenvalues --   -0.37217  -0.35812  -0.35461  -0.35047  -0.34262
 Alpha  occ. eigenvalues --   -0.34138  -0.33960  -0.33061  -0.32486  -0.31966
 Alpha  occ. eigenvalues --   -0.30999  -0.29815  -0.28037  -0.26562  -0.24441
 Alpha  occ. eigenvalues --   -0.22685  -0.22211  -0.20731  -0.16349
 Alpha virt. eigenvalues --   -0.10246  -0.05356  -0.03387  -0.02126  -0.01794
 Alpha virt. eigenvalues --   -0.00156   0.00621   0.00656   0.00817   0.01591
 Alpha virt. eigenvalues --    0.01704   0.01856   0.02112   0.02758   0.02985
 Alpha virt. eigenvalues --    0.03140   0.03793   0.03990   0.04439   0.04630
 Alpha virt. eigenvalues --    0.04686   0.04787   0.05307   0.05734   0.06317
 Alpha virt. eigenvalues --    0.06655   0.06987   0.07260   0.07407   0.07784
 Alpha virt. eigenvalues --    0.08566   0.08753   0.08961   0.09263   0.09735
 Alpha virt. eigenvalues --    0.09785   0.10103   0.10569   0.11011   0.11364
 Alpha virt. eigenvalues --    0.11657   0.11925   0.12155   0.12406   0.12727
 Alpha virt. eigenvalues --    0.12904   0.13441   0.13859   0.14219   0.14456
 Alpha virt. eigenvalues --    0.14822   0.15038   0.15350   0.15836   0.15981
 Alpha virt. eigenvalues --    0.16000   0.16152   0.16265   0.16661   0.16821
 Alpha virt. eigenvalues --    0.16998   0.17466   0.17571   0.17700   0.18218
 Alpha virt. eigenvalues --    0.18453   0.18534   0.18815   0.19081   0.19215
 Alpha virt. eigenvalues --    0.19337   0.19582   0.19684   0.19796   0.20098
 Alpha virt. eigenvalues --    0.20215   0.20538   0.20805   0.20956   0.21138
 Alpha virt. eigenvalues --    0.21258   0.21364   0.21576   0.21706   0.22131
 Alpha virt. eigenvalues --    0.22385   0.22532   0.23022   0.23109   0.23306
 Alpha virt. eigenvalues --    0.23483   0.23600   0.23907   0.24105   0.24342
 Alpha virt. eigenvalues --    0.24716   0.24743   0.24954   0.25025   0.25208
 Alpha virt. eigenvalues --    0.25618   0.25737   0.25860   0.26317   0.26659
 Alpha virt. eigenvalues --    0.26961   0.27308   0.27421   0.27524   0.27844
 Alpha virt. eigenvalues --    0.28052   0.28417   0.28545   0.29028   0.29146
 Alpha virt. eigenvalues --    0.29441   0.29863   0.30109   0.30523   0.30611
 Alpha virt. eigenvalues --    0.31120   0.31269   0.31492   0.31801   0.32059
 Alpha virt. eigenvalues --    0.32528   0.32839   0.33330   0.33689   0.34143
 Alpha virt. eigenvalues --    0.34231   0.34455   0.34953   0.35700   0.35983
 Alpha virt. eigenvalues --    0.36067   0.36473   0.37202   0.37554   0.38162
 Alpha virt. eigenvalues --    0.38584   0.38759   0.39557   0.40742   0.40896
 Alpha virt. eigenvalues --    0.41614   0.41774   0.42489   0.42948   0.43253
 Alpha virt. eigenvalues --    0.43521   0.43953   0.44639   0.45446   0.46157
 Alpha virt. eigenvalues --    0.46556   0.47149   0.47745   0.47928   0.49065
 Alpha virt. eigenvalues --    0.49622   0.50055   0.51081   0.51787   0.51863
 Alpha virt. eigenvalues --    0.52187   0.52770   0.53300   0.53783   0.53989
 Alpha virt. eigenvalues --    0.54309   0.54528   0.55315   0.55580   0.56168
 Alpha virt. eigenvalues --    0.56237   0.56546   0.57042   0.57361   0.57530
 Alpha virt. eigenvalues --    0.58220   0.58330   0.58906   0.59090   0.59263
 Alpha virt. eigenvalues --    0.59630   0.59911   0.60328   0.60884   0.61311
 Alpha virt. eigenvalues --    0.61560   0.61783   0.62340   0.62603   0.63368
 Alpha virt. eigenvalues --    0.64059   0.64595   0.64959   0.65228   0.65747
 Alpha virt. eigenvalues --    0.65908   0.65969   0.66246   0.66731   0.67654
 Alpha virt. eigenvalues --    0.68401   0.68549   0.68721   0.69261   0.69388
 Alpha virt. eigenvalues --    0.69984   0.70248   0.70407   0.70871   0.71242
 Alpha virt. eigenvalues --    0.71694   0.71772   0.72139   0.72386   0.72798
 Alpha virt. eigenvalues --    0.73293   0.73461   0.74228   0.74470   0.74732
 Alpha virt. eigenvalues --    0.75031   0.75562   0.75647   0.75992   0.76488
 Alpha virt. eigenvalues --    0.76597   0.76871   0.77573   0.78246   0.78757
 Alpha virt. eigenvalues --    0.79298   0.80053   0.80824   0.81041   0.82888
 Alpha virt. eigenvalues --    0.83410   0.83909   0.84350   0.84577   0.84896
 Alpha virt. eigenvalues --    0.85228   0.86272   0.86971   0.87233   0.88006
 Alpha virt. eigenvalues --    0.88245   0.89120   0.89233   0.90001   0.90372
 Alpha virt. eigenvalues --    0.91302   0.91791   0.92022   0.92423   0.93523
 Alpha virt. eigenvalues --    0.93620   0.94131   0.94697   0.95305   0.95591
 Alpha virt. eigenvalues --    0.95848   0.96135   0.96650   0.97101   0.97330
 Alpha virt. eigenvalues --    0.97685   0.98090   0.98413   0.98651   0.99150
 Alpha virt. eigenvalues --    0.99995   1.00329   1.00798   1.01903   1.02724
 Alpha virt. eigenvalues --    1.02802   1.03718   1.04250   1.04885   1.04979
 Alpha virt. eigenvalues --    1.05351   1.05783   1.06158   1.06570   1.07235
 Alpha virt. eigenvalues --    1.07829   1.07880   1.09000   1.09949   1.10974
 Alpha virt. eigenvalues --    1.11070   1.12193   1.12882   1.13673   1.14598
 Alpha virt. eigenvalues --    1.15413   1.15685   1.16320   1.16673   1.17321
 Alpha virt. eigenvalues --    1.17576   1.18790   1.19891   1.20867   1.22912
 Alpha virt. eigenvalues --    1.23497   1.24630   1.26246   1.29243   1.29904
 Alpha virt. eigenvalues --    1.30757   1.31232   1.33405   1.34897   1.35639
 Alpha virt. eigenvalues --    1.36443   1.37274   1.38959   1.40207   1.40775
 Alpha virt. eigenvalues --    1.42005   1.42870   1.43526   1.44852   1.44910
 Alpha virt. eigenvalues --    1.45872   1.46633   1.46940   1.47364   1.47974
 Alpha virt. eigenvalues --    1.48333   1.49230   1.49264   1.49463   1.50234
 Alpha virt. eigenvalues --    1.50969   1.51446   1.52342   1.52555   1.53310
 Alpha virt. eigenvalues --    1.54096   1.54362   1.55197   1.56616   1.56797
 Alpha virt. eigenvalues --    1.57986   1.58482   1.59207   1.59983   1.60825
 Alpha virt. eigenvalues --    1.61149   1.62270   1.63227   1.63747   1.64358
 Alpha virt. eigenvalues --    1.64486   1.65182   1.66057   1.66944   1.68525
 Alpha virt. eigenvalues --    1.68993   1.69511   1.69887   1.70669   1.72271
 Alpha virt. eigenvalues --    1.72639   1.73056   1.73867   1.74366   1.75230
 Alpha virt. eigenvalues --    1.75454   1.75906   1.76125   1.76328   1.76947
 Alpha virt. eigenvalues --    1.77893   1.77953   1.79415   1.80944   1.81144
 Alpha virt. eigenvalues --    1.82315   1.82915   1.83121   1.83610   1.83923
 Alpha virt. eigenvalues --    1.84827   1.85750   1.86096   1.86591   1.87031
 Alpha virt. eigenvalues --    1.87440   1.87991   1.88981   1.89389   1.89675
 Alpha virt. eigenvalues --    1.90417   1.90879   1.91186   1.91441   1.92738
 Alpha virt. eigenvalues --    1.93574   1.94018   1.94252   1.94751   1.95376
 Alpha virt. eigenvalues --    1.96726   1.97008   1.97360   1.98332   1.98807
 Alpha virt. eigenvalues --    1.99865   2.00834   2.01091   2.02418   2.03217
 Alpha virt. eigenvalues --    2.03620   2.04557   2.05464   2.06220   2.06332
 Alpha virt. eigenvalues --    2.06953   2.08059   2.08546   2.09508   2.09948
 Alpha virt. eigenvalues --    2.10857   2.11006   2.12131   2.13332   2.13980
 Alpha virt. eigenvalues --    2.15082   2.15449   2.16688   2.17472   2.18415
 Alpha virt. eigenvalues --    2.18622   2.20736   2.21139   2.21226   2.22507
 Alpha virt. eigenvalues --    2.23326   2.24024   2.25035   2.25673   2.26450
 Alpha virt. eigenvalues --    2.27537   2.28373   2.30501   2.31622   2.33120
 Alpha virt. eigenvalues --    2.35177   2.35377   2.36302   2.38270   2.39096
 Alpha virt. eigenvalues --    2.41152   2.41473   2.42928   2.43177   2.44390
 Alpha virt. eigenvalues --    2.44988   2.45595   2.46503   2.48579   2.49275
 Alpha virt. eigenvalues --    2.50957   2.51686   2.54317   2.55263   2.56053
 Alpha virt. eigenvalues --    2.56764   2.58342   2.59012   2.59320   2.60790
 Alpha virt. eigenvalues --    2.61992   2.63241   2.64118   2.64613   2.66668
 Alpha virt. eigenvalues --    2.66866   2.67893   2.69113   2.69542   2.70420
 Alpha virt. eigenvalues --    2.71933   2.72203   2.72520   2.73043   2.73235
 Alpha virt. eigenvalues --    2.73703   2.74237   2.74828   2.75438   2.75766
 Alpha virt. eigenvalues --    2.76026   2.76712   2.76879   2.77371   2.77519
 Alpha virt. eigenvalues --    2.77880   2.78273   2.78701   2.79761   2.79859
 Alpha virt. eigenvalues --    2.80331   2.81206   2.81902   2.82588   2.82962
 Alpha virt. eigenvalues --    2.84078   2.84954   2.85489   2.85755   2.86689
 Alpha virt. eigenvalues --    2.88293   2.89329   2.89664   2.90292   2.91516
 Alpha virt. eigenvalues --    2.92477   2.93707   2.94537   2.94769   2.97848
 Alpha virt. eigenvalues --    2.98940   3.00533   3.02134   3.02408   3.03779
 Alpha virt. eigenvalues --    3.04901   3.06203   3.06447   3.10756   3.12474
 Alpha virt. eigenvalues --    3.13045   3.14051   3.15199   3.16064   3.17463
 Alpha virt. eigenvalues --    3.19837   3.20240   3.21497   3.22240   3.22500
 Alpha virt. eigenvalues --    3.23347   3.25625   3.26363   3.30078   3.31279
 Alpha virt. eigenvalues --    3.33244   3.34122   3.35679   3.36516   3.38549
 Alpha virt. eigenvalues --    3.39148   3.40659   3.41249   3.43064   3.43537
[...]
 83,0.00000056,-0.00000494,0.00000252,-0.00000058,-0.00001049,0.0000186
 6,-0.00000281,-0.00001030,-0.00000950,-0.00000042,-0.00002562,-0.00005
 016,-0.00006917,0.00076907,-0.00043280,0.00095898,0.12518794,-0.000016
 32,-0.00001772,-0.00000359,-0.00002523,0.00000428,0.00000297,0.0000082
 1,0.00003182,-0.00000851,0.00003442,0.00000408,0.00000190,-0.00000811,
 -0.00000191,-0.00000073,0.00000051,0.00001338,0.00000215,0.00000784,-0
 .00004725,-0.00000649,0.00005048,0.00005300,0.00004947,-0.00004391,0.0
 0000599,0.00000852,0.00001980,-0.00002803,-0.00000457,0.00005229,0.000
 06792,0.00010094,-0.00055303,0.00034402,-0.00008329,-0.00074801,0.0016
 3192,-0.00042171,0.00005680,-0.00007515,-0.00001432,0.00001493,-0.0000
 1066,0.00000261,-0.00001512,0.00003689,-0.00000311,-0.00007374,-0.0000
 3925,0.00000221,0.00002389,0.00006091,-0.00000865,-0.00155066,0.002613
 61,-0.00030080,-0.00343624,-0.00225952,-0.00271623,0.01437494,-0.01933
 828,0.00230921,0.11552920,-0.26886001,0.00576938,-0.00003175,-0.000033
 26,-0.00000890,0.00003575,-0.00002184,-0.00001171,0.00015953,0.0000135
 1,0.00004657,-0.00009735,-0.00018237,0.00002149,0.00029584,0.00049929,
 -0.00047598,-0.00001424,-0.00003693,0.00013210,-0.00001398,0.00006087,
 0.00003412,-0.00002876,-0.00002425,-0.00003601,-0.00002644,-0.00000732
 ,-0.00000334,-0.00003311,-0.00002724,0.00002844,-0.00002824,-0.0000468
 2,0.00004292,-0.00001028,-0.00000114,-0.00000692,-0.00000714,-0.000010
 08,-0.00000477,0.00000075,-0.00000558,0.00000018,0.00000032,-0.0000059
 2,-0.00000147,0.00000175,-0.00000662,-0.00000032,0.00000700,-0.0000032
 9,0.00000022,0.00000660,-0.00000331,-0.00000049,0.00000868,0.00000585,
 0.00000029,0.00001280,0.00000275,-0.00001999,0.00024451,0.00084696,0.0
 0031018,-0.12423903,0.28494043,-0.00000107,-0.00007817,-0.00000117,-0.
 00012266,0.00008227,0.00000090,-0.00002789,0.00017391,0.00000650,0.000
 11620,-0.00001520,-0.00000493,-0.00001341,-0.00001402,-0.00000127,-0.0
 0000499,0.00004891,-0.00000754,0.00028126,-0.00008944,0.00013174,0.000
 02099,-0.00002543,-0.00069797,-0.00001758,0.00003425,-0.00008951,-0.00
 003046,-0.00006382,0.00005559,-0.00016144,0.00016572,-0.00045934,0.000
 10589,-0.00033462,-0.00044438,-0.00258908,0.00014740,0.00704369,0.0000
 4915,0.00030583,0.00028598,0.00001730,0.00002482,0.00000196,-0.0000369
 7,0.00002574,-0.00001458,-0.00013636,-0.00006562,-0.00001785,0.0000435
 0,0.00002178,0.00002409,-0.00093103,0.00566364,0.00373869,-0.00244396,
 -0.00233426,0.00639156,0.00303680,-0.00484770,0.00342456,-0.01123629,0
 .00532615,-0.03928567,-0.00004284,-0.00000431,-0.00000800,0.00007352,-
 0.00008772,-0.00003259,0.00022977,0.00009487,0.00011359,-0.00012561,-0
 .00048307,0.00000993,0.00069225,0.00058443,-0.00083567,-0.00002930,0.0
 0010906,-0.00001782,-0.00003873,0.00004873,0.00001588,-0.00000939,-0.0
 0000588,-0.00004181,-0.00000150,0.00000316,0.00000094,0.00000191,0.000
 00729,-0.00002508,-0.00005831,-0.00008881,0.00011247,-0.00000486,-0.00
 000303,0.00000026,-0.00000013,-0.00000614,-0.00000254,-0.00000032,-0.0
 0000141,0.00000500,0.00000163,-0.00000034,0.00000136,-0.00000308,0.000
 00069,-0.00000138,0.00000054,-0.00000003,0.00000239,-0.00000123,0.0000
 0033,0.00001543,-0.00000303,0.00000059,0.00000029,-0.00003862,-0.00001
 254,0.00021469,0.00099348,0.00023751,-0.00402476,0.01137359,-0.0054904
 5,0.02748388,0.00009975,0.00037066,0.00004994,0.00016354,-0.00030719,0
 .00010323,0.00027661,-0.00076656,-0.00007019,-0.00082245,-0.00031540,-
 0.00009784,-0.00005189,0.00002395,-0.00000420,0.00007271,-0.00006238,-
 0.00000314,-0.00184336,0.00005230,0.00069307,-0.00058904,0.00117738,-0
 .00015977,0.00061507,-0.00023873,-0.00002895,-0.00005103,0.00075126,0.
 00003859,0.00246566,-0.00252865,0.00103653,-0.01299747,-0.01911214,-0.
 02106739,-0.00454243,0.00312998,-0.00190235,0.00061080,-0.00179371,0.0
 0046400,-0.00014430,-0.00005908,-0.00000625,0.00023924,-0.00006172,0.0
 0010747,0.00100094,0.00029524,-0.00019888,-0.00026060,-0.00025960,-0.0
 0038774,-0.00249987,-0.00001247,-0.00037679,-0.06077848,-0.02573739,-0
 .06470656,0.00946173,0.00012446,0.00979325,0.00370478,0.00480708,0.000
 17447,0.00002934,-0.00021605,0.00002654,-0.00016297,0.00039104,0.00001
 460,-0.00090997,-0.00077957,-0.00082360,0.00037147,0.00263128,0.001987
 17,-0.00412277,-0.01068923,0.01333762,0.00026595,-0.00000546,-0.000453
 18,0.00027058,-0.00028350,-0.00012483,-0.00002395,0.00028255,0.0001062
 1,-0.00002761,-0.00000921,0.00003658,0.00006600,0.00019176,0.00005550,
 0.00028586,0.00042725,-0.00055433,-0.00001879,-0.00001465,0.00001441,-
 0.00001278,-0.00000796,0.00001912,0.00000607,0.00001547,-0.00000707,-0
 .00000420,0.00000767,-0.00000969,0.00001318,0.00000362,-0.00000812,-0.
 00000218,0.00000612,0.00000085,0.00000347,0.00002471,-0.00000571,-0.00
 000665,-0.00001853,-0.00000157,-0.00040053,-0.00003283,0.00002689,0.00
 004322,-0.00007831,0.00006678,0.00051235,0.00059556,-0.00040481,0.0694
 7400,0.00006189,0.00029517,0.00007579,0.00093041,-0.00018275,-0.000040
 71,-0.00000071,-0.00118918,0.00006854,-0.00062666,-0.00017680,-0.00002
 559,-0.00008657,-0.00006577,-0.00000408,0.00001811,0.00004653,-0.00000
 391,-0.00311729,0.00001491,-0.00043477,-0.00014107,0.00152926,-0.00004
 400,0.00026523,-0.00018621,0.00002993,0.00018980,0.00047367,0.00003246
 ,0.00367268,-0.00229225,0.00198340,-0.00619770,0.00358374,0.00040137,-
 0.00051268,0.00133094,-0.00041500,0.00108106,-0.00072847,-0.00014000,-
 0.00008890,-0.00008095,0.00002889,-0.00003479,-0.00079956,-0.00021384,
 -0.00030640,0.00068908,-0.00053401,0.00057595,0.00106435,-0.00026872,-
 0.00195241,-0.00002040,-0.00040365,-0.03671266,-0.15254789,-0.14128997
 ,-0.00789829,-0.02691941,-0.01874396,0.00866472,-0.00032262,-0.0000268
 2,0.00014979,0.00029014,0.00013612,-0.00007762,-0.00004351,-0.00008938
 ,0.00019326,0.00031484,-0.00006573,-0.00120168,-0.00108780,0.00295426,
 -0.00503983,-0.00719326,0.01381862,0.00028819,-0.00018085,-0.00089068,
 -0.00011450,0.00001397,0.00009015,0.00004080,-0.00001147,0.00018635,0.
 00002189,0.00000898,-0.00002557,0.00011924,0.00009485,0.00003070,0.000
 30016,0.00022185,-0.00036192,0.00001925,0.00001154,-0.00000462,0.00000
 880,0.00001141,-0.00000396,0.00001138,0.00001623,-0.00001364,-0.000021
 37,0.00001396,0.00000708,0.00000032,0.00000168,-0.00000023,-0.00000119
 ,-0.00000337,-0.00000294,-0.00000401,0.00000877,-0.00000173,0.00000427
 ,-0.00001052,-0.00000147,0.00000521,-0.00000745,-0.00005441,-0.0001062
 1,0.00000532,0.00009149,-0.00073017,-0.00103511,0.00047464,0.04860253,
 0.18426133,-0.00005994,-0.00048028,-0.00002874,-0.00098959,0.00049410,
 -0.00001824,-0.00025724,0.00147385,-0.00009743,0.00097867,0.00019683,0
 .00002619,0.00001747,-0.00003215,-0.00000630,-0.00003464,0.00012152,0.
 00002068,0.00302977,-0.00011014,0.00047470,0.00043526,-0.00161690,0.00
 004923,-0.00051530,0.00036339,-0.00006380,-0.00021316,-0.00081733,-0.0
 0002866,-0.00336084,0.00236045,0.00023503,0.00624765,-0.00570675,-0.00
 033223,0.00114851,0.00019278,-0.00011424,-0.00095746,0.00060297,0.0001
 0161,0.00020523,0.00012646,0.00001414,-0.00036409,-0.00010438,-0.00009
 042,-0.00241899,0.00084837,0.00012545,0.00031061,0.00028664,-0.0003241
 5,0.00364096,0.00035809,0.00066795,-0.07355970,-0.16669474,-0.16081750
 ,-0.00171818,0.01643862,0.00517814,-0.00667621,-0.00317809,-0.00077687
 ,-0.00046919,0.00053005,-0.00002950,0.00071662,-0.00132319,-0.00029020
 ,0.00330407,0.00232093,0.00190520,-0.00032234,-0.00725000,-0.00222180,
 0.01046367,0.01932028,-0.02327523,-0.00040799,0.00024279,0.00068993,-0
 .00063170,0.00072659,0.00021799,-0.00005327,-0.00039530,-0.00027169,0.
 00002655,0.00002676,-0.00002928,0.00000192,-0.00033984,-0.00029930,-0.
 00050034,-0.00088504,0.00154980,-0.00002342,0.00003483,-0.00003232,0.0
 0001814,-0.00003707,-0.00006227,-0.00001359,-0.00002512,0.00001435,0.0
 0001716,-0.00000971,-0.00000148,-0.00000965,0.00000053,0.00000134,0.00
 000183,-0.00000107,0.00000064,0.00000462,-0.00001317,0.00000166,-0.000
 00718,0.00001173,0.00000211,-0.00004305,0.00003531,-0.00000828,0.00005
 155,-0.00005961,-0.00010261,-0.00014141,0.00019741,-0.00015671,0.06260
 439,0.14221577,0.17845266,0.00004957,0.00001804,0.00000263,-0.00006036
 ,0.00004811,0.00001103,-0.00014291,0.00012208,0.00002958,0.00004510,-0
 .00001274,-0.00000412,-0.00003189,-0.00000757,0.00000143,0.00001826,0.
 00003835,-0.00000430,0.00027891,0.00024174,0.00004103,-0.00004321,-0.0
 0006151,-0.00002355,0.00002448,-0.00001359,-0.00002568,-0.00000200,0.0
 0000351,0.00000610,-0.00101381,-0.00059894,-0.00018666,0.00136385,0.00
 289885,-0.00094006,0.00025973,0.00040541,0.00028476,0.00008304,-0.0000
 0967,0.00019752,-0.00004600,0.00000065,-0.00000500,0.00002232,0.000022
 75,-0.00000768,-0.00028723,0.00006580,0.00000996,0.00009306,0.00006605
 ,-0.00002294,0.00235782,-0.00286459,-0.00190263,-0.00880946,-0.0033580
 9,-0.00324861,-0.29788682,0.02328895,-0.09370119,-0.01291407,0.0023845
 0,-0.00539681,-0.00003729,0.00006852,0.00000773,0.00003337,-0.00012919
 ,0.00000349,0.00009824,0.00024426,0.00011292,0.00020378,-0.00044840,-0
 .00031863,-0.00012110,0.00095862,-0.00008840,-0.00003098,0.00018381,0.
 00011367,-0.00009432,-0.00004277,-0.00004216,0.00021838,0.00002662,0.0
 0014916,-0.00000218,-0.00000321,0.00000007,0.00004137,-0.00017139,0.00
 003780,0.00000464,-0.00007981,0.00008758,0.00001431,-0.00000850,-0.000
 00502,0.00001057,0.00001030,-0.00000405,-0.00000276,0.00000147,0.00000
 205,0.00000256,0.00000287,0.00000037,-0.00000192,0.00000583,-0.0000000
 5,-0.00000680,0.00000751,-0.00000123,-0.00000785,0.00000247,0.00000267
 ,-0.00000764,-0.00000486,-0.00000135,0.00000170,-0.00000883,-0.0000215
 4,-0.00064376,0.00012823,-0.00004728,0.00040842,-0.00054081,0.00150017
 ,0.00031762,-0.00021280,0.00030300,0.31618547,-0.00006562,-0.00003240,
 -0.00000577,0.00002233,-0.00001414,-0.00000120,0.00019164,-0.00008405,
 0.00000666,-0.00003995,0.00001757,-0.00001681,0.00003546,0.00000810,0.
 00000253,-0.00000782,-0.00004614,-0.00000586,-0.00015204,-0.00035126,0
 .00013184,0.00005775,-0.00001844,-0.00002052,-0.00002691,0.00004510,-0
 .00002067,0.00000953,-0.00001491,0.00000397,0.00163624,0.00074961,0.00
 034446,0.00089321,-0.00532802,-0.00035895,0.00029325,-0.00068479,-0.00
 002606,-0.00019894,0.00021216,0.00005701,0.00007639,-0.00002133,0.0000
 0562,-0.00007585,-0.00002914,0.00000684,0.00014842,-0.00001521,-0.0000
 0665,-0.00003711,0.00003930,-0.00002856,-0.00183272,-0.00419348,-0.001
 44718,0.02746959,0.00262664,0.00937689,0.02181255,-0.05864934,0.003789
 76,-0.02606541,0.00516788,-0.00898418,0.00007362,-0.00002317,0.0000050
 8,-0.00006937,0.00009782,0.00000395,0.00012482,-0.00020883,-0.00005644
 ,-0.00012205,0.00007734,0.00009712,0.00012035,-0.00006753,0.00001294,-
 0.00005281,-0.00007783,0.00034491,0.00001786,0.00006712,-0.00000579,-0
 .00024852,-0.00000945,-0.00017997,-0.00003529,-0.00001262,0.00004032,-
 0.00004611,0.00009828,-0.00002938,-0.00000720,0.00005686,-0.00007588,-
 0.00001595,0.00000817,0.00001069,-0.00000452,-0.00000817,0.00000105,-0
 .00000215,0.00000269,-0.00000175,-0.00000215,0.00000158,-0.00000248,0.
 00000206,-0.00000154,0.00000002,0.00000221,-0.00000728,0.00000159,0.00
 000106,0.00000141,0.00000189,0.00001112,0.00000005,0.00000054,0.000086
 17,0.00002028,0.00002851,-0.00131623,-0.00001142,0.00009256,0.00030738
 ,0.00091224,0.00050872,-0.00071279,0.00066043,-0.00006038,-0.02197480,
 0.05909927,0.00005691,0.00008048,0.00001552,0.00015768,-0.00004896,-0.
 00002830,0.00003988,-0.00028553,-0.00005800,-0.00013149,-0.00005645,0.
 00004060,-0.00005902,0.00006498,-0.00000315,0.00005536,-0.00001722,0.0
 0001494,-0.00035730,0.00007441,-0.00048319,-0.00005412,0.00006188,0.00
 004081,0.00008863,0.00001382,0.00010878,-0.00004356,0.00011523,-0.0000
 1463,0.00051610,0.00016908,0.00009348,-0.00065970,-0.00067769,0.005142
 20,0.00066016,-0.00106814,-0.00060122,-0.00029541,0.00006452,-0.000593
 47,-0.00009703,0.00002501,0.00000276,0.00017723,-0.00010724,-0.0000110
 2,0.00048944,-0.00004443,-0.00000492,-0.00021605,-0.00034171,0.0000726
 1,-0.00403004,-0.00155261,0.00426636,-0.00199133,0.00651802,-0.0005315
 7,-0.09440254,-0.00448725,-0.06551610,-0.00310704,0.00514842,0.0027196
 8,0.00001102,-0.00012905,-0.00001759,-0.00001898,0.00024476,0.00003174
 ,-0.00077650,-0.00032280,-0.00031015,0.00008804,0.00146716,0.00056626,
 -0.00152055,-0.00364518,0.00202659,-0.00019272,0.00025202,-0.00010064,
 0.00007385,-0.00026910,-0.00018597,0.00037846,0.00019554,0.00032369,0.
 00001412,0.00002078,-0.00000070,0.00005992,-0.00023371,0.00007711,0.00
 015747,0.00026560,-0.00033390,0.00000607,-0.00004751,-0.00002026,-0.00
 000749,0.00000324,0.00001929,0.00001245,0.00000195,-0.00000429,-0.0000
 0139,0.00000149,0.00000822,0.00000419,-0.00000022,-0.00000032,-0.00000
 102,0.00000441,0.00000144,-0.00000033,0.00000764,-0.00001349,-0.000000
 86,-0.00000357,-0.00000142,0.00002190,-0.00000340,0.00006879,-0.000557
 56,0.00012526,0.00020849,0.00125221,0.00060671,-0.00302686,0.00073893,
 0.00160358,-0.00028020,0.10296325,-0.00417802,0.05716892,0.00020453,0.
 00020866,0.00003554,0.00019859,-0.00020711,0.00004391,-0.00005813,0.00
 007862,0.00000759,0.00004575,-0.00009433,-0.00001394,-0.00006194,-0.00
 003625,-0.00000810,0.00003140,0.00008375,0.00001478,0.00020071,-0.0000
 8178,-0.00000784,-0.00008668,-0.00004957,0.00000637,0.00000811,-0.0000
 4790,0.00000297,0.00001145,0.00000600,-0.00000102,-0.00000194,-0.00023
 460,-0.00022909,0.00003867,0.00003200,0.00009548,-0.00014688,0.0002544
 4,0.00007880,0.00004132,-0.00001518,-0.00001540,-0.00024840,0.00016364
 ,-0.00000542,-0.00014873,-0.00010017,0.00016165,0.00011995,0.00126874,
 0.00034566,-0.00001659,0.00039813,0.00004521,0.00035315,-0.00013005,0.
 00013363,-0.00009619,0.00099915,0.00068768,0.00058890,0.00055159,-0.00
 047814,-0.00062545,-0.00065965,-0.00032784,-0.00017111,0.00002602,0.00
 002303,0.00029119,-0.00021589,-0.00009346,-0.00122467,0.00003403,0.000
 48146,-0.00445277,0.00064642,0.00035499,-0.00295347,0.02715502,-0.0033
 8792,-0.04912509,0.02266616,-0.00609815,-0.00303763,-0.00184244,-0.002
 00740,0.00328956,-0.02590471,0.00624641,0.00076945,0.00063434,0.000146
 97,0.00054938,-0.00099216,0.00020128,-0.00091808,-0.00045188,0.0002539
 9,0.00026680,-0.00021243,-0.00157862,0.00000825,0.00007508,-0.00000705
 ,0.00000899,-0.00000452,0.00002512,-0.00003504,0.00002004,-0.00005304,
 -0.00000043,-0.00000330,-0.00000140,0.00000207,-0.00000210,-0.00000160
 ,0.00000308,-0.00000273,0.00000216,0.00000284,0.00000240,-0.00000071,-
 0.00000291,0.00000050,-0.00001247,0.00003065,-0.00000637,-0.00000855,-
 0.00000016,-0.00000090,-0.00002302,-0.00009661,-0.00003944,0.00022085,
 0.00005781,-0.00028072,0.00049874,0.05638629,-0.00005003,-0.00011247,-
 0.00000914,-0.00043422,0.00008903,-0.00002129,-0.00001281,0.00056419,-
 0.00000549,0.00015362,0.00000321,-0.00000265,0.00004474,-0.00007592,-0
 .00000064,-0.00005159,0.00001291,-0.00000224,0.00078859,-0.00014911,0.
 00014363,-0.00018160,-0.00022817,0.00000252,-0.00007269,-0.00002615,-0
 .00000746,-0.00003126,-0.00011627,-0.00000400,-0.00053752,0.00039252,-
 0.00015908,0.00156453,-0.00049422,0.00054640,-0.00017167,0.00023094,-0
 .00024903,0.00007699,0.00000531,-0.00004714,0.00011079,-0.00000808,-0.
 00001364,-0.00005448,0.00011669,-0.00005369,-0.00038905,-0.00042716,-0
 .00026811,0.00021001,-0.00028153,0.00007844,0.00057050,0.00020023,0.00
 027137,-0.00278857,-0.00296882,0.00245803,-0.00051951,0.00317553,0.000
 33157,-0.00102628,-0.00087589,-0.00058532,0.00011266,-0.00004585,0.000
 01160,-0.00006954,0.00007079,0.00002318,0.00114870,0.00001595,0.000804
 56,0.00148563,-0.00062259,0.00072252,0.00686489,-0.00745943,-0.0022122
 3,0.02126333,-0.27960631,0.04913288,-0.00385128,0.00141771,0.00083374,
 -0.00051287,-0.01727280,0.00045404,-0.00016448,0.00102169,-0.00065998,
 0.00022285,-0.00469618,0.00314651,0.00033030,-0.00031856,-0.00006546,0
 .00019915,-0.00024927,-0.00091741,-0.00001097,0.00000118,-0.00002216,-
 0.00000201,-0.00000757,-0.00000028,0.00001255,-0.00001348,-0.00000241,
 -0.00000369,-0.00000310,-0.00000003,0.00000617,-0.00000659,0.00000083,
 0.00000981,-0.00000774,0.00000185,0.00000160,0.00000723,-0.00000099,-0
 .00003112,-0.00000824,-0.00001609,0.00000719,-0.00003829,0.00002685,-0
 .00002684,-0.00002084,-0.00003844,0.00019124,0.00012265,-0.00038681,-0
 .00069326,-0.00005939,0.00038380,-0.02368850,0.30875229,0.00006029,-0.
 00000578,-0.00000198,0.00007301,0.00005953,-0.00001300,0.00004388,-0.0
 0020895,0.00001453,-0.00009726,-0.00004215,0.00000286,-0.00006652,0.00
 004916,0.00000374,0.00005360,0.00001712,-0.00000349,-0.00023649,0.0001
 2959,-0.00005191,0.00001763,0.00008757,-0.00000249,0.00009578,-0.00000
 563,0.00000417,-0.00000296,0.00011256,0.00000097,0.00000819,-0.0001332
 5,0.00001961,-0.00023035,0.00020995,-0.00009596,0.00008117,-0.00031423
 ,0.00001492,-0.00003562,0.00001907,0.00000621,-0.00007682,-0.00006380,
 -0.00003219,0.00024297,-0.00013632,-0.00008604,-0.00018898,-0.00051603
 ,0.00010844,-0.00010472,-0.00003275,-0.00004890,-0.00062646,-0.0001387
 0,-0.00027700,0.00073976,0.00013762,0.00008837,0.00070298,-0.00114451,
 -0.00025635,0.00045866,0.00073172,0.00027683,0.00020984,-0.00004281,0.
 00001399,-0.00013778,0.00029894,0.00011600,0.00028017,-0.00035251,0.00
 020393,0.00241248,-0.00035724,-0.00059015,0.00204817,-0.01118857,0.000
 39460,-0.00603429,0.05118897,-0.04903930,-0.00281200,0.00003876,-0.000
 28181,0.00066514,-0.01830246,0.00145043,0.00046773,0.00079135,0.000392
 54,-0.00239783,0.03269581,-0.00986927,0.00005420,-0.00007797,0.0001791
 0,0.00007426,-0.00036841,-0.00097053,-0.00000546,0.00001018,-0.0000093
 6,0.00000718,-0.00000703,-0.00000846,0.00001994,-0.00001282,0.00002748
 ,0.00000211,0.00000225,0.00000062,-0.00000427,0.00000683,0.00000060,-0
 .00000586,0.00000688,-0.00000017,-0.00000435,-0.00000573,0.00000216,0.
 00000521,-0.00000173,0.00001400,-0.00005988,0.00001309,-0.00001799,0.0
 0001986,-0.00003765,0.00011606,-0.00009321,-0.00012381,0.00003060,0.00
 013098,0.00063701,-0.00087692,0.00424591,-0.05362313,0.05905049\\0.000
 00021,0.00000308,0.00000015,0.00000180,0.00000221,-0.00000174,-0.00000
 078,0.00000159,-0.00000181,-0.00000102,0.00000296,-0.00000070,0.000000
 58,-0.00000010,0.00000128,0.00000275,0.00000319,0.00000140,0.00000285,
 0.00000089,-0.00000215,-0.00000196,-0.00000244,-0.00000112,-0.00000115
 ,0.00000480,-0.00000015,0.00000071,-0.00000003,0.00000026,-0.00000027,
 0.00000269,0.00000059,0.00000479,-0.00000131,0.00000002,-0.00000156,0.
 00000064,-0.00000175,-0.00000082,0.00000124,-0.00000028,0.00000244,-0.
 00000104,0.00000118,-0.00000050,-0.00000027,0.00000055,0.00000041,0.00
 000079,0.00000167,0.00000220,-0.00000200,0.00000254,0.00000134,0.00000
 004,-0.00000036,-0.00000884,-0.00001766,0.00001060,-0.00000345,0.00001
 222,-0.00000219,-0.00000800,-0.00000380,-0.00000461,0.00000148,-0.0000
 0081,0.00000106,0.00000175,-0.00000228,0.00000106,0.00000317,-0.000000
 18,0.00000213,-0.00000008,-0.00000937,-0.00000169,0.00000551,0.0000155
 8,-0.00000916,-0.00000234,-0.00000237,0.00000413,-0.00000021,-0.000001
 28,0.00000108,-0.00000040,-0.00000256,0.00000028,-0.00000024,-0.000002
 46,0.00000050,-0.00000056,-0.00000129,-0.00000011,-0.00000149,-0.00000
 221,0.00000334,0.00000071,-0.00000262,0.00000096,0.00000163,-0.0000020
 3,0.00000142,0.00000213,-0.00000100,0.00000149,0.00000224,0.00000021,0
 .00000100,0.00000191,0.00000155,0.00000061,0.00000146,0.00000257,-0.00
 000007,0.00000006,0.00000270,-0.00000077,-0.00000115,0.00000267,-0.000
 00143,-0.00000164,0.00000134,-0.00000178,-0.00000245,0.00000027,-0.000
 00134,-0.00000264,-0.00000101,-0.00000143,0.00000167,0.00000066,-0.000
 00516,-0.00000143,-0.00000152,-0.00000002,-0.00000083,-0.00000228,0.00
 000050\\\@


 LEARN FROM YESTERDAY,
 LIVE FOR TODAY,
 LOOK TO TOMORROW,
 REST THIS AFTERNOON.

           -- SNOOPY
 Job cpu time:       2 days  5 hours 11 minutes 12.8 seconds.
 Elapsed time:       0 days  2 hours 39 minutes 59.0 seconds.
 File lengths (MBytes):  RWF=   4598 Int=      0 D2E=      0 Chk=     65 Scr=      1
 Normal termination of Gaussian 16 at Sat Jun 15 01:09:25 2019.
