 Entering Gaussian System, Link 0=/share/apps/gaussian16/g16/g16
 Initial command:
 /share/apps/gaussian16/g16/l1.exe "/home/amen01//scratch/454/Gau-4048.inp" -scrdir="/home/amen01//scratch/454/"
 Entering Link 1 = /share/apps/gaussian16/g16/l1.exe PID=      4049.
  
 Copyright (c) 1988-2017, Gaussian, Inc.  All Rights Reserved.
  
 This is part of the Gaussian(R) 16 program.  It is based on
 the Gaussian(R) 09 system (copyright 2009, Gaussian, Inc.),
 the Gaussian(R) 03 system (copyright 2003, Gaussian, Inc.),
 the Gaussian(R) 98 system (copyright 1998, Gaussian, Inc.),
 the Gaussian(R) 94 system (copyright 1995, Gaussian, Inc.),
 the Gaussian 92(TM) system (copyright 1992, Gaussian, Inc.),
 the Gaussian 90(TM) system (copyright 1990, Gaussian, Inc.),
 the Gaussian 88(TM) system (copyright 1988, Gaussian, Inc.),
 the Gaussian 86(TM) system (copyright 1986, Carnegie Mellon
 University), and the Gaussian 82(TM) system (copyright 1983,
 Carnegie Mellon University). Gaussian is a federally registered
 trademark of Gaussian, Inc.
  
 This software contains proprietary and confidential information,
 including trade secrets, belonging to Gaussian, Inc.
  
 This software is provided under written license and may be
 used, copied, transmitted, or stored only in accord with that
 written license.
  
 The following legend is applicable only to US Government
 contracts under FAR:
  
                    RESTRICTED RIGHTS LEGEND
  
 Use, reproduction and disclosure by the US Government is
 subject to restrictions as set forth in subparagraphs (a)
 and (c) of the Commercial Computer Software - Restricted
 Rights clause in FAR 52.227-19.
  
 Gaussian, Inc.
 340 Quinnipiac St., Bldg. 40, Wallingford CT 06492
  
  
 ---------------------------------------------------------------
 Warning -- This program may not be used in any manner that
 competes with the business of Gaussian, Inc. or will provide
 assistance to any competitor of Gaussian, Inc.  The licensee
 of this program is prohibited from giving any competitor of
 Gaussian, Inc. access to this program.  By using this program,
 the user acknowledges that Gaussian, Inc. is engaged in the
 business of creating and licensing software in the field of
 computational chemistry and represents and warrants to the
 licensee that it is not a competitor of Gaussian, Inc. and that
 it will not use this program in any manner prohibited above.
 ---------------------------------------------------------------
  

 Cite this work as:
 Gaussian 16, Revision B.01,
 M. J. Frisch, G. W. Trucks, H. B. Schlegel, G. E. Scuseria, 
 M. A. Robb, J. R. Cheeseman, G. Scalmani, V. Barone, 
 G. A. Petersson, H. Nakatsuji, X. Li, M. Caricato, A. V. Marenich, 
 J. Bloino, B. G. Janesko, R. Gomperts, B. Mennucci, H. P. Hratchian, 
 J. V. Ortiz, A. F. Izmaylov, J. L. Sonnenberg, D. Williams-Young, 
 F. Ding, F. Lipparini, F. Egidi, J. Goings, B. Peng, A. Petrone, 
 T. Henderson, D. Ranasinghe, V. G. Zakrzewski, J. Gao, N. Rega, 
 G. Zheng, W. Liang, M. Hada, M. Ehara, K. Toyota, R. Fukuda, 
 J. Hasegawa, M. Ishida, T. Nakajima, Y. Honda, O. Kitao, H. Nakai, 
 T. Vreven, K. Throssell, J. A. Montgomery, Jr., J. E. Peralta, 
 F. Ogliaro, M. J. Bearpark, J. J. Heyd, E. N. Brothers, K. N. Kudin, 
 V. N. Staroverov, T. A. Keith, R. Kobayashi, J. Normand, 
 K. Raghavachari, A. P. Rendell, J. C. Burant, S. S. Iyengar, 
 J. Tomasi, M. Cossi, J. M. Millam, M. Klene, C. Adamo, R. Cammi, 
 J. W. Ochterski, R. L. Martin, K. Morokuma, O. Farkas, 
 J. B. Foresman, and D. J. Fox, Gaussian, Inc., Wallingford CT, 2016.
 
 ******************************************
 Gaussian 16:  ES64L-G16RevB.01 20-Dec-2017
                12-Jun-2019 
 ******************************************
 %nprocshared=20
 Will use up to   20 processors via shared memory.
 %mem=100GB
 %chk=7-path-TSguess-2b.chk
 ---------------------------------------------------------------
 # opt=(ts,calcfc,noeigen) freq b3lyp/6-311+g(d,p) int=grid=fine
 ---------------------------------------------------------------
 1/5=1,10=4,11=1,18=20,26=3,38=1/1,3;
 2/9=110,12=2,17=6,18=5,40=1/2;
 3/5=4,6=6,7=111,11=2,25=1,30=1,71=2,74=-5,75=-4,140=1/1,2,3;
 4//1;
 5/5=2,38=5/2;
 8/6=4,10=90,11=11/1;
 11/6=1,8=1,9=11,15=111,16=1/1,2,10;
 10/6=1,13=1/2;
 6/7=2,8=2,9=2,10=2,28=1/1;
 7/10=1,18=20,25=1/1,2,3,16;
 1/5=1,10=4,11=1,18=20,26=3/3(2);
 2/9=110/2;
 99//99;
 2/9=110/2;
 3/5=4,6=6,7=111,11=2,25=1,30=1,71=1,74=-5,75=-4/1,2,3;
 4/5=5,16=3,69=1/1;
 5/5=2,38=5/2;
 7//1,2,3,16;
 1/5=1,11=1,18=20,26=3/3(-5);
 2/9=110/2;
 6/7=2,8=2,9=2,10=2,19=2,28=1/1;
 99/9=1/99;
 -----------------
 7-path-TSguess-2b
 -----------------
 Symbolic Z-matrix:
 Charge =  0 Multiplicity = 2
 C                    -3.522    -1.34641  -0.2468 
 C                     0.99895   3.09203  -0.18735 
 C                     2.40494   2.92976  -0.1354 
 C                     2.96745   1.667     0.09697 
 C                     2.04709   0.6349    0.32519 
 C                     0.64453   0.7049    0.28522 
 C                     0.08392   1.96646   0.01439 
 C                     0.15178  -0.70274   0.29981 
 C                     2.45678  -0.70818   0.34528 
 C                     1.31051  -1.51159   0.30446 
 C                     4.3528    1.2396    0.009 
 C                     3.74489  -1.14986   0.15348 
 C                     4.72478  -0.08865   0.03363 
 C                     1.39949  -2.88091   0.04812 
 C                     3.86342  -2.58149  -0.00897 
 C                     2.74873  -3.39727  -0.05942 
 C                    -1.07842  -1.35505   0.13291 
 C                    -1.0313   -2.77117  -0.20259 
 C                     0.16772  -3.50907  -0.2184 
 C                    -2.35931  -0.69486   0.23635 
 C                    -2.25855  -3.39737  -0.62149 
 C                    -3.4245   -2.70868  -0.70138 
 C                    -1.29288   2.2181   -0.13259 
 C                     0.4208    4.36076  -0.50379 
 C                    -0.93275   4.52557  -0.63989 
 C                    -1.82484   3.42616  -0.44215 
 C                    -2.49741   0.56897   0.89918 
 C                    -3.77344   1.14441   1.03197 
 C                    -4.76835  -0.68801  -0.17846 
 C                    -4.88694   0.54822   0.44388 
 H                     5.77457  -0.33941  -0.07998 
 H                     4.84413  -3.02834  -0.13668 
 H                     2.88909  -4.46034  -0.22701 
 H                     0.12648  -4.55665  -0.50023 
 H                     5.1222    1.99369  -0.12237 
 H                     3.0328    3.79269  -0.33629 
 H                     1.08561   5.20571  -0.64929 
 H                    -1.34026   5.49923  -0.89099 
 H                    -2.89647   3.57425  -0.52978 
 H                    -3.88391   2.05912   1.60257 
 H                    -5.8594    1.02131   0.52399 
 H                    -5.64685  -1.18477  -0.57616 
 H                    -4.32489  -3.19627  -1.05991 
 H                    -2.22355  -4.44277  -0.90989 
 H                    -1.727     0.84941   1.60502 
 

 GradGradGradGradGradGradGradGradGradGradGradGradGradGradGradGradGradGrad
 Berny optimization.
 Initialization pass.
                           ----------------------------
                           !    Initial Parameters    !
                           ! (Angstroms and Degrees)  !
 --------------------------                            --------------------------
 ! Name  Definition              Value          Derivative Info.                !
 --------------------------------------------------------------------------------
 ! R1    R(1,20)                 1.4177         calculate D2E/DX2 analytically  !
 ! R2    R(1,22)                 1.4394         calculate D2E/DX2 analytically  !
 ! R3    R(1,29)                 1.4112         calculate D2E/DX2 analytically  !
 ! R4    R(2,3)                  1.4163         calculate D2E/DX2 analytically  !
 ! R5    R(2,7)                  1.4645         calculate D2E/DX2 analytically  !
 ! R6    R(2,24)                 1.4297         calculate D2E/DX2 analytically  !
 ! R7    R(3,4)                  1.4018         calculate D2E/DX2 analytically  !
 ! R8    R(3,36)                 1.0859         calculate D2E/DX2 analytically  !
 ! R9    R(4,5)                  1.4016         calculate D2E/DX2 analytically  !
 ! R10   R(4,11)                 1.4525         calculate D2E/DX2 analytically  !
 ! R11   R(5,6)                  1.4049         calculate D2E/DX2 analytically  !
 ! R12   R(5,9)                  1.4043         calculate D2E/DX2 analytically  !
 ! R13   R(6,7)                  1.4068         calculate D2E/DX2 analytically  !
 ! R14   R(6,8)                  1.4915         calculate D2E/DX2 analytically  !
 ! R15   R(7,23)                 1.4073         calculate D2E/DX2 analytically  !
 ! R16   R(8,10)                 1.4131         calculate D2E/DX2 analytically  !
 ! R17   R(8,17)                 1.4024         calculate D2E/DX2 analytically  !
 ! R18   R(9,10)                 1.4004         calculate D2E/DX2 analytically  !
 ! R19   R(9,12)                 1.3752         calculate D2E/DX2 analytically  !
 ! R20   R(10,14)                1.3959         calculate D2E/DX2 analytically  !
 ! R21   R(11,13)                1.3796         calculate D2E/DX2 analytically  !
 ! R22   R(11,35)                1.0853         calculate D2E/DX2 analytically  !
 ! R23   R(12,13)                1.4494         calculate D2E/DX2 analytically  !
 ! R24   R(12,15)                1.4457         calculate D2E/DX2 analytically  !
 ! R25   R(13,31)                1.0853         calculate D2E/DX2 analytically  !
 ! R26   R(14,16)                1.4487         calculate D2E/DX2 analytically  !
 ! R27   R(14,19)                1.4081         calculate D2E/DX2 analytically  !
 ! R28   R(15,16)                1.3822         calculate D2E/DX2 analytically  !
 ! R29   R(15,32)                1.0852         calculate D2E/DX2 analytically  !
 ! R30   R(16,33)                1.0853         calculate D2E/DX2 analytically  !
 ! R31   R(17,18)                1.4561         calculate D2E/DX2 analytically  !
 ! R32   R(17,20)                1.4447         calculate D2E/DX2 analytically  !
 ! R33   R(18,19)                1.408          calculate D2E/DX2 analytically  !
 ! R34   R(18,21)                1.4401         calculate D2E/DX2 analytically  !
 ! R35   R(19,34)                1.0856         calculate D2E/DX2 analytically  !
 ! R36   R(20,27)                1.4338         calculate D2E/DX2 analytically  !
 ! R37   R(21,22)                1.3565         calculate D2E/DX2 analytically  !
 ! R38   R(21,44)                1.085          calculate D2E/DX2 analytically  !
 ! R39   R(22,43)                1.0849         calculate D2E/DX2 analytically  !
 ! R40   R(23,26)                1.3558         calculate D2E/DX2 analytically  !
 ! R41   R(24,25)                1.3703         calculate D2E/DX2 analytically  !
 ! R42   R(24,37)                1.0849         calculate D2E/DX2 analytically  !
 ! R43   R(25,26)                1.4296         calculate D2E/DX2 analytically  !
 ! R44   R(25,38)                1.085          calculate D2E/DX2 analytically  !
 ! R45   R(26,39)                1.0854         calculate D2E/DX2 analytically  !
 ! R46   R(27,28)                1.4061         calculate D2E/DX2 analytically  !
 ! R47   R(27,45)                1.0818         calculate D2E/DX2 analytically  !
 ! R48   R(28,30)                1.3933         calculate D2E/DX2 analytically  !
 ! R49   R(28,40)                1.0837         calculate D2E/DX2 analytically  !
 ! R50   R(29,30)                1.3891         calculate D2E/DX2 analytically  !
 ! R51   R(29,42)                1.0848         calculate D2E/DX2 analytically  !
 ! R52   R(30,41)                1.0844         calculate D2E/DX2 analytically  !
 ! A1    A(20,1,22)            119.1459         calculate D2E/DX2 analytically  !
 ! A2    A(20,1,29)            119.5638         calculate D2E/DX2 analytically  !
 ! A3    A(22,1,29)            121.1085         calculate D2E/DX2 analytically  !
 ! A4    A(3,2,7)              121.813          calculate D2E/DX2 analytically  !
 ! A5    A(3,2,24)             120.746          calculate D2E/DX2 analytically  !
 ! A6    A(7,2,24)             117.3771         calculate D2E/DX2 analytically  !
 ! A7    A(2,3,4)              120.508          calculate D2E/DX2 analytically  !
 ! A8    A(2,3,36)             118.4352         calculate D2E/DX2 analytically  !
 ! A9    A(4,3,36)             120.9635         calculate D2E/DX2 analytically  !
 ! A10   A(3,4,5)              115.2677         calculate D2E/DX2 analytically  !
 ! A11   A(3,4,11)             129.6269         calculate D2E/DX2 analytically  !
 ! A12   A(5,4,11)             114.8029         calculate D2E/DX2 analytically  !
 ! A13   A(4,5,6)              127.8979         calculate D2E/DX2 analytically  !
 ! A14   A(4,5,9)              120.9997         calculate D2E/DX2 analytically  !
 ! A15   A(6,5,9)              109.8356         calculate D2E/DX2 analytically  !
 ! A16   A(5,6,7)              116.6154         calculate D2E/DX2 analytically  !
 ! A17   A(5,6,8)              106.4113         calculate D2E/DX2 analytically  !
 ! A18   A(7,6,8)              135.7718         calculate D2E/DX2 analytically  !
 ! A19   A(2,7,6)              117.8221         calculate D2E/DX2 analytically  !
 ! A20   A(2,7,23)             117.3508         calculate D2E/DX2 analytically  !
 ! A21   A(6,7,23)             124.7718         calculate D2E/DX2 analytically  !
 ! A22   A(6,8,10)             105.6251         calculate D2E/DX2 analytically  !
 ! A23   A(6,8,17)             136.6891         calculate D2E/DX2 analytically  !
 ! A24   A(10,8,17)            116.9647         calculate D2E/DX2 analytically  !
 ! A25   A(5,9,10)             108.0275         calculate D2E/DX2 analytically  !
 ! A26   A(5,9,12)             125.3421         calculate D2E/DX2 analytically  !
 ! A27   A(10,9,12)            125.3369         calculate D2E/DX2 analytically  !
 ! A28   A(8,10,9)             110.0535         calculate D2E/DX2 analytically  !
 ! A29   A(8,10,14)            127.8164         calculate D2E/DX2 analytically  !
 ! A30   A(9,10,14)            121.0605         calculate D2E/DX2 analytically  !
 ! A31   A(4,11,13)            122.6437         calculate D2E/DX2 analytically  !
 ! A32   A(4,11,35)            118.6228         calculate D2E/DX2 analytically  !
 ! A33   A(13,11,35)           118.6845         calculate D2E/DX2 analytically  !
 ! A34   A(9,12,13)            114.1819         calculate D2E/DX2 analytically  !
 ! A35   A(9,12,15)            114.2385         calculate D2E/DX2 analytically  !
 ! A36   A(13,12,15)           131.3258         calculate D2E/DX2 analytically  !
 ! A37   A(11,13,12)           121.6094         calculate D2E/DX2 analytically  !
 ! A38   A(11,13,31)           118.7775         calculate D2E/DX2 analytically  !
 ! A39   A(12,13,31)           119.5669         calculate D2E/DX2 analytically  !
 ! A40   A(10,14,16)           115.0015         calculate D2E/DX2 analytically  !
 ! A41   A(10,14,19)           114.6188         calculate D2E/DX2 analytically  !
 ! A42   A(16,14,19)           129.9151         calculate D2E/DX2 analytically  !
 ! A43   A(12,15,16)           121.4957         calculate D2E/DX2 analytically  !
 ! A44   A(12,15,32)           119.6736         calculate D2E/DX2 analytically  !
 ! A45   A(16,15,32)           118.7801         calculate D2E/DX2 analytically  !
 ! A46   A(14,16,15)           122.5482         calculate D2E/DX2 analytically  !
 ! A47   A(14,16,33)           118.7536         calculate D2E/DX2 analytically  !
 ! A48   A(15,16,33)           118.649          calculate D2E/DX2 analytically  !
 ! A49   A(8,17,18)            116.8336         calculate D2E/DX2 analytically  !
 ! A50   A(8,17,20)            123.8245         calculate D2E/DX2 analytically  !
 ! A51   A(18,17,20)           119.3157         calculate D2E/DX2 analytically  !
 ! A52   A(17,18,19)           122.6733         calculate D2E/DX2 analytically  !
 ! A53   A(17,18,21)           117.5389         calculate D2E/DX2 analytically  !
 ! A54   A(19,18,21)           119.6429         calculate D2E/DX2 analytically  !
 ! A55   A(14,19,18)           120.5982         calculate D2E/DX2 analytically  !
 ! A56   A(14,19,34)           120.8527         calculate D2E/DX2 analytically  !
 ! A57   A(18,19,34)           118.4429         calculate D2E/DX2 analytically  !
 ! A58   A(1,20,17)            119.5188         calculate D2E/DX2 analytically  !
 ! A59   A(1,20,27)            118.9257         calculate D2E/DX2 analytically  !
 ! A60   A(17,20,27)           121.4201         calculate D2E/DX2 analytically  !
 ! A61   A(18,21,22)           121.9293         calculate D2E/DX2 analytically  !
 ! A62   A(18,21,44)           117.956          calculate D2E/DX2 analytically  !
 ! A63   A(22,21,44)           120.0815         calculate D2E/DX2 analytically  !
 ! A64   A(1,22,21)            121.3395         calculate D2E/DX2 analytically  !
 ! A65   A(1,22,43)            118.2616         calculate D2E/DX2 analytically  !
 ! A66   A(21,22,43)           120.3069         calculate D2E/DX2 analytically  !
 ! A67   A(7,23,26)            124.5431         calculate D2E/DX2 analytically  !
 ! A68   A(2,24,25)            121.8799         calculate D2E/DX2 analytically  !
 ! A69   A(2,24,37)            118.2291         calculate D2E/DX2 analytically  !
 ! A70   A(25,24,37)           119.8867         calculate D2E/DX2 analytically  !
 ! A71   A(24,25,26)           120.6748         calculate D2E/DX2 analytically  !
 ! A72   A(24,25,38)           120.1272         calculate D2E/DX2 analytically  !
 ! A73   A(26,25,38)           119.1955         calculate D2E/DX2 analytically  !
 ! A74   A(23,26,25)           118.1632         calculate D2E/DX2 analytically  !
 ! A75   A(23,26,39)           121.8304         calculate D2E/DX2 analytically  !
 ! A76   A(25,26,39)           120.0026         calculate D2E/DX2 analytically  !
 ! A77   A(20,27,28)           119.4608         calculate D2E/DX2 analytically  !
 ! A78   A(20,27,45)           117.4856         calculate D2E/DX2 analytically  !
 ! A79   A(28,27,45)           118.5915         calculate D2E/DX2 analytically  !
 ! A80   A(27,28,30)           120.6841         calculate D2E/DX2 analytically  !
 ! A81   A(27,28,40)           119.1868         calculate D2E/DX2 analytically  !
 ! A82   A(30,28,40)           120.1287         calculate D2E/DX2 analytically  !
 ! A83   A(1,29,30)            120.8169         calculate D2E/DX2 analytically  !
 ! A84   A(1,29,42)            118.936          calculate D2E/DX2 analytically  !
 ! A85   A(30,29,42)           120.176          calculate D2E/DX2 analytically  !
 ! A86   A(28,30,29)           120.1117         calculate D2E/DX2 analytically  !
 ! A87   A(28,30,41)           119.9234         calculate D2E/DX2 analytically  !
 ! A88   A(29,30,41)           119.8622         calculate D2E/DX2 analytically  !
 ! D1    D(22,1,20,17)           6.5106         calculate D2E/DX2 analytically  !
 ! D2    D(22,1,20,27)        -169.3208         calculate D2E/DX2 analytically  !
 ! D3    D(29,1,20,17)        -178.3344         calculate D2E/DX2 analytically  !
 ! D4    D(29,1,20,27)           5.8341         calculate D2E/DX2 analytically  !
 ! D5    D(20,1,22,21)           2.9415         calculate D2E/DX2 analytically  !
 ! D6    D(20,1,22,43)         179.4626         calculate D2E/DX2 analytically  !
 ! D7    D(29,1,22,21)        -172.1362         calculate D2E/DX2 analytically  !
 ! D8    D(29,1,22,43)           4.3849         calculate D2E/DX2 analytically  !
 ! D9    D(20,1,29,30)          -4.7409         calculate D2E/DX2 analytically  !
 ! D10   D(20,1,29,42)         178.3198         calculate D2E/DX2 analytically  !
 ! D11   D(22,1,29,30)         170.3165         calculate D2E/DX2 analytically  !
 ! D12   D(22,1,29,42)          -6.6228         calculate D2E/DX2 analytically  !
 ! D13   D(7,2,3,4)              0.8189         calculate D2E/DX2 analytically  !
 ! D14   D(7,2,3,36)           177.3395         calculate D2E/DX2 analytically  !
 ! D15   D(24,2,3,4)          -176.1977         calculate D2E/DX2 analytically  !
 ! D16   D(24,2,3,36)            0.3229         calculate D2E/DX2 analytically  !
 ! D17   D(3,2,7,6)              0.9562         calculate D2E/DX2 analytically  !
 ! D18   D(3,2,7,23)          -176.4696         calculate D2E/DX2 analytically  !
 ! D19   D(24,2,7,6)           178.0689         calculate D2E/DX2 analytically  !
 ! D20   D(24,2,7,23)            0.643          calculate D2E/DX2 analytically  !
 ! D21   D(3,2,24,25)          175.9805         calculate D2E/DX2 analytically  !
 ! D22   D(3,2,24,37)           -3.2731         calculate D2E/DX2 analytically  !
 ! D23   D(7,2,24,25)           -1.1647         calculate D2E/DX2 analytically  !
 ! D24   D(7,2,24,37)          179.5817         calculate D2E/DX2 analytically  !
 ! D25   D(2,3,4,5)             -2.7229         calculate D2E/DX2 analytically  !
 ! D26   D(2,3,4,11)           170.557          calculate D2E/DX2 analytically  !
 ! D27   D(36,3,4,5)          -179.1547         calculate D2E/DX2 analytically  !
 ! D28   D(36,3,4,11)           -5.8747         calculate D2E/DX2 analytically  !
 ! D29   D(3,4,5,6)              3.3046         calculate D2E/DX2 analytically  !
 ! D30   D(3,4,5,9)            169.0883         calculate D2E/DX2 analytically  !
 ! D31   D(11,4,5,6)          -170.9973         calculate D2E/DX2 analytically  !
 ! D32   D(11,4,5,9)            -5.2136         calculate D2E/DX2 analytically  !
 ! D33   D(3,4,11,13)         -168.0278         calculate D2E/DX2 analytically  !
 ! D34   D(3,4,11,35)            9.3891         calculate D2E/DX2 analytically  !
 ! D35   D(5,4,11,13)            5.2777         calculate D2E/DX2 analytically  !
 ! D36   D(5,4,11,35)         -177.3054         calculate D2E/DX2 analytically  !
 ! D37   D(4,5,6,7)             -1.61           calculate D2E/DX2 analytically  !
 ! D38   D(4,5,6,8)            167.8504         calculate D2E/DX2 analytically  !
 ! D39   D(9,5,6,7)           -168.6787         calculate D2E/DX2 analytically  !
 ! D40   D(9,5,6,8)              0.7818         calculate D2E/DX2 analytically  !
 ! D41   D(4,5,9,10)          -167.5253         calculate D2E/DX2 analytically  !
 ! D42   D(4,5,9,12)             0.0151         calculate D2E/DX2 analytically  !
 ! D43   D(6,5,9,10)             0.5858         calculate D2E/DX2 analytically  !
 ! D44   D(6,5,9,12)           168.1263         calculate D2E/DX2 analytically  !
 ! D45   D(5,6,7,2)             -0.6134         calculate D2E/DX2 analytically  !
 ! D46   D(5,6,7,23)           176.6031         calculate D2E/DX2 analytically  !
 ! D47   D(8,6,7,2)           -166.044          calculate D2E/DX2 analytically  !
 ! D48   D(8,6,7,23)            11.1725         calculate D2E/DX2 analytically  !
 ! D49   D(5,6,8,10)            -1.826          calculate D2E/DX2 analytically  !
 ! D50   D(5,6,8,17)          -171.2694         calculate D2E/DX2 analytically  !
 ! D51   D(7,6,8,10)           164.6149         calculate D2E/DX2 analytically  !
 ! D52   D(7,6,8,17)            -4.8286         calculate D2E/DX2 analytically  !
 ! D53   D(2,7,23,26)           -0.2248         calculate D2E/DX2 analytically  !
 ! D54   D(6,7,23,26)         -177.4532         calculate D2E/DX2 analytically  !
 ! D55   D(6,8,10,9)             2.2386         calculate D2E/DX2 analytically  !
 ! D56   D(6,8,10,14)         -165.8789         calculate D2E/DX2 analytically  !
 ! D57   D(17,8,10,9)          174.1328         calculate D2E/DX2 analytically  !
 ! D58   D(17,8,10,14)           6.0154         calculate D2E/DX2 analytically  !
 ! D59   D(6,8,17,18)          160.3613         calculate D2E/DX2 analytically  !
 ! D60   D(6,8,17,20)          -17.7547         calculate D2E/DX2 analytically  !
 ! D61   D(10,8,17,18)          -8.2212         calculate D2E/DX2 analytically  !
 ! D62   D(10,8,17,20)         173.6627         calculate D2E/DX2 analytically  !
 ! D63   D(5,9,10,8)            -1.8151         calculate D2E/DX2 analytically  !
 ! D64   D(5,9,10,14)          167.2387         calculate D2E/DX2 analytically  !
 ! D65   D(12,9,10,8)         -169.3564         calculate D2E/DX2 analytically  !
 ! D66   D(12,9,10,14)          -0.3026         calculate D2E/DX2 analytically  !
 ! D67   D(5,9,12,13)            5.131          calculate D2E/DX2 analytically  !
 ! D68   D(5,9,12,15)         -169.7479         calculate D2E/DX2 analytically  !
 ! D69   D(10,9,12,13)         170.5651         calculate D2E/DX2 analytically  !
 ! D70   D(10,9,12,15)          -4.3137         calculate D2E/DX2 analytically  !
 ! D71   D(8,10,14,16)         171.6354         calculate D2E/DX2 analytically  !
 ! D72   D(8,10,14,19)          -1.3323         calculate D2E/DX2 analytically  !
 ! D73   D(9,10,14,16)           4.6851         calculate D2E/DX2 analytically  !
 ! D74   D(9,10,14,19)        -168.2826         calculate D2E/DX2 analytically  !
 ! D75   D(4,11,13,12)          -0.1581         calculate D2E/DX2 analytically  !
 ! D76   D(4,11,13,31)         177.3562         calculate D2E/DX2 analytically  !
 ! D77   D(35,11,13,12)       -177.5735         calculate D2E/DX2 analytically  !
 ! D78   D(35,11,13,31)         -0.0593         calculate D2E/DX2 analytically  !
 ! D79   D(9,12,13,11)          -4.9488         calculate D2E/DX2 analytically  !
 ! D80   D(9,12,13,31)         177.5561         calculate D2E/DX2 analytically  !
 ! D81   D(15,12,13,11)        168.829          calculate D2E/DX2 analytically  !
 ! D82   D(15,12,13,31)         -8.6661         calculate D2E/DX2 analytically  !
 ! D83   D(9,12,15,16)           4.4106         calculate D2E/DX2 analytically  !
 ! D84   D(9,12,15,32)        -178.2088         calculate D2E/DX2 analytically  !
 ! D85   D(13,12,15,16)       -169.3645         calculate D2E/DX2 analytically  !
 ! D86   D(13,12,15,32)          8.0161         calculate D2E/DX2 analytically  !
 ! D87   D(10,14,16,15)         -4.4816         calculate D2E/DX2 analytically  !
 ! D88   D(10,14,16,33)        178.1051         calculate D2E/DX2 analytically  !
 ! D89   D(19,14,16,15)        167.1747         calculate D2E/DX2 analytically  !
 ! D90   D(19,14,16,33)        -10.2386         calculate D2E/DX2 analytically  !
 ! D91   D(10,14,19,18)         -0.5704         calculate D2E/DX2 analytically  !
 ! D92   D(10,14,19,34)        175.6237         calculate D2E/DX2 analytically  !
 ! D93   D(16,14,19,18)       -172.2527         calculate D2E/DX2 analytically  !
 ! D94   D(16,14,19,34)          3.9415         calculate D2E/DX2 analytically  !
 ! D95   D(12,15,16,14)         -0.1115         calculate D2E/DX2 analytically  !
 ! D96   D(12,15,16,33)        177.3044         calculate D2E/DX2 analytically  !
 ! D97   D(32,15,16,14)       -177.5149         calculate D2E/DX2 analytically  !
 ! D98   D(32,15,16,33)         -0.099          calculate D2E/DX2 analytically  !
 ! D99   D(8,17,18,19)           6.9513         calculate D2E/DX2 analytically  !
 ! D100  D(8,17,18,21)        -168.6523         calculate D2E/DX2 analytically  !
 ! D101  D(20,17,18,19)       -174.8437         calculate D2E/DX2 analytically  !
 ! D102  D(20,17,18,21)          9.5527         calculate D2E/DX2 analytically  !
 ! D103  D(8,17,20,1)          165.3763         calculate D2E/DX2 analytically  !
 ! D104  D(8,17,20,27)         -18.8994         calculate D2E/DX2 analytically  !
 ! D105  D(18,17,20,1)         -12.6957         calculate D2E/DX2 analytically  !
 ! D106  D(18,17,20,27)        163.0287         calculate D2E/DX2 analytically  !
 ! D107  D(17,18,19,14)         -2.3655         calculate D2E/DX2 analytically  !
 ! D108  D(17,18,19,34)       -178.6498         calculate D2E/DX2 analytically  !
 ! D109  D(21,18,19,14)        173.149          calculate D2E/DX2 analytically  !
 ! D110  D(21,18,19,34)         -3.1353         calculate D2E/DX2 analytically  !
 ! D111  D(17,18,21,22)         -0.2233         calculate D2E/DX2 analytically  !
 ! D112  D(17,18,21,44)        177.682          calculate D2E/DX2 analytically  !
 ! D113  D(19,18,21,22)       -175.9656         calculate D2E/DX2 analytically  !
 ! D114  D(19,18,21,44)          1.9397         calculate D2E/DX2 analytically  !
 ! D115  D(1,20,27,28)          -1.2286         calculate D2E/DX2 analytically  !
 ! D116  D(1,20,27,45)         154.7562         calculate D2E/DX2 analytically  !
 ! D117  D(17,20,27,28)       -176.9777         calculate D2E/DX2 analytically  !
 ! D118  D(17,20,27,45)        -20.9929         calculate D2E/DX2 analytically  !
 ! D119  D(18,21,22,1)          -6.1202         calculate D2E/DX2 analytically  !
 ! D120  D(18,21,22,43)        177.4291         calculate D2E/DX2 analytically  !
 ! D121  D(44,21,22,1)         176.0181         calculate D2E/DX2 analytically  !
 ! D122  D(44,21,22,43)         -0.4326         calculate D2E/DX2 analytically  !
 ! D123  D(7,23,26,25)           0.2525         calculate D2E/DX2 analytically  !
 ! D124  D(7,23,26,39)        -179.0381         calculate D2E/DX2 analytically  !
 ! D125  D(2,24,25,26)           1.2291         calculate D2E/DX2 analytically  !
 ! D126  D(2,24,25,38)        -179.3489         calculate D2E/DX2 analytically  !
 ! D127  D(37,24,25,26)       -179.5294         calculate D2E/DX2 analytically  !
 ! D128  D(37,24,25,38)         -0.1074         calculate D2E/DX2 analytically  !
 ! D129  D(24,25,26,23)         -0.743          calculate D2E/DX2 analytically  !
 ! D130  D(24,25,26,39)        178.5609         calculate D2E/DX2 analytically  !
 ! D131  D(38,25,26,23)        179.8296         calculate D2E/DX2 analytically  !
 ! D132  D(38,25,26,39)         -0.8664         calculate D2E/DX2 analytically  !
 ! D133  D(20,27,28,30)         -4.6498         calculate D2E/DX2 analytically  !
 ! D134  D(20,27,28,40)        175.1101         calculate D2E/DX2 analytically  !
 ! D135  D(45,27,28,30)       -160.3707         calculate D2E/DX2 analytically  !
 ! D136  D(45,27,28,40)         19.3893         calculate D2E/DX2 analytically  !
 ! D137  D(27,28,30,29)          5.883          calculate D2E/DX2 analytically  !
 ! D138  D(27,28,30,41)       -177.8066         calculate D2E/DX2 analytically  !
 ! D139  D(40,28,30,29)       -173.8748         calculate D2E/DX2 analytically  !
 ! D140  D(40,28,30,41)          2.4357         calculate D2E/DX2 analytically  !
 ! D141  D(1,29,30,28)          -1.1406         calculate D2E/DX2 analytically  !
 ! D142  D(1,29,30,41)        -177.4533         calculate D2E/DX2 analytically  !
 ! D143  D(42,29,30,28)        175.7609         calculate D2E/DX2 analytically  !
 ! D144  D(42,29,30,41)         -0.5518         calculate D2E/DX2 analytically  !
 --------------------------------------------------------------------------------
 Trust Radius=3.00D-01 FncErr=1.00D-07 GrdErr=1.00D-06 EigMax=2.50D+02 EigMin=1.00D-04
 Number of steps in this run=    270 maximum allowed number of steps=    270.
 Search for a saddle point of order  1.
 GradGradGradGradGradGradGradGradGradGradGradGradGradGradGradGradGradGrad

                          Input orientation:                          
 ---------------------------------------------------------------------
 Center     Atomic      Atomic             Coordinates (Angstroms)
 Number     Number       Type             X           Y           Z
 ---------------------------------------------------------------------
      1          6           0       -3.521998   -1.346412   -0.246804
      2          6           0        0.998948    3.092025   -0.187345
      3          6           0        2.404935    2.929761   -0.135402
      4          6           0        2.967445    1.667001    0.096968
      5          6           0        2.047088    0.634899    0.325194
      6          6           0        0.644530    0.704903    0.285222
      7          6           0        0.083918    1.966460    0.014391
      8          6           0        0.151777   -0.702739    0.299810
      9          6           0        2.456783   -0.708175    0.345276
     10          6           0        1.310509   -1.511592    0.304457
     11          6           0        4.352804    1.239597    0.008997
     12          6           0        3.744893   -1.149864    0.153483
     13          6           0        4.724784   -0.088649    0.033626
     14          6           0        1.399491   -2.880906    0.048119
     15          6           0        3.863423   -2.581490   -0.008970
     16          6           0        2.748734   -3.397274   -0.059418
     17          6           0       -1.078423   -1.355052    0.132914
     18          6           0       -1.031296   -2.771173   -0.202589
     19          6           0        0.167722   -3.509067   -0.218396
     20          6           0       -2.359306   -0.694857    0.236350
     21          6           0       -2.258551   -3.397370   -0.621490
     22          6           0       -3.424497   -2.708678   -0.701376
     23          6           0       -1.292877    2.218100   -0.132592
     24          6           0        0.420796    4.360765   -0.503787
     25          6           0       -0.932749    4.525569   -0.639892
     26          6           0       -1.824841    3.426158   -0.442151
     27          6           0       -2.497413    0.568968    0.899178
     28          6           0       -3.773437    1.144409    1.031968
     29          6           0       -4.768346   -0.688008   -0.178460
     30          6           0       -4.886940    0.548216    0.443883
     31          1           0        5.774567   -0.339412   -0.079981
     32          1           0        4.844125   -3.028336   -0.136682
     33          1           0        2.889086   -4.460335   -0.227007
     34          1           0        0.126476   -4.556652   -0.500229
     35          1           0        5.122198    1.993693   -0.122373
     36          1           0        3.032804    3.792687   -0.336293
     37          1           0        1.085615    5.205713   -0.649287
     38          1           0       -1.340260    5.499229   -0.890986
     39          1           0       -2.896466    3.574250   -0.529776
     40          1           0       -3.883905    2.059119    1.602565
     41          1           0       -5.859402    1.021312    0.523988
     42          1           0       -5.646852   -1.184774   -0.576155
     43          1           0       -4.324889   -3.196271   -1.059905
     44          1           0       -2.223549   -4.442768   -0.909894
     45          1           0       -1.727001    0.849405    1.605021
 ---------------------------------------------------------------------
                    Distance matrix (angstroms):
                    1          2          3          4          5
     1  C    0.000000
     2  C    6.335788   0.000000
     3  C    7.309350   1.416272   0.000000
     4  C    7.163219   2.446734   1.401776   0.000000
     5  C    5.938644   2.720067   2.367825   1.401563   0.000000
     6  C    4.674495   2.459122   2.868091   2.521310   1.404873
     7  C    4.903669   1.464539   2.517441   2.900211   2.392423
     8  C    3.769579   3.918578   4.296648   3.685756   2.319940
     9  C    6.041831   4.104935   3.669921   2.442108   1.404315
    10  C    4.866652   4.640283   4.595309   3.590535   2.269450
    11  C    8.292490   3.836455   2.582963   1.452457   2.404572
    12  C    7.280561   5.064583   4.303752   2.922730   2.469293
    13  C    8.346857   4.903812   3.810652   2.484866   2.789012
    14  C    5.163594   5.990975   5.899869   4.810855   3.585671
    15  C    7.491757   6.358129   5.702373   4.343233   3.708894
    16  C    6.600245   6.722285   6.336824   5.071407   4.110797
    17  C    2.472917   4.918794   5.528598   5.050064   3.710215
    18  C    2.869755   6.204773   6.656789   5.981392   4.621291
    19  C    4.276905   6.653294   6.816929   5.893181   4.582571
    20  C    1.417679   5.079160   5.997837   5.828557   4.603526
    21  C    2.437851   7.274066   7.875085   7.312665   5.974440
    22  C    1.439413   7.312951   8.129858   7.787223   6.493966
    23  C    4.205683   2.453407   3.765672   4.301947   3.724441
    24  C    6.941436   1.429719   2.473921   3.755355   4.148989
    25  C    6.429533   2.447713   3.733798   4.891410   4.994811
    26  C    5.069115   2.854883   4.269837   5.133351   4.834437
    27  C    2.455958   4.446447   5.538656   5.631509   4.581080
    28  C    2.811169   5.296753   6.536246   6.825454   5.885375
    29  C    1.411223   6.895680   8.034057   8.091007   6.960883
    30  C    2.435104   6.443065   7.692774   7.941246   6.935585
    31  H    9.352433   5.881566   4.695209   3.454987   3.873958
    32  H    8.534226   7.228193   6.438056   5.061888   4.632066
    33  H    7.127335   7.785392   7.406505   6.136395   5.193775
    34  H    4.866336   7.704633   7.833955   6.867431   5.596631
    35  H    9.267897   4.267522   2.874006   2.190388   3.391598
    36  H    8.329692   2.156312   1.085918   2.170375   3.373548
    37  H    8.020127   2.165313   2.680418   4.076845   4.771413
    38  H    7.213720   3.429524   4.604298   5.849645   6.051027
    39  H    4.968327   3.940057   5.354974   6.198053   5.814592
    40  H    3.892144   5.302162   6.582405   7.025779   6.231914
    41  H    3.415215   7.199362   8.507423   8.860727   7.918423
    42  H    2.156294   7.912575   9.052897   9.099001   7.957409
    43  H    2.174338   8.285365   9.147322   8.841261   7.562966
    44  H    3.422438   8.226765   8.739387   8.080190   6.748814
    45  H    3.387164   3.958878   4.942656   4.998051   3.990954
                    6          7          8          9         10
     6  C    0.000000
     7  C    1.406827   0.000000
     8  C    1.491467   2.685273   0.000000
     9  C    2.298838   3.590772   2.305461   0.000000
    10  C    2.314465   3.699393   1.413126   1.400389   0.000000
    11  C    3.756793   4.330329   4.637442   2.738940   4.112408
    12  C    3.615213   4.809736   3.623785   1.375173   2.465738
    13  C    4.164312   5.075577   4.621726   2.371659   3.708826
    14  C    3.672085   5.022831   2.522806   2.434528   1.395940
    15  C    4.609577   5.913464   4.171495   2.369269   2.785729
    16  C    4.623236   5.989686   3.759488   2.735008   2.399311
    17  C    2.689829   3.521012   1.402412   3.600171   2.400193
    18  C    3.889660   4.871955   2.435259   4.089353   2.706971
    19  C    4.270658   5.481114   2.853816   3.660946   2.359925
    20  C    3.314325   3.619560   2.511897   4.817339   3.760218
    21  C    5.106726   5.887459   3.730886   5.513690   4.141464
    22  C    5.402119   5.888821   4.220889   6.299758   4.986481
    23  C    2.493568   1.407299   3.287141   4.780313   4.569380
    24  C    3.746721   2.472790   5.133928   5.528137   5.994116
    25  C    4.235698   2.830325   5.421664   6.312809   6.509325
    26  C    3.745944   2.445917   4.637382   6.003753   5.896543
    27  C    3.204251   3.065795   2.999115   5.146063   4.379805
    28  C    4.502136   4.073134   4.399468   6.535997   5.781879
    29  C    5.608425   5.534244   4.943336   7.244115   6.153371
    30  C    5.535963   5.187033   5.193680   7.451074   6.532275
    31  H    5.247975   6.140801   5.647302   3.365192   4.631373
    32  H    5.634862   6.901477   5.255193   3.363753   3.870602
    33  H    5.655094   7.016476   4.678667   3.820091   3.386657
    34  H    5.345023   6.543519   3.936159   4.577771   3.364795
    35  H    4.677245   5.040209   5.670456   3.824032   5.195977
    36  H    3.952789   3.486261   5.377155   4.588474   5.613576
    37  H    4.617917   3.454942   6.056620   6.151693   6.788401
    38  H    5.320566   3.915156   6.489112   7.380904   7.589945
    39  H    4.629906   3.429839   5.317202   6.911017   6.652847
    40  H    4.906732   4.274869   5.060806   7.031573   6.435604
    41  H    6.516000   6.039540   6.257546   8.495999   7.607327
    42  H    6.625280   6.566639   5.884197   8.169766   7.020481
    43  H    6.459385   6.873535   5.301610   7.359092   6.037991
    44  H    6.012711   6.874366   4.592752   6.117855   4.749316
    45  H    2.717887   2.656566   2.764513   4.638649   4.061064
                   11         12         13         14         15
    11  C    0.000000
    12  C    2.469809   0.000000
    13  C    1.379570   1.449389   0.000000
    14  C    5.069727   2.916936   4.342175   0.000000
    15  C    3.852340   1.445681   2.637805   2.482714   0.000000
    16  C    4.906964   2.467491   3.854923   1.448674   1.382237
    17  C    6.020447   4.827722   5.940610   2.911267   5.093734
    18  C    6.717111   5.056423   6.354856   2.446144   4.902218
    19  C    6.333753   4.301196   5.703472   1.408145   3.816080
    20  C    6.989007   6.121695   7.112870   4.352332   6.507067
    21  C    8.099938   6.457028   7.755242   3.754515   6.206400
    22  C    8.750995   7.386531   8.591598   4.884902   7.321843
    23  C    5.731599   6.066642   6.446779   5.769000   7.045479
    24  C    5.046318   6.469054   6.213728   7.328318   7.764756
    25  C    6.257455   7.397318   7.331597   7.795420   8.597187
    26  C    6.568705   7.233028   7.448343   7.100404   8.284674
    27  C    6.940291   6.517425   7.303545   5.273689   7.156141
    28  C    8.190929   7.909533   8.645049   6.627994   8.560812
    29  C    9.324493   8.532217   9.514396   6.549989   8.838633
    30  C    9.275775   8.802065   9.641532   7.171800   9.304246
    31  H    2.126640   2.197934   1.085280   5.061313   2.946935
    32  H    4.298589   2.195715   2.947034   3.452737   1.085246
    33  H    5.889600   3.440406   4.748616   2.188420   2.127659
    34  H    7.191499   5.012633   6.433699   2.174713   4.255276
    35  H    1.085305   3.443111   2.125658   6.135905   4.746543
    36  H    2.894805   5.017545   4.250224   6.881303   6.436397
    37  H    5.180535   6.936105   6.460665   8.122703   8.292572
    38  H    7.166967   8.435647   8.298436   8.866500   9.651647
    39  H    7.634972   8.178737   8.474533   7.775490   9.157536
    40  H    8.429380   8.402141   9.010217   7.398272   9.173516
    41  H   10.227513   9.853617  10.653519   8.255016  10.382560
    42  H   10.305974   9.420110  10.447208   7.274444   9.629011
    43  H    9.804174   8.413173   9.630665   5.839152   8.278338
    44  H    8.739683   6.899006   8.253964   4.060003   6.428627
    45  H    6.297902   6.003804   6.706322   5.110197   6.754913
                   16         17         18         19         20
    16  C    0.000000
    17  C    4.342211   0.000000
    18  C    3.834205   1.456084   0.000000
    19  C    2.588319   2.513181   1.407971   0.000000
    20  C    5.786416   1.444721   2.503471   3.809520   0.000000
    21  C    5.038733   2.476467   1.440054   2.462065   2.837185
    22  C    6.244602   2.834150   2.445425   3.711863   2.463623
    23  C    6.918988   3.589415   4.996616   5.911104   3.123893
    24  C    8.111962   5.943367   7.284493   7.879070   5.816879
    25  C    8.755667   5.932972   7.310499   8.120595   5.482309
    26  C    8.223339   4.873172   6.252521   7.219260   4.210556
    27  C    6.646205   2.510487   3.810503   4.998228   1.433760
    28  C    8.022264   3.784006   4.937130   6.225029   2.452687
    29  C    7.991294   3.762636   4.278516   5.685485   2.444502
    30  C    8.609513   4.268950   5.128573   6.515349   2.824400
    31  H    4.301931   6.931113   7.228296   6.442250   8.147779
    32  H    2.129025   6.160287   5.881416   4.701758   7.581141
    33  H    1.085303   5.051084   4.268871   2.882847   6.476044
    34  H    2.900812   3.478921   2.148711   1.085618   4.651357
    35  H    5.890655   7.051735   7.783050   7.405162   7.958008
    36  H    7.200895   6.604662   7.721337   7.844629   7.038524
    37  H    8.782101   6.952592   8.265081   8.773573   6.889743
    38  H    9.826451   6.935279   8.304752   9.158372   6.377777
    39  H    8.982854   5.295513   6.621956   7.723962   4.370442
    40  H    8.747932   4.656948   5.893020   7.122940   3.431520
    41  H    9.693517   5.353299   6.182351   7.576390   3.908791
    42  H    8.697588   4.626264   4.894851   6.272129   3.421716
    43  H    7.146854   3.918220   3.429789   4.581433   3.435239
    44  H    5.151695   3.454382   2.171630   2.658598   3.921625
    45  H    6.390371   2.728989   4.106098   5.090295   2.158197
                   21         22         23         24         25
    21  C    0.000000
    22  C    1.356506   0.000000
    23  C    5.718833   5.398190   0.000000
    24  C    8.208618   8.049990   2.768659   0.000000
    25  C    8.033122   7.651596   2.389866   1.370317   0.000000
    26  C    6.839649   6.345259   1.355808   2.433141   1.429557
    27  C    4.254565   3.763538   2.288032   4.986179   4.524555
    28  C    5.065230   4.239401   2.943160   5.504097   4.721956
    29  C    3.719676   2.482434   4.530613   7.247285   6.488922
    30  C    4.859125   3.749362   4.004763   6.603459   5.712227
    31  H    8.612510   9.519576   7.516143   7.136816   8.304796
    32  H    7.128761   8.294044   8.073902   8.619711   9.522971
    33  H    5.271022   6.569221   7.880306   9.164108   9.773606
    34  H    2.654617   4.008101   6.931593   8.922273   9.144846
    35  H    9.153586   9.772079   6.419007   5.277470   6.583358
    36  H    8.931780   9.170484   4.607856   2.678312   4.044119
    37  H    9.230236   9.109413   3.853574   1.084939   2.129901
    38  H    8.947925   8.470521   3.367969   2.132450   1.084955
    39  H    7.001345   6.307412   2.137381   3.409327   2.184792
    40  H    6.112403   5.315175   3.122414   5.316460   4.452113
    41  H    5.814035   4.619860   4.766188   7.186735   6.156813
    42  H    4.047001   2.697559   5.543771   8.220377   7.405055
    43  H    2.121886   1.084894   6.274426   8.940894   8.444515
    44  H    1.085016   2.119628   6.770341   9.201069   9.064774
    45  H    4.824416   4.567375   2.254127   4.624906   4.380029
                   26         27         28         29         30
    26  C    0.000000
    27  C    3.227236   0.000000
    28  C    3.343117   1.406059   0.000000
    29  C    5.065582   2.810414   2.410961   0.000000
    30  C    4.294654   2.432604   1.393262   1.389109   0.000000
    31  H    8.488916   8.379114   9.726383  10.549134  10.711211
    32  H    9.285952   8.240861   9.645720   9.893355  10.383757
    33  H    9.190439   7.454968   8.797010   8.536338   9.273740
    34  H    8.218045   5.925801   7.075242   6.247337   7.217019
    35  H    7.100392   7.818688   9.010333  10.247806  10.128815
    36  H    4.872603   6.519360   7.430372   8.997749   8.594045
    37  H    3.417671   6.060960   6.552190   8.320245   7.652366
    38  H    2.175752   5.371328   5.346266   7.109245   6.234849
    39  H    1.085352   3.351548   3.018650   4.668426   3.750584
    40  H    3.207710   2.153523   1.083734   3.391311   2.152081
    41  H    4.795247   3.412968   2.150453   2.146069   1.084398
    42  H    5.990527   3.895020   3.394236   1.084763   2.149697
    43  H    7.105521   4.621115   4.849900   2.695363   4.074121
    44  H    7.892892   5.335283   6.114698   4.594476   5.816897
    45  H    3.292437   1.081847   2.145534   3.846326   3.379966
                   31         32         33         34         35
    31  H    0.000000
    32  H    2.845918   0.000000
    33  H    5.032854   2.425069   0.000000
    34  H    7.061349   4.972336   2.777758   0.000000
    35  H    2.422965   5.029742   6.830243   8.246638   0.000000
    36  H    4.965602   7.060247   8.254997   8.842233   2.765449
    37  H    7.284147   9.065800   9.841916   9.810501   5.185433
    38  H    9.239492  10.561011  10.840717  10.169796   7.392084
    39  H    9.523963  10.181621   9.905495   8.674711   8.183099
    40  H   10.093067  10.251131   9.577266   8.017065   9.170037
    41  H   11.728836  11.463055  10.351255   8.245813  11.043498
    42  H   11.463404  10.660791   9.149505   6.686303  11.237482
    43  H   10.541390   9.216906   7.371093   4.688126  10.819526
    44  H    9.027522   7.249172   5.158069   2.388182   9.798378
    45  H    7.779848   7.826244   7.270346   6.090395   7.155754
                   36         37         38         39         40
    36  H    0.000000
    37  H    2.426139   0.000000
    38  H    4.726908   2.455492   0.000000
    39  H    5.936446   4.304988   2.501558   0.000000
    40  H    7.389539   6.298255   4.951998   2.795986   0.000000
    41  H    9.353712   8.192622   6.517403   4.050543   2.478500
    42  H   10.008450   9.282768   7.957496   5.496825   4.286916
    43  H   10.173731  10.001775   9.195013   6.939840   5.907820
    44  H    9.786776  10.203513   9.981175   8.054184   7.165456
    45  H    5.923458   5.654214   5.291548   3.653736   2.472984
                   41         42         43         44         45
    41  H    0.000000
    42  H    2.474330   0.000000
    43  H    4.759354   2.455142   0.000000
    44  H    6.718007   4.737606   2.447833   0.000000
    45  H    4.274918   4.925510   5.497122   5.880345   0.000000
 Stoichiometry    C30H15(2)
 Framework group  C1[X(C30H15)]
 Deg. of freedom   129
 Full point group                 C1      NOp   1
 Largest Abelian subgroup         C1      NOp   1
 Largest concise Abelian subgroup C1      NOp   1
                         Standard orientation:                         
 ---------------------------------------------------------------------
 Center     Atomic      Atomic             Coordinates (Angstroms)
 Number     Number       Type             X           Y           Z
 ---------------------------------------------------------------------
      1          6           0       -3.521998   -1.346413   -0.246804
      2          6           0        0.998948    3.092025   -0.187345
      3          6           0        2.404935    2.929761   -0.135402
      4          6           0        2.967445    1.667001    0.096968
      5          6           0        2.047088    0.634899    0.325194
      6          6           0        0.644530    0.704903    0.285222
      7          6           0        0.083918    1.966460    0.014391
      8          6           0        0.151777   -0.702739    0.299810
      9          6           0        2.456783   -0.708175    0.345276
     10          6           0        1.310509   -1.511592    0.304457
     11          6           0        4.352804    1.239598    0.008997
     12          6           0        3.744893   -1.149863    0.153483
     13          6           0        4.724784   -0.088648    0.033626
     14          6           0        1.399492   -2.880906    0.048119
     15          6           0        3.863424   -2.581489   -0.008970
     16          6           0        2.748735   -3.397274   -0.059418
     17          6           0       -1.078423   -1.355052    0.132914
     18          6           0       -1.031295   -2.771173   -0.202589
     19          6           0        0.167723   -3.509067   -0.218396
     20          6           0       -2.359306   -0.694857    0.236350
     21          6           0       -2.258550   -3.397370   -0.621490
     22          6           0       -3.424496   -2.708679   -0.701376
     23          6           0       -1.292877    2.218100   -0.132592
     24          6           0        0.420795    4.360765   -0.503787
     25          6           0       -0.932750    4.525569   -0.639892
     26          6           0       -1.824841    3.426158   -0.442151
     27          6           0       -2.497413    0.568968    0.899178
     28          6           0       -3.773437    1.144408    1.031968
     29          6           0       -4.768346   -0.688009   -0.178460
     30          6           0       -4.886940    0.548215    0.443883
     31          1           0        5.774567   -0.339411   -0.079981
     32          1           0        4.844126   -3.028335   -0.136682
     33          1           0        2.889087   -4.460335   -0.227007
     34          1           0        0.126477   -4.556652   -0.500229
     35          1           0        5.122198    1.993694   -0.122373
     36          1           0        3.032803    3.792687   -0.336293
     37          1           0        1.085614    5.205713   -0.649287
     38          1           0       -1.340261    5.499229   -0.890986
     39          1           0       -2.896466    3.574249   -0.529776
     40          1           0       -3.883905    2.059118    1.602565
     41          1           0       -5.859402    1.021311    0.523988
     42          1           0       -5.646852   -1.184775   -0.576155
     43          1           0       -4.324888   -3.196272   -1.059905
     44          1           0       -2.223548   -4.442768   -0.909894
     45          1           0       -1.727001    0.849405    1.605021
 ---------------------------------------------------------------------
 Rotational constants (GHZ):           0.2337917           0.1741385           0.1024583
 Standard basis: 6-311+G(d,p) (5D, 7F)
 There are   780 symmetry adapted cartesian basis functions of A   symmetry.
 There are   750 symmetry adapted basis functions of A   symmetry.
   750 basis functions,  1200 primitive gaussians,   780 cartesian basis functions
    98 alpha electrons       97 beta electrons
       nuclear repulsion energy      2585.1311053446 Hartrees.
 NAtoms=   45 NActive=   45 NUniq=   45 SFac= 1.00D+00 NAtFMM=   60 NAOKFM=F Big=F
 Integral buffers will be    131072 words long.
 Raffenetti 2 integral format.
 Two-electron integral symmetry is turned on.
 One-electron integrals computed using PRISM.
 NBasis=   750 RedAO= T EigKep=  1.26D-06  NBF=   750
 NBsUse=   729 1.00D-06 EigRej=  7.48D-07 NBFU=   729
 ExpMin= 4.38D-02 ExpMax= 4.56D+03 ExpMxC= 6.82D+02 IAcc=2 IRadAn=         4 AccDes= 0.00D+00
 Harris functional with IExCor=  402 and IRadAn=       4 diagonalized for initial guess.
 HarFok:  IExCor=  402 AccDes= 0.00D+00 IRadAn=         4 IDoV= 1 UseB2=F ITyADJ=14
 ICtDFT=  3500011 ScaDFX=  1.000000  1.000000  1.000000  1.000000
 FoFCou: FMM=F IPFlag=           0 FMFlag=      100000 FMFlg1=           0
         NFxFlg=           0 DoJE=T BraDBF=F KetDBF=T FulRan=T
         wScrn=  0.000000 ICntrl=       500 IOpCl=  0 I1Cent=   200000004 NGrid=           0
         NMat0=    1 NMatS0=      1 NMatT0=    0 NMatD0=    1 NMtDS0=    0 NMtDT0=    0
 Petite list used in FoFCou.
 Initial guess <Sx>= 0.0000 <Sy>= 0.0000 <Sz>= 0.5000 <S**2>= 0.7500 S= 0.5000
 Requested convergence on RMS density matrix=1.00D-08 within 128 cycles.
 Requested convergence on MAX density matrix=1.00D-06.
 Requested convergence on             energy=1.00D-06.
 No special actions if energy rises.
 Restarting incremental Fock formation.
 SCF Done:  E(UB3LYP) =  -1152.44073675     A.U. after   26 cycles
            NFock= 26  Conv=0.49D-08     -V/T= 2.0045
 <Sx>= 0.0000 <Sy>= 0.0000 <Sz>= 0.5000 <S**2>= 0.7845 S= 0.5171
 <L.S>=  0.00000000000    
 Annihilation of the first spin contaminant:
 S**2 before annihilation     0.7845,   after     0.7509
 DoSCS=F DFT=T ScalE2(SS,OS)=  1.000000  1.000000
 Range of M.O.s used for correlation:     1   729
 NBasis=   750 NAE=    98 NBE=    97 NFC=     0 NFV=     0
 NROrb=    729 NOA=    98 NOB=    97 NVA=   631 NVB=   632

 **** Warning!!: The largest alpha MO coefficient is  0.12334822D+03


 **** Warning!!: The smallest alpha delta epsilon is  0.94159381D-01


 **** Warning!!: The largest beta MO coefficient is  0.12163364D+03


 **** Warning!!: The smallest beta delta epsilon is  0.96903865D-01

 Symmetrizing basis deriv contribution to polar:
 IMax=3 JMax=2 DiffMx= 0.00D+00
 G2DrvN: will do    46 centers at a time, making    1 passes.
 Calling FoFCou, ICntrl=  3107 FMM=F I1Cent=   0 AccDes= 0.00D+00.
 End of G2Drv F.D. properties file   721 does not exist.
 End of G2Drv F.D. properties file   722 does not exist.
 End of G2Drv F.D. properties file   788 does not exist.
          IDoAtm=111111111111111111111111111111111111111111111
          Differentiating once with respect to nuclear coordinates.
 CalDSu exits because no D1Ps are significant.
          There are   138 degrees of freedom in the 1st order CPHF.  IDoFFX=6 NUNeed=     0.
    132 vectors produced by pass  0 Test12= 1.23D-13 1.00D-09 XBig12= 5.93D-01 1.47D-01.
 AX will form   132 AO Fock derivatives at one time.
    132 vectors produced by pass  1 Test12= 1.23D-13 1.00D-09 XBig12= 1.13D-01 6.36D-02.
    132 vectors produced by pass  2 Test12= 1.23D-13 1.00D-09 XBig12= 3.90D-03 1.25D-02.
    132 vectors produced by pass  3 Test12= 1.23D-13 1.00D-09 XBig12= 9.21D-05 1.02D-03.
    132 vectors produced by pass  4 Test12= 1.23D-13 1.00D-09 XBig12= 7.83D-07 7.14D-05.
    132 vectors produced by pass  5 Test12= 1.23D-13 1.00D-09 XBig12= 5.41D-09 4.36D-06.
    127 vectors produced by pass  6 Test12= 1.23D-13 1.00D-09 XBig12= 1.17D-10 5.98D-07.
    111 vectors produced by pass  7 Test12= 1.23D-13 1.00D-09 XBig12= 2.49D-11 4.03D-07.
     86 vectors produced by pass  8 Test12= 1.23D-13 1.00D-09 XBig12= 3.91D-12 9.58D-08.
     30 vectors produced by pass  9 Test12= 1.23D-13 1.00D-09 XBig12= 9.62D-14 1.30D-08.
      3 vectors produced by pass 10 Test12= 1.23D-13 1.00D-09 XBig12= 1.17D-15 1.43D-09.
      3 vectors produced by pass 11 Test12= 1.23D-13 1.00D-09 XBig12= 7.57D-16 1.47D-09.
      3 vectors produced by pass 12 Test12= 1.23D-13 1.00D-09 XBig12= 2.27D-15 2.49D-09.
      1 vectors produced by pass 13 Test12= 1.23D-13 1.00D-09 XBig12= 9.51D-16 1.38D-09.
 InvSVY:  IOpt=1 It=  1 EMax= 1.22D-15
 Solved reduced A of dimension  1156 with   138 vectors.
 End of Minotr F.D. properties file   721 does not exist.
 End of Minotr F.D. properties file   722 does not exist.
 End of Minotr F.D. properties file   788 does not exist.

 **********************************************************************

            Population analysis using the SCF Density.

 **********************************************************************

 Orbital symmetries:
 Alpha Orbitals:
       Occupied  (A) (A) (A) (A) (A) (A) (A) (A) (A) (A) (A) (A)
                 (A) (A) (A) (A) (A) (A) (A) (A) (A) (A) (A) (A)
                 (A) (A) (A) (A) (A) (A) (A) (A) (A) (A) (A) (A)
                 (A) (A) (A) (A) (A) (A) (A) (A) (A) (A) (A) (A)
                 (A) (A) (A) (A) (A) (A) (A) (A) (A) (A) (A) (A)
                 (A) (A) (A) (A) (A) (A) (A) (A) (A) (A) (A) (A)
                 (A) (A) (A) (A) (A) (A) (A) (A) (A) (A) (A) (A)
                 (A) (A) (A) (A) (A) (A) (A) (A) (A) (A) (A) (A)
                 (A) (A)
       Virtual   (A) (A) (A) (A) (A) (A) (A) (A) (A) (A) (A) (A)
                 (A) (A) (A) (A) (A) (A) (A) (A) (A) (A) (A) (A)
                 (A) (A) (A) (A) (A) (A) (A) (A) (A) (A) (A) (A)
                 (A) (A) (A) (A) (A) (A) (A) (A) (A) (A) (A) (A)
                 (A) (A) (A) (A) (A) (A) (A) (A) (A) (A) (A) (A)
                 (A) (A) (A) (A) (A) (A) (A) (A) (A) (A) (A) (A)
                 (A) (A) (A) (A) (A) (A) (A) (A) (A) (A) (A) (A)
                 (A) (A) (A) (A) (A) (A) (A) (A) (A) (A) (A) (A)
                 (A) (A) (A) (A) (A) (A) (A) (A) (A) (A) (A) (A)
                 (A) (A) (A) (A) (A) (A) (A) (A) (A) (A) (A) (A)
                 (A) (A) (A) (A) (A) (A) (A) (A) (A) (A) (A) (A)
                 (A) (A) (A) (A) (A) (A) (A) (A) (A) (A) (A) (A)
                 (A) (A) (A) (A) (A) (A) (A) (A) (A) (A) (A) (A)
                 (A) (A) (A) (A) (A) (A) (A) (A) (A) (A) (A) (A)
                 (A) (A) (A) (A) (A) (A) (A) (A) (A) (A) (A) (A)
                 (A) (A) (A) (A) (A) (A) (A) (A) (A) (A) (A) (A)
                 (A) (A) (A) (A) (A) (A) (A) (A) (A) (A) (A) (A)
                 (A) (A) (A) (A) (A) (A) (A) (A) (A) (A) (A) (A)
                 (A) (A) (A) (A) (A) (A) (A) (A) (A) (A) (A) (A)
                 (A) (A) (A) (A) (A) (A) (A) (A) (A) (A) (A) (A)
                 (A) (A) (A) (A) (A) (A) (A) (A) (A) (A) (A) (A)
                 (A) (A) (A) (A) (A) (A) (A) (A) (A) (A) (A) (A)
                 (A) (A) (A) (A) (A) (A) (A) (A) (A) (A) (A) (A)
                 (A) (A) (A) (A) (A) (A) (A) (A) (A) (A) (A) (A)
                 (A) (A) (A) (A) (A) (A) (A) (A) (A) (A) (A) (A)
                 (A) (A) (A) (A) (A) (A) (A) (A) (A) (A) (A) (A)
                 (A) (A) (A) (A) (A) (A) (A) (A) (A) (A) (A) (A)
                 (A) (A) (A) (A) (A) (A) (A) (A) (A) (A) (A) (A)
                 (A) (A) (A) (A) (A) (A) (A) (A) (A) (A) (A) (A)
                 (A) (A) (A) (A) (A) (A) (A) (A) (A) (A) (A) (A)
                 (A) (A) (A) (A) (A) (A) (A) (A) (A) (A) (A) (A)
                 (A) (A) (A) (A) (A) (A) (A) (A) (A) (A) (A) (A)
                 (A) (A) (A) (A) (A) (A) (A) (A) (A) (A) (A) (A)
                 (A) (A) (A) (A) (A) (A) (A) (A) (A) (A) (A) (A)
                 (A) (A) (A) (A) (A) (A) (A) (A) (A) (A) (A) (A)
                 (A) (A) (A) (A) (A) (A) (A) (A) (A) (A) (A) (A)
                 (A) (A) (A) (A) (A) (A) (A) (A) (A) (A) (A) (A)
                 (A) (A) (A) (A) (A) (A) (A) (A) (A) (A) (A) (A)
                 (A) (A) (A) (A) (A) (A) (A) (A) (A) (A) (A) (A)
                 (A) (A) (A) (A) (A) (A) (A) (A) (A) (A) (A) (A)
                 (A) (A) (A) (A) (A) (A) (A) (A) (A) (A) (A) (A)
                 (A) (A) (A) (A) (A) (A) (A) (A) (A) (A) (A) (A)
                 (A) (A) (A) (A) (A) (A) (A) (A) (A) (A) (A) (A)
                 (A) (A) (A) (A) (A) (A) (A) (A) (A) (A) (A) (A)
                 (A) (A) (A) (A) (A) (A) (A) (A) (A) (A) (A) (A)
                 (A) (A) (A) (A) (A) (A) (A) (A) (A) (A) (A) (A)
                 (A) (A) (A) (A) (A) (A) (A) (A) (A) (A) (A) (A)
                 (A) (A) (A) (A) (A) (A) (A) (A) (A) (A) (A) (A)
                 (A) (A) (A) (A) (A) (A) (A) (A) (A) (A) (A) (A)
                 (A) (A) (A) (A) (A) (A) (A) (A) (A) (A) (A) (A)
                 (A) (A) (A) (A) (A) (A) (A) (A) (A) (A) (A) (A)
                 (A) (A) (A) (A) (A) (A) (A) (A) (A) (A) (A) (A)
                 (A) (A) (A) (A) (A) (A) (A)
 Beta  Orbitals:
       Occupied  (A) (A) (A) (A) (A) (A) (A) (A) (A) (A) (A) (A)
                 (A) (A) (A) (A) (A) (A) (A) (A) (A) (A) (A) (A)
                 (A) (A) (A) (A) (A) (A) (A) (A) (A) (A) (A) (A)
                 (A) (A) (A) (A) (A) (A) (A) (A) (A) (A) (A) (A)
                 (A) (A) (A) (A) (A) (A) (A) (A) (A) (A) (A) (A)
                 (A) (A) (A) (A) (A) (A) (A) (A) (A) (A) (A) (A)
                 (A) (A) (A) (A) (A) (A) (A) (A) (A) (A) (A) (A)
                 (A) (A) (A) (A) (A) (A) (A) (A) (A) (A) (A) (A)
                 (A)
       Virtual   (A) (A) (A) (A) (A) (A) (A) (A) (A) (A) (A) (A)
                 (A) (A) (A) (A) (A) (A) (A) (A) (A) (A) (A) (A)
                 (A) (A) (A) (A) (A) (A) (A) (A) (A) (A) (A) (A)
                 (A) (A) (A) (A) (A) (A) (A) (A) (A) (A) (A) (A)
                 (A) (A) (A) (A) (A) (A) (A) (A) (A) (A) (A) (A)
                 (A) (A) (A) (A) (A) (A) (A) (A) (A) (A) (A) (A)
                 (A) (A) (A) (A) (A) (A) (A) (A) (A) (A) (A) (A)
                 (A) (A) (A) (A) (A) (A) (A) (A) (A) (A) (A) (A)
                 (A) (A) (A) (A) (A) (A) (A) (A) (A) (A) (A) (A)
                 (A) (A) (A) (A) (A) (A) (A) (A) (A) (A) (A) (A)
                 (A) (A) (A) (A) (A) (A) (A) (A) (A) (A) (A) (A)
                 (A) (A) (A) (A) (A) (A) (A) (A) (A) (A) (A) (A)
                 (A) (A) (A) (A) (A) (A) (A) (A) (A) (A) (A) (A)
                 (A) (A) (A) (A) (A) (A) (A) (A) (A) (A) (A) (A)
                 (A) (A) (A) (A) (A) (A) (A) (A) (A) (A) (A) (A)
                 (A) (A) (A) (A) (A) (A) (A) (A) (A) (A) (A) (A)
                 (A) (A) (A) (A) (A) (A) (A) (A) (A) (A) (A) (A)
                 (A) (A) (A) (A) (A) (A) (A) (A) (A) (A) (A) (A)
                 (A) (A) (A) (A) (A) (A) (A) (A) (A) (A) (A) (A)
                 (A) (A) (A) (A) (A) (A) (A) (A) (A) (A) (A) (A)
                 (A) (A) (A) (A) (A) (A) (A) (A) (A) (A) (A) (A)
                 (A) (A) (A) (A) (A) (A) (A) (A) (A) (A) (A) (A)
                 (A) (A) (A) (A) (A) (A) (A) (A) (A) (A) (A) (A)
                 (A) (A) (A) (A) (A) (A) (A) (A) (A) (A) (A) (A)
                 (A) (A) (A) (A) (A) (A) (A) (A) (A) (A) (A) (A)
                 (A) (A) (A) (A) (A) (A) (A) (A) (A) (A) (A) (A)
                 (A) (A) (A) (A) (A) (A) (A) (A) (A) (A) (A) (A)
                 (A) (A) (A) (A) (A) (A) (A) (A) (A) (A) (A) (A)
                 (A) (A) (A) (A) (A) (A) (A) (A) (A) (A) (A) (A)
                 (A) (A) (A) (A) (A) (A) (A) (A) (A) (A) (A) (A)
                 (A) (A) (A) (A) (A) (A) (A) (A) (A) (A) (A) (A)
                 (A) (A) (A) (A) (A) (A) (A) (A) (A) (A) (A) (A)
                 (A) (A) (A) (A) (A) (A) (A) (A) (A) (A) (A) (A)
                 (A) (A) (A) (A) (A) (A) (A) (A) (A) (A) (A) (A)
                 (A) (A) (A) (A) (A) (A) (A) (A) (A) (A) (A) (A)
                 (A) (A) (A) (A) (A) (A) (A) (A) (A) (A) (A) (A)
                 (A) (A) (A) (A) (A) (A) (A) (A) (A) (A) (A) (A)
                 (A) (A) (A) (A) (A) (A) (A) (A) (A) (A) (A) (A)
                 (A) (A) (A) (A) (A) (A) (A) (A) (A) (A) (A) (A)
                 (A) (A) (A) (A) (A) (A) (A) (A) (A) (A) (A) (A)
                 (A) (A) (A) (A) (A) (A) (A) (A) (A) (A) (A) (A)
                 (A) (A) (A) (A) (A) (A) (A) (A) (A) (A) (A) (A)
                 (A) (A) (A) (A) (A) (A) (A) (A) (A) (A) (A) (A)
                 (A) (A) (A) (A) (A) (A) (A) (A) (A) (A) (A) (A)
                 (A) (A) (A) (A) (A) (A) (A) (A) (A) (A) (A) (A)
                 (A) (A) (A) (A) (A) (A) (A) (A) (A) (A) (A) (A)
                 (A) (A) (A) (A) (A) (A) (A) (A) (A) (A) (A) (A)
                 (A) (A) (A) (A) (A) (A) (A) (A) (A) (A) (A) (A)
                 (A) (A) (A) (A) (A) (A) (A) (A) (A) (A) (A) (A)
                 (A) (A) (A) (A) (A) (A) (A) (A) (A) (A) (A) (A)
                 (A) (A) (A) (A) (A) (A) (A) (A) (A) (A) (A) (A)
                 (A) (A) (A) (A) (A) (A) (A) (A) (A) (A) (A) (A)
                 (A) (A) (A) (A) (A) (A) (A) (A)
 The electronic state is 2-A.
 Alpha  occ. eigenvalues --  -10.20120 -10.19947 -10.19913 -10.19777 -10.19655
 Alpha  occ. eigenvalues --  -10.19623 -10.19532 -10.19522 -10.19353 -10.19278
 Alpha  occ. eigenvalues --  -10.19245 -10.19220 -10.19163 -10.19151 -10.19146
 Alpha  occ. eigenvalues --  -10.19124 -10.19090 -10.19084 -10.18961 -10.18537
 Alpha  occ. eigenvalues --  -10.18482 -10.18437 -10.18359 -10.18346 -10.18293
 Alpha  occ. eigenvalues --  -10.18228 -10.18166 -10.16977 -10.16862 -10.16777
 Alpha  occ. eigenvalues --   -0.92077  -0.88887  -0.87851  -0.85574  -0.83943
 Alpha  occ. eigenvalues --   -0.83183  -0.80515  -0.79461  -0.78108  -0.77077
 Alpha  occ. eigenvalues --   -0.75313  -0.74789  -0.72701  -0.71649  -0.71234
 Alpha  occ. eigenvalues --   -0.66816  -0.64859  -0.64007  -0.63216  -0.62377
 Alpha  occ. eigenvalues --   -0.60378  -0.59358  -0.58137  -0.56881  -0.56116
 Alpha  occ. eigenvalues --   -0.52970  -0.52138  -0.51669  -0.51367  -0.49460
 Alpha  occ. eigenvalues --   -0.48801  -0.48034  -0.47018  -0.46298  -0.45745
 Alpha  occ. eigenvalues --   -0.44565  -0.44203  -0.43863  -0.43560  -0.43226
 Alpha  occ. eigenvalues --   -0.42437  -0.41880  -0.41066  -0.40777  -0.40446
 Alpha  occ. eigenvalues --   -0.40125  -0.39671  -0.39312  -0.38755  -0.37259
 Alpha  occ. eigenvalues --   -0.36680  -0.36488  -0.35146  -0.34645  -0.34410
 Alpha  occ. eigenvalues --   -0.33822  -0.33400  -0.33252  -0.31369  -0.30539
 Alpha  occ. eigenvalues --   -0.28353  -0.27819  -0.26538  -0.25796  -0.23088
 Alpha  occ. eigenvalues --   -0.21756  -0.20597  -0.19347
 Alpha virt. eigenvalues --   -0.09931  -0.05400  -0.04980  -0.03044  -0.01485
 Alpha virt. eigenvalues --   -0.00354   0.00123   0.00500   0.00567   0.00618
 Alpha virt. eigenvalues --    0.01328   0.01562   0.01673   0.02337   0.02959
 Alpha virt. eigenvalues --    0.03037   0.03704   0.03840   0.04076   0.04578
 Alpha virt. eigenvalues --    0.04802   0.04928   0.05458   0.05672   0.06307
 Alpha virt. eigenvalues --    0.06692   0.06789   0.07029   0.07510   0.07618
 Alpha virt. eigenvalues --    0.08001   0.08572   0.08990   0.09106   0.09636
 Alpha virt. eigenvalues --    0.10052   0.10168   0.10313   0.10787   0.11308
 Alpha virt. eigenvalues --    0.11439   0.11670   0.12157   0.12516   0.12891
 Alpha virt. eigenvalues --    0.13134   0.13396   0.14050   0.14456   0.14760
 Alpha virt. eigenvalues --    0.14922   0.15022   0.15201   0.15855   0.15979
 Alpha virt. eigenvalues --    0.16067   0.16268   0.16389   0.16729   0.16973
 Alpha virt. eigenvalues --    0.17134   0.17202   0.17641   0.17680   0.18006
 Alpha virt. eigenvalues --    0.18259   0.18567   0.18909   0.19276   0.19348
 Alpha virt. eigenvalues --    0.19473   0.19713   0.19905   0.20078   0.20287
 Alpha virt. eigenvalues --    0.20565   0.20636   0.20684   0.20941   0.21080
 Alpha virt. eigenvalues --    0.21284   0.21483   0.21801   0.22177   0.22341
 Alpha virt. eigenvalues --    0.22545   0.22727   0.22916   0.23259   0.23505
 Alpha virt. eigenvalues --    0.23825   0.23954   0.24359   0.24394   0.24519
 Alpha virt. eigenvalues --    0.24866   0.25284   0.25483   0.25545   0.25772
 Alpha virt. eigenvalues --    0.26046   0.26213   0.26484   0.26781   0.26895
 Alpha virt. eigenvalues --    0.27444   0.27608   0.27733   0.27989   0.28329
 Alpha virt. eigenvalues --    0.28487   0.28931   0.29201   0.29340   0.29572
 Alpha virt. eigenvalues --    0.29768   0.29982   0.30185   0.30457   0.30731
 Alpha virt. eigenvalues --    0.31109   0.31403   0.31977   0.32323   0.32382
 Alpha virt. eigenvalues --    0.32630   0.33024   0.33068   0.33455   0.33836
 Alpha virt. eigenvalues --    0.34310   0.34479   0.35417   0.35759   0.36005
 Alpha virt. eigenvalues --    0.36463   0.36871   0.37063   0.38090   0.38491
 Alpha virt. eigenvalues --    0.38983   0.39593   0.39798   0.40440   0.40592
 Alpha virt. eigenvalues --    0.41323   0.41907   0.42491   0.42892   0.43507
 Alpha virt. eigenvalues --    0.44451   0.44747   0.45356   0.45836   0.47183
 Alpha virt. eigenvalues --    0.47482   0.47863   0.48700   0.49951   0.50718
 Alpha virt. eigenvalues --    0.51478   0.51983   0.52419   0.52779   0.53074
 Alpha virt. eigenvalues --    0.53442   0.53726   0.53966   0.54359   0.54468
 Alpha virt. eigenvalues --    0.54807   0.55185   0.55637   0.55759   0.56011
 Alpha virt. eigenvalues --    0.56923   0.57192   0.57669   0.57937   0.58518
 Alpha virt. eigenvalues --    0.58798   0.59089   0.59220   0.59519   0.60126
 Alpha virt. eigenvalues --    0.60504   0.60619   0.61176   0.61462   0.62053
 Alpha virt. eigenvalues --    0.62692   0.62983   0.63319   0.64459   0.64820
 Alpha virt. eigenvalues --    0.65253   0.65459   0.65800   0.66427   0.66816
 Alpha virt. eigenvalues --    0.67292   0.67772   0.68078   0.68153   0.68690
 Alpha virt. eigenvalues --    0.68893   0.69437   0.69936   0.70050   0.70703
 Alpha virt. eigenvalues --    0.70823   0.71242   0.71583   0.71744   0.71890
 Alpha virt. eigenvalues --    0.72422   0.72715   0.73122   0.73466   0.73575
 Alpha virt. eigenvalues --    0.74094   0.74558   0.74866   0.75343   0.75938
 Alpha virt. eigenvalues --    0.76229   0.76381   0.76766   0.77208   0.77636
 Alpha virt. eigenvalues --    0.78405   0.78754   0.79596   0.79631   0.80888
 Alpha virt. eigenvalues --    0.81599   0.82118   0.82773   0.82854   0.83627
 Alpha virt. eigenvalues --    0.84092   0.84854   0.85198   0.86438   0.86766
 Alpha virt. eigenvalues --    0.87078   0.87891   0.88078   0.88536   0.88946
 Alpha virt. eigenvalues --    0.89836   0.90183   0.90650   0.90670   0.91611
 Alpha virt. eigenvalues --    0.92030   0.92189   0.92581   0.93023   0.93543
 Alpha virt. eigenvalues --    0.94031   0.94162   0.94741   0.95146   0.95357
 Alpha virt. eigenvalues --    0.95711   0.95911   0.96278   0.96684   0.97440
 Alpha virt. eigenvalues --    0.97595   0.98390   0.98687   0.99243   0.99460
 Alpha virt. eigenvalues --    1.00215   1.00773   1.01635   1.02111   1.02648
 Alpha virt. eigenvalues --    1.03862   1.03906   1.03952   1.05125   1.05413
 Alpha virt. eigenvalues --    1.05957   1.06441   1.06959   1.07441   1.08147
 Alpha virt. eigenvalues --    1.08407   1.08980   1.10023   1.10544   1.11672
 Alpha virt. eigenvalues --    1.12010   1.12833   1.13514   1.13696   1.14980
 Alpha virt. eigenvalues --    1.15948   1.16959   1.17509   1.19077   1.20200
 Alpha virt. eigenvalues --    1.20892   1.22661   1.23874   1.24165   1.25369
 Alpha virt. eigenvalues --    1.25722   1.27148   1.28471   1.30492   1.30985
 Alpha virt. eigenvalues --    1.33015   1.33940   1.35903   1.36754   1.38182
 Alpha virt. eigenvalues --    1.38601   1.40063   1.41114   1.42761   1.43902
 Alpha virt. eigenvalues --    1.44534   1.45225   1.46015   1.47019   1.47896
 Alpha virt. eigenvalues --    1.48515   1.48859   1.49402   1.50129   1.50629
 Alpha virt. eigenvalues --    1.50860   1.51762   1.52191   1.52369   1.53240
 Alpha virt. eigenvalues --    1.53877   1.54413   1.55005   1.55298   1.55903
 Alpha virt. eigenvalues --    1.56307   1.56698   1.57638   1.58020   1.58957
 Alpha virt. eigenvalues --    1.59779   1.60468   1.60715   1.61890   1.62849
 Alpha virt. eigenvalues --    1.63401   1.64186   1.65474   1.66259   1.66777
 Alpha virt. eigenvalues --    1.67812   1.68322   1.68943   1.70078   1.71151
 Alpha virt. eigenvalues --    1.71424   1.72015   1.72435   1.73055   1.73376
 Alpha virt. eigenvalues --    1.74039   1.74476   1.75027   1.75830   1.76383
 Alpha virt. eigenvalues --    1.76754   1.77148   1.78214   1.79528   1.80417
 Alpha virt. eigenvalues --    1.81627   1.82733   1.82773   1.83508   1.84809
 Alpha virt. eigenvalues --    1.84985   1.85229   1.85770   1.86338   1.86838
 Alpha virt. eigenvalues --    1.87668   1.88168   1.88787   1.89023   1.90134
 Alpha virt. eigenvalues --    1.90789   1.91089   1.91722   1.92120   1.92367
 Alpha virt. eigenvalues --    1.92696   1.93622   1.94198   1.95131   1.95480
 Alpha virt. eigenvalues --    1.95705   1.96089   1.97617   1.98178   1.98519
 Alpha virt. eigenvalues --    1.98760   1.99540   2.00196   2.01154   2.02778
 Alpha virt. eigenvalues --    2.03117   2.04505   2.05106   2.05381   2.05743
 Alpha virt. eigenvalues --    2.06699   2.07320   2.07791   2.08431   2.09572
 Alpha virt. eigenvalues --    2.11091   2.11732   2.12213   2.13473   2.14108
 Alpha virt. eigenvalues --    2.16299   2.17156   2.18301   2.18967   2.19212
 Alpha virt. eigenvalues --    2.19771   2.21202   2.22512   2.23054   2.23626
 Alpha virt. eigenvalues --    2.23889   2.24784   2.25686   2.26674   2.28776
 Alpha virt. eigenvalues --    2.30132   2.32926   2.34077   2.34961   2.35515
 Alpha virt. eigenvalues --    2.37853   2.38208   2.39248   2.40839   2.42093
 Alpha virt. eigenvalues --    2.42513   2.43352   2.43488   2.45330   2.46634
 Alpha virt. eigenvalues --    2.47596   2.48239   2.48846   2.51377   2.53888
 Alpha virt. eigenvalues --    2.54827   2.55665   2.57256   2.58059   2.59154
 Alpha virt. eigenvalues --    2.60278   2.62028   2.62943   2.65405   2.65881
 Alpha virt. eigenvalues --    2.66701   2.66842   2.67998   2.68925   2.70190
 Alpha virt. eigenvalues --    2.70778   2.71742   2.71900   2.72160   2.72720
 Alpha virt. eigenvalues --    2.72915   2.73890   2.74253   2.74874   2.75167
 Alpha virt. eigenvalues --    2.75623   2.75823   2.76042   2.76725   2.77219
 Alpha virt. eigenvalues --    2.77445   2.77912   2.78330   2.79087   2.79088
 Alpha virt. eigenvalues --    2.79884   2.80586   2.81086   2.81611   2.82578
 Alpha virt. eigenvalues --    2.83568   2.84459   2.84929   2.85028   2.86820
 Alpha virt. eigenvalues --    2.87662   2.88447   2.89035   2.89171   2.89491
 Alpha virt. eigenvalues --    2.91264   2.91592   2.92263   2.92731   2.94805
 Alpha virt. eigenvalues --    2.94907   2.97340   2.99106   3.01189   3.02440
 Alpha virt. eigenvalues --    3.03266   3.04836   3.07021   3.07764   3.10601
 Alpha virt. eigenvalues --    3.12184   3.12808   3.13537   3.14433   3.16638
 Alpha virt. eigenvalues --    3.18539   3.19880   3.20657   3.21384   3.22484
 Alpha virt. eigenvalues --    3.23166   3.23459   3.24418   3.28007   3.30339
 Alpha virt. eigenvalues --    3.33617   3.33856   3.34637   3.35630   3.37477
 Alpha virt. eigenvalues --    3.39153   3.39893   3.41331   3.42277   3.43040
 Alpha virt. eigenvalues --    3.43742   3.46516   3.47071   3.47722   3.48554
 Alpha virt. eigenvalues --    3.49324   3.52188   3.53529   3.54910   3.55965
 Alpha virt. eigenvalues --    3.58858   3.60974   3.61737   3.62506   3.64762
 Alpha virt. eigenvalues --    3.66675   3.69981   3.73815   3.79148   3.82828
 Alpha virt. eigenvalues --    3.84775   3.89028   3.93836   4.02107   4.03352
 Alpha virt. eigenvalues --    4.05807   4.05955   4.07062   4.07983   4.08881
 Alpha virt. eigenvalues --    4.14175   4.16956   4.20626   4.24183   4.27849
 Alpha virt. eigenvalues --    4.33005   4.48602   4.61931   4.72927   4.75145
 Alpha virt. eigenvalues --    4.76780   4.78237   4.80853   4.82835   4.85103
 Alpha virt. eigenvalues --    4.88584  23.40281  23.59738  23.67359  23.76972
 Alpha virt. eigenvalues --   23.81615  23.84028  23.85182  23.87315  23.89525
 Alpha virt. eigenvalues --   23.92532  23.94454  23.95281  23.97977  23.98373
 Alpha virt. eigenvalues --   23.99433  24.02173  24.02828  24.05826  24.06258
 Alpha virt. eigenvalues --   24.06861  24.07955  24.11042  24.12241  24.13090
 Alpha virt. eigenvalues --   24.14349  24.14945  24.16326  24.19593  24.19689
 Alpha virt. eigenvalues --   24.20995
  Beta  occ. eigenvalues --  -10.20170 -10.19916 -10.19844 -10.19782 -10.19741
  Beta  occ. eigenvalues --  -10.19665 -10.19389 -10.19347 -10.19320 -10.19224
  Beta  occ. eigenvalues --  -10.19220 -10.19170 -10.19148 -10.19135 -10.19075
  Beta  occ. eigenvalues --  -10.19072 -10.19046 -10.18991 -10.18438 -10.18411
  Beta  occ. eigenvalues --  -10.18407 -10.18331 -10.18252 -10.18214 -10.18191
  Beta  occ. eigenvalues --  -10.18189 -10.18180 -10.16984 -10.16879 -10.16765
  Beta  occ. eigenvalues --   -0.92023  -0.88775  -0.87532  -0.85421  -0.83782
  Beta  occ. eigenvalues --   -0.83116  -0.80351  -0.79380  -0.77964  -0.76654
  Beta  occ. eigenvalues --   -0.75102  -0.74630  -0.72664  -0.71543  -0.70934
  Beta  occ. eigenvalues --   -0.66745  -0.64708  -0.63873  -0.63041  -0.62181
  Beta  occ. eigenvalues --   -0.60222  -0.59261  -0.57656  -0.56678  -0.55985
  Beta  occ. eigenvalues --   -0.52790  -0.52059  -0.51600  -0.51206  -0.49283
  Beta  occ. eigenvalues --   -0.48629  -0.47900  -0.46914  -0.46091  -0.45626
  Beta  occ. eigenvalues --   -0.44481  -0.44049  -0.43682  -0.43451  -0.43155
  Beta  occ. eigenvalues --   -0.42345  -0.41793  -0.40706  -0.40578  -0.40392
  Beta  occ. eigenvalues --   -0.40054  -0.39436  -0.38925  -0.38525  -0.37105
  Beta  occ. eigenvalues --   -0.36437  -0.36290  -0.35027  -0.34573  -0.34290
  Beta  occ. eigenvalues --   -0.33738  -0.33246  -0.33137  -0.31128  -0.29943
  Beta  occ. eigenvalues --   -0.28070  -0.27408  -0.25853  -0.25210  -0.22787
  Beta  occ. eigenvalues --   -0.21367  -0.20374
  Beta virt. eigenvalues --   -0.10684  -0.08931  -0.05238  -0.04178  -0.02913
  Beta virt. eigenvalues --   -0.01027  -0.00045   0.00506   0.00620   0.00625
  Beta virt. eigenvalues --    0.00845   0.01413   0.01585   0.01696   0.02461
  Beta virt. eigenvalues --    0.02982   0.03053   0.03753   0.03861   0.04184
  Beta virt. eigenvalues --    0.04575   0.04830   0.04972   0.05505   0.05772
  Beta virt. eigenvalues --    0.06352   0.06723   0.06840   0.07066   0.07523
  Beta virt. eigenvalues --    0.07626   0.08136   0.08580   0.09034   0.09109
[...]
 28,0.00002502,-0.00000485,-0.00000072,-0.00000733,0.00000175,-0.000066
 04,0.00002129,-0.00000844,-0.00003572,-0.00002752,-0.00000158,0.000059
 94,-0.00000295,0.00000426,-0.00049127,-0.00136131,-0.00056252,0.000099
 30,-0.00010280,0.00000370,0.00010051,0.00007397,0.00003174,-0.00263220
 ,0.00442257,0.00052554,0.00012212,0.00042854,0.00018835,0.00089364,-0.
 00229690,0.00004776,0.00011545,0.00012050,-0.00012357,-0.00000023,0.00
 000054,0.00000152,-0.00000498,-0.00000016,0.00000181,0.00001107,-0.000
 00264,0.00000693,-0.00002665,0.00042627,0.00048753,0.00170163,0.001268
 24,-0.00006136,-0.23849960,-0.09964644,-0.08617625,0.00571676,0.003310
 62,0.00194796,-0.00000612,-0.00000058,0.00000074,-0.00000449,0.0000009
 8,-0.00000053,-0.00000470,0.00000770,0.00000219,-0.00002101,0.00002633
 ,-0.00000067,-0.00000357,-0.00000310,-0.00000015,-0.00000205,-0.000003
 80,-0.00000299,-0.00000270,-0.00000335,0.00000036,0.00000128,-0.000006
 56,-0.00000168,-0.00000037,0.00000068,-0.00000699,0.00007645,0.0001714
 8,0.00017216,0.00065043,-0.00068323,0.00040843,0.25162697,0.01041804,0
 .00922697,0.00473482,-0.00002479,0.00002192,-0.00000332,-0.00000249,-0
 .00001041,0.00000647,-0.00000167,-0.00000292,-0.00000137,-0.00001017,0
 .00001196,-0.00000550,-0.00001408,-0.00001213,0.00000234,-0.00002628,-
 0.00009942,0.00001224,0.00007600,-0.00019353,-0.00004946,-0.00000656,-
 0.00003941,0.00002445,0.00010890,0.00000092,-0.00000108,0.00000888,-0.
 00000195,0.00000062,0.00000793,-0.00000962,0.00000027,0.00000088,0.000
 00482,-0.00000520,0.00005695,0.00006570,0.00001972,0.00000998,0.000018
 30,0.00000174,-0.00002551,-0.00000428,0.00000163,0.00065666,0.00050494
 ,0.00013169,0.00021844,0.00015632,0.00006306,-0.00014534,-0.00001355,-
 0.00002628,0.00348747,0.00034560,-0.00159342,-0.00042211,0.00009140,-0
 .00005269,0.00118058,0.00042251,0.00203304,0.00013598,0.00024605,-0.00
 007493,-0.00001248,-0.00001707,0.00000231,0.00001633,0.00002228,0.0000
 0607,-0.00005456,-0.00003253,0.00001168,0.00069224,-0.00103529,0.00030
 631,0.00223093,-0.00308822,-0.00466457,-0.09929001,-0.11205388,-0.0555
 4274,-0.02435451,-0.00750043,-0.00965651,-0.00000251,0.00000174,-0.000
 00013,-0.00000301,0.00000110,-0.00000039,0.00000087,0.00000200,0.00000
 031,0.00000927,-0.00000246,-0.00000251,-0.00000214,-0.00000214,-0.0000
 0038,-0.00000634,-0.00000231,-0.00000007,-0.00000593,-0.00000262,-0.00
 000206,-0.00000614,-0.00001493,-0.00000135,-0.00000073,0.00001989,-0.0
 0003710,-0.00120601,-0.00040550,-0.00076922,0.00000195,-0.00001146,0.0
 0201107,0.10679059,0.11347177,0.00419767,-0.00040657,0.00390368,0.0000
 1510,-0.00004186,-0.00000227,-0.00000352,0.00002099,-0.00000584,-0.000
 00041,-0.00001298,0.00000401,0.00001620,-0.00001357,0.00000032,-0.0000
 2673,0.00000081,0.00002169,0.00006351,0.00013438,-0.00003204,0.0000099
 7,0.00010545,0.00001394,0.00000129,0.00000950,-0.00003226,0.00001470,-
 0.00001342,-0.00001895,-0.00000428,-0.00000200,-0.00000289,0.00000166,
 0.00000877,0.00000318,0.00000489,-0.00000629,0.00000682,0.00001166,0.0
 0002464,-0.00000887,-0.00000512,-0.00000435,-0.00000254,0.00000633,-0.
 00000846,-0.00000586,0.00003330,-0.00004419,0.00013556,0.00001908,-0.0
 0000932,0.00006602,-0.00004008,-0.00001469,0.00001512,-0.00095072,-0.0
 0305403,0.00375514,-0.00000425,0.00015433,-0.00006078,0.00094942,0.000
 99968,-0.00261506,-0.00020942,-0.00037168,0.00020082,-0.00000449,0.000
 00666,-0.00000357,-0.00001638,0.00003374,-0.00000781,0.00007616,0.0000
 1764,0.00000382,0.00013586,0.00128840,-0.00070256,0.00022793,-0.004642
 22,0.00437905,-0.08648519,-0.05320733,-0.07526939,-0.01197074,-0.00637
 457,-0.00150629,-0.00000190,0.00000022,0.00000034,-0.00000217,-0.00000
 008,0.00000226,-0.00000136,0.00000274,0.00000051,-0.00000239,0.0000012
 3,0.00001134,-0.00000066,-0.00000127,0.00000124,0.00000452,-0.00000102
 ,0.00000069,-0.00000196,0.00000136,0.00000102,0.00000753,0.00000872,0.
 00000241,-0.00001656,0.00001381,-0.00000549,-0.00037213,-0.00017794,-0
 .00011759,0.00075334,0.00195561,-0.00289904,0.09367676,0.06322825,0.07
 074846,0.00320578,0.00232902,0.00093853,-0.00000278,0.00000005,0.00000
 302,-0.00002831,0.00000343,-0.00000348,0.00001743,-0.00003567,0.000003
 16,-0.00004497,-0.00001428,-0.00000520,0.00000582,0.00002855,0.0000137
 8,-0.00004452,-0.00002080,-0.00001098,0.00004123,-0.00005886,0.0001035
 3,-0.00000064,-0.00002690,0.00000343,0.00006513,0.00004837,-0.00001275
 ,-0.00001723,0.00000892,0.00000114,-0.00001293,0.00007226,-0.00000002,
 0.00001169,-0.00002386,0.00000009,-0.00042224,0.00026669,0.00023662,-0
 .00008639,-0.00002188,-0.00001091,0.00003347,-0.00013598,-0.00001512,0
 .00013552,0.00024907,0.00018157,-0.00148633,0.00449576,-0.00150117,-0.
 00059006,-0.00100117,-0.00040499,0.00088453,0.00112237,-0.00024749,-0.
 01892175,-0.01437489,-0.00959624,-0.24487426,-0.10115636,-0.08049760,0
 .00002493,0.00001425,0.00001396,-0.00000116,0.00000342,-0.00000273,0.0
 0000685,0.00000480,0.00000487,-0.00000161,-0.00000910,-0.00000005,-0.0
 0000026,0.00024463,0.00005590,0.00020565,0.00005333,0.00010265,0.00072
 671,0.00108959,0.00105058,0.00008290,-0.00035898,-0.00012446,-0.000008
 19,0.00000058,0.00000037,-0.00002009,-0.00000876,-0.00000042,-0.000002
 31,0.00001466,0.00000491,0.00000495,0.00007492,-0.00005989,-0.00000383
 ,-0.00000535,0.00000162,-0.00000306,-0.00000447,0.00000144,-0.00000454
 ,-0.00000401,-0.00000013,0.00000066,-0.00000947,0.00000071,0.00000515,
 0.00000284,-0.00000729,0.00001348,-0.00000479,-0.00001334,0.00001212,-
 0.00002172,-0.00004147,0.00032624,-0.00031986,-0.00018725,0.26018447,-
 0.02515702,-0.00971566,-0.00922806,-0.00000755,0.00002135,-0.00000084,
 -0.00000420,-0.00001920,0.00000458,-0.00002030,0.00000251,-0.00000632,
 -0.00000546,0.00003235,-0.00000279,0.00003432,0.00005010,0.00000248,0.
 00000400,-0.00003424,0.00002554,-0.00028236,0.00009358,0.00013612,-0.0
 0006803,-0.00005249,-0.00000066,0.00011932,-0.00016354,-0.00006000,0.0
 0003917,-0.00002020,-0.00000187,0.00001043,-0.00006795,0.00000174,-0.0
 0000272,0.00004287,0.00000181,0.00031955,-0.00006194,0.00024316,0.0000
 4206,0.00005773,-0.00001753,-0.00003365,0.00006106,0.00005138,0.000777
 62,-0.00046483,0.00011929,0.00342488,-0.00104302,-0.00220037,0.0001898
 4,0.00068390,0.00010792,0.00211342,-0.00419670,-0.00234669,0.01537932,
 0.01094941,0.00558027,-0.10203745,-0.11200950,-0.04774621,0.00009324,0
 .00008404,-0.00008590,-0.00000330,-0.00001967,0.00000429,-0.00000322,0
 .00000791,0.00000721,-0.00003454,-0.00001962,0.00001566,-0.00152414,-0
 .00004357,-0.00054794,0.00005491,0.00007257,0.00012690,-0.00207454,0.0
 0107426,0.00081861,0.00031027,-0.00004280,0.00004596,-0.00000043,0.000
 00132,-0.00000019,0.00000747,0.00000765,-0.00000663,-0.00000218,-0.000
 00191,-0.00000108,-0.00000078,-0.00001426,-0.00007347,-0.00000175,-0.0
 0000025,0.00000195,-0.00000296,-0.00000080,-0.00000133,-0.00000276,-0.
 00000157,-0.00000113,-0.00000349,-0.00000855,-0.00000077,-0.00000335,0
 .00000431,-0.00001174,0.00008274,0.00000536,0.00001935,0.00001532,-0.0
 0001943,-0.00002212,0.00118168,-0.00000276,0.00007743,0.10765505,0.114
 76280,-0.00819470,-0.00408147,-0.00066086,0.00001381,0.00001449,0.0000
 0131,-0.00000835,0.00000776,-0.00000178,0.00001918,-0.00001676,0.00002
 260,0.00001630,0.00000162,0.00000511,0.00002905,-0.00000804,-0.0000003
 6,0.00000982,-0.00001601,0.00001921,0.00022937,0.00009147,-0.00040337,
 0.00007000,0.00004562,-0.00002153,-0.00015843,0.00008045,0.00017108,-0
 .00000504,0.00002394,-0.00000390,-0.00003597,0.00009003,-0.00000045,-0
 .00000940,-0.00001682,-0.00000390,-0.00018134,0.00012821,-0.00080481,-
 0.00004539,-0.00007893,0.00005629,0.00009546,0.00002427,-0.00009755,0.
 00005602,0.00026642,-0.00048159,-0.00149458,-0.00118854,0.00870311,0.0
 0007936,-0.00027232,0.00021311,0.00111341,-0.00272045,0.00268792,-0.00
 113428,-0.00169392,0.00360100,-0.08024889,-0.04695482,-0.06886832,-0.0
 0000217,-0.00002858,-0.00005944,-0.00000197,-0.00000194,0.00000386,0.0
 0000329,0.00000178,-0.00000633,-0.00000710,-0.00001532,0.00000589,-0.0
 0052748,0.00020564,0.00015486,0.00010658,-0.00004198,0.00004055,-0.000
 15259,0.00127393,-0.00140844,0.00016895,0.00001712,-0.00014603,0.,0.00
 000098,0.00000229,-0.00000029,-0.00000549,0.00001632,-0.00000044,0.000
 00248,-0.00000151,-0.00002208,-0.00005159,0.00023960,-0.00000168,-0.00
 000076,-0.00000541,-0.00000091,-0.00000024,-0.00000009,-0.00000121,-0.
 00000052,0.00000121,-0.00000038,-0.00000134,0.00000206,-0.00000369,0.0
 0000248,0.00000403,0.00002628,-0.00001791,0.00003849,-0.00000277,-0.00
 006142,0.00004055,0.00037295,-0.00019373,0.00023019,0.08853658,0.05351
 879,0.06166552,-0.00391613,0.00212127,-0.00272262,0.00001565,-0.000016
 91,0.00001697,0.00001535,0.00000180,-0.00000150,-0.00003196,0.00004204
 ,0.00000079,-0.00000793,-0.00018131,0.00003228,-0.00028930,0.00000612,
 -0.00004095,-0.00003410,0.00006224,-0.00001090,0.00045984,-0.00126870,
 -0.00012650,-0.00000112,0.00015237,-0.00000043,0.00004040,-0.00007365,
 -0.00001119,-0.00001860,-0.00002152,0.00000351,-0.00003067,-0.00003406
 ,-0.00001178,0.00000346,0.00001021,0.00000362,0.00004784,0.00031753,0.
 00015089,0.00001653,-0.00001723,0.00000172,-0.00001671,-0.00000340,-0.
 00003721,-0.00446330,-0.00058691,-0.00179357,0.00305963,-0.02510099,-0
 .00723429,0.00107624,-0.00186525,-0.00000158,-0.00044501,0.00005658,0.
 00004419,-0.05606257,0.00825157,-0.00254631,0.00267241,0.02821940,0.00
 770609,-0.00004662,-0.00006656,0.00001083,0.00000437,0.00000208,0.0000
 0280,-0.00001503,-0.00001503,-0.00001275,0.00004019,0.00003239,-0.0000
 0931,0.00014380,-0.00011571,0.00019876,-0.00003123,-0.00002154,-0.0000
 7297,0.00055385,0.00098459,0.00052157,-0.00039390,0.00005575,0.0001817
 1,-0.00000195,-0.00000256,-0.00000019,0.00000407,0.00000558,0.00000333
 ,-0.00002221,0.00000328,-0.00000317,-0.00043362,0.00074065,0.00008822,
 -0.00000370,0.00000221,-0.00000162,0.00000221,-0.00000207,-0.00000416,
 0.00000337,-0.00000142,0.00000194,0.00000313,0.00000589,0.00000033,0.0
 0000049,-0.00000590,0.00001178,0.00001677,0.00001872,-0.00001537,-0.00
 002021,0.00011681,0.00007066,-0.00003282,-0.00000219,-0.00006736,0.000
 57996,-0.00064946,0.00130319,0.05756513,0.00338607,0.00169620,-0.00127
 988,0.00000135,0.00000646,0.00000610,-0.00000164,0.00000408,-0.0000032
 8,-0.00000580,0.00001022,0.00000861,0.00001464,-0.00011284,0.00001307,
 -0.00013362,0.00003326,-0.00004561,-0.00004036,-0.00003893,0.00000541,
 0.00060133,-0.00062510,-0.00007174,0.00000174,0.00014186,0.00001333,0.
 00001987,0.00025818,0.00002061,-0.00004138,0.00000321,0.00000529,-0.00
 005711,0.00007439,-0.00000493,0.00001066,-0.00003149,-0.00000159,-0.00
 053426,0.00013538,0.00005735,-0.00006420,-0.00011642,-0.00000364,0.000
 12952,-0.00005887,-0.00003658,-0.00253678,0.00128126,-0.00113459,0.002
 05627,-0.01095900,-0.00348276,0.00190383,0.00047658,0.00093573,0.00006
 158,0.00030245,0.00034817,0.00906261,-0.31076093,-0.07580740,-0.001791
 13,-0.01186727,-0.00528506,0.00001863,0.00002169,-0.00000234,-0.000002
 91,-0.00000595,0.00000111,0.00000762,-0.00000412,-0.00000386,-0.000019
 15,-0.00001094,0.00000521,-0.00004220,-0.00002185,0.00015768,0.0000925
 6,0.00006913,0.00000625,-0.00045995,-0.00057359,-0.00039706,0.00028925
 ,-0.00023195,0.00012020,-0.00000999,-0.00000130,-0.00000050,-0.0000121
 3,0.00000010,0.00000358,-0.00001305,0.00002002,-0.00000096,-0.00057981
 ,0.00066593,0.00003129,-0.00000535,-0.00000360,-0.00000032,-0.00000481
 ,-0.00000501,-0.00000163,-0.00000381,-0.00000487,0.00000174,-0.0000010
 1,-0.00001051,0.00000117,0.00000813,0.00000270,0.00000076,0.00000882,-
 0.00000791,-0.00002202,0.00000329,-0.00008227,-0.00003526,0.00004090,0
 .00003058,-0.00001972,-0.00014622,0.00042014,0.00174061,-0.01119963,0.
 32988147,-0.00278376,-0.00201950,0.00829459,0.00000889,-0.00000962,0.0
 0000041,-0.00000736,0.00000269,-0.00000361,0.00000037,0.00000146,-0.00
 001421,-0.00002282,-0.00007422,-0.00000790,-0.00011348,0.00009985,0.00
 008073,-0.00003902,-0.00000572,-0.00001022,0.00005215,-0.00059931,0.00
 005671,-0.00002359,0.00003571,0.00004476,0.00009892,0.00000781,-0.0000
 3371,-0.00001569,0.00000504,-0.00000405,-0.00000391,0.00003286,-0.0000
 1358,-0.00000065,-0.00001966,0.00000982,-0.00011591,0.00015706,-0.0000
 9501,-0.00002462,-0.00003087,-0.00000318,0.00004028,-0.00003071,0.0000
 4811,-0.00138139,-0.00182741,0.00292661,0.00180867,-0.00837520,0.00053
 864,0.00102418,0.00033045,-0.00170114,-0.00076883,0.00044538,-0.000580
 99,-0.00336441,-0.07643009,-0.05894034,-0.00021166,0.00171648,0.005106
 90,0.00001702,0.00004095,0.00000498,-0.00000508,0.00000262,-0.00000193
 ,-0.00000156,0.00000997,0.00000265,0.00002192,0.00000582,-0.00001350,0
 .00024991,0.00008075,-0.00066420,-0.00028653,-0.00007639,0.00002311,0.
 00031513,-0.00003402,0.00021855,0.00012394,0.00057763,-0.00042223,-0.0
 0000409,-0.00000044,0.00000371,-0.00000341,0.00000253,-0.00000652,-0.0
 0001399,0.00000582,0.00001692,-0.00031106,0.00025729,0.00035580,-0.000
 00400,-0.00000165,-0.00000237,-0.00000111,-0.00000127,0.00000719,-0.00
 000161,-0.00000396,-0.00000146,0.00000187,-0.00000116,0.00000206,0.000
 00014,-0.00000122,0.00000043,-0.00000659,-0.00004390,0.00006124,0.0000
 0361,0.00002987,0.00000486,-0.00003235,-0.00008524,0.00014845,0.001444
 18,0.00168856,-0.00491930,0.00433002,0.08415498,0.04949280,0.00237097,
 0.00128111,-0.00068906,0.00025934,0.00025583,-0.00000404,0.00009019,0.
 00000457,0.00006392,-0.00000233,0.00014255,-0.00003310,-0.00055579,0.0
 0011830,-0.00009485,-0.00055351,0.00018769,0.00010023,-0.00101014,-0.0
 0128304,0.00144819,0.00039019,0.00078478,0.00062063,0.00041539,-0.0002
 0187,0.00004568,-0.00021791,0.00008575,-0.00005915,-0.00000713,-0.0000
 3059,-0.00000359,-0.00022459,0.00017549,0.00007872,0.00003056,0.000044
 62,-0.00001653,-0.00004826,-0.00004686,-0.00005228,-0.00010526,-0.0001
 5218,-0.00001903,0.00011519,-0.00005536,-0.00001841,-0.00162804,0.0007
 5711,0.00151166,-0.00008826,-0.00076360,-0.00031819,-0.00003090,-0.000
 05877,-0.00000893,0.00526483,-0.00369183,0.00102731,0.00050454,0.00003
 157,0.00014735,-0.00001070,0.00050136,-0.00007401,-0.00198254,-0.00565
 361,0.00631690,0.00002426,-0.00024082,0.00004377,-0.00018630,-0.000101
 49,-0.00030937,0.00002183,0.00010242,-0.00021071,-0.18538888,-0.039050
 57,-0.13863059,-0.02145335,-0.00886355,-0.01779911,-0.00035976,-0.0000
 5625,0.00011772,-0.00225602,0.00622561,0.00056193,0.00000770,-0.000002
 75,-0.00000205,0.00000519,-0.00001192,0.00000122,0.00000123,-0.0000053
 4,0.00000805,0.00000979,-0.00000922,-0.00000898,0.00001011,0.00000207,
 0.00000520,0.00001601,0.00001111,0.00001194,0.00000702,0.00001580,-0.0
 0001878,0.00000046,-0.00000134,-0.00000367,-0.00005214,0.00005666,0.00
 018501,0.00060383,-0.00088579,0.00156495,-0.00097468,-0.00074327,-0.00
 030487,-0.00003973,-0.00016348,0.00014820,0.00000284,0.00007102,-0.000
 00849,-0.00000603,-0.00001238,0.00000728,0.20703080,0.00404566,-0.0034
 6277,-0.00341841,-0.00001883,-0.00012049,-0.00019891,0.00004419,0.0000
 4815,0.00003761,0.00007370,0.00001229,0.00002309,-0.00008471,-0.000070
 40,0.00000728,0.00031029,0.00046793,-0.00021362,-0.00080374,0.00002368
 ,0.00022817,0.00064943,0.00095663,0.00022197,-0.00008514,0.00000195,-0
 .00002829,0.00035812,-0.00013304,0.00022299,-0.00011927,0.00002677,-0.
 00000887,0.00009867,0.00005952,-0.00002179,0.00003187,-0.00011212,0.00
 002060,0.00008472,0.00011181,0.00001252,-0.00003043,0.00000376,-0.0000
 0168,0.00000387,-0.00004130,-0.00000872,-0.00348946,0.00079723,0.00133
 957,-0.00024701,-0.00068057,-0.00009569,-0.00024201,0.00000316,-0.0000
 6733,-0.01906525,-0.01132461,-0.01993339,0.00030804,-0.00003555,0.0000
 3544,-0.00141439,-0.00006943,-0.00003701,-0.00540016,-0.01033255,0.012
 56364,0.00001303,-0.00009104,0.00009022,-0.00008134,-0.00033823,-0.000
 58108,-0.00000530,-0.00044048,-0.00045104,-0.03118292,-0.05245442,-0.0
 6108938,0.00123390,0.00735728,0.00895186,-0.00012432,-0.00156496,-0.00
 055242,0.00419137,0.00352249,-0.00090225,-0.00000217,-0.00000681,-0.00
 000009,-0.00000015,-0.00000402,-0.00000056,-0.00000733,0.00000182,-0.0
 0000011,-0.00000349,0.00000767,-0.00001857,0.00000330,-0.00000060,-0.0
 0000435,0.00001727,0.00000467,0.00002080,0.00000224,0.00001752,0.00001
 800,-0.00001015,-0.00002520,0.00005521,-0.00002738,0.00005422,0.000459
 91,-0.00074142,-0.00065646,0.00168191,0.00059538,0.00050231,-0.0000739
 6,-0.00013286,-0.00010798,0.00033324,-0.00001919,-0.00041076,-0.000069
 20,0.00004289,-0.00000057,-0.00002005,0.05123048,0.06850348,-0.0007969
 2,-0.00235229,0.00092246,0.00011373,0.00076374,0.00043631,-0.00012574,
 -0.00019356,0.00000684,-0.00010567,-0.00002820,-0.00001722,0.00019762,
 -0.00005725,0.00016891,0.00054570,-0.00048051,-0.00019349,-0.00057983,
 -0.00052386,0.00023546,0.00005816,-0.00111284,-0.00073141,-0.00021695,
 -0.00000115,-0.00002092,0.00021040,0.00010481,0.00011259,0.00010583,-0
 .00003496,-0.00001229,0.00002511,-0.00013368,-0.00003952,-0.00003046,0
 .00009410,0.00000375,-0.00000661,0.00004108,0.00004668,0.00008013,0.00
 008800,0.00001178,-0.00007881,0.00008936,0.00001318,0.00192230,0.00012
 225,-0.00056508,0.00019324,0.00043305,0.00040329,0.00004760,0.00015893
 ,0.00003975,-0.01179869,0.00383690,-0.00268578,-0.00053193,-0.00002445
 ,-0.00016154,-0.00056219,-0.00033347,0.00002237,0.00630304,0.01409526,
 -0.01313080,0.00004029,-0.00023310,-0.00009827,-0.00010528,0.00031566,
 0.00073159,0.00032006,0.00042757,0.00006409,-0.15342947,-0.07459882,-0
 .16155129,0.01243019,0.00008453,0.00610478,0.00120748,0.00111595,0.000
 45833,-0.00063805,-0.00431663,0.00100181,-0.00000894,0.00000873,0.0000
 0220,-0.00000689,0.00001300,0.00000378,-0.00000499,0.00000945,-0.00000
 899,0.00000011,0.00001169,-0.00000732,-0.00001886,-0.00000313,0.,-0.00
 004938,0.00000135,0.00002021,0.00000892,-0.00006246,-0.00008816,0.0000
 0560,0.00002369,0.00002714,0.00008417,-0.00008282,-0.00052206,0.000154
 73,0.00129414,-0.00110447,0.00030191,0.00002895,-0.00003651,-0.0000134
 8,0.00017115,-0.00035697,0.00004035,-0.00023536,-0.00003119,0.00004055
 ,0.00000247,-0.00001058,0.14467193,0.06147273,0.17053655\\-0.00001457,
 0.00000551,-0.00000598,0.00000353,-0.00000124,0.00000187,-0.00000347,0
 .00000131,0.00000021,0.00000350,-0.00000184,-0.00000042,0.00000323,-0.
 00000118,-0.00000362,-0.00000466,-0.00000030,-0.00000480,-0.00000420,-
 0.00000037,-0.00000243,-0.00000381,-0.00000156,-0.00000723,-0.00000127
 ,-0.00000526,-0.00000150,-0.00000034,0.00000473,-0.00000447,-0.0000015
 3,0.00000057,-0.00000104,0.00000082,0.00000312,-0.00000141,-0.00000149
 ,0.00000052,-0.00000051,-0.00000049,-0.00000781,-0.00000191,-0.0000019
 0,-0.00000131,-0.00000203,0.00000024,0.00000224,-0.00000016,0.00000757
 ,-0.00000080,0.00000183,0.00000313,0.00000018,0.00000412,-0.00000337,0
 .00000014,0.00000143,-0.00000605,0.00002628,0.00001314,-0.00000417,0.0
 0000118,-0.00000132,0.00000535,0.00000056,0.,0.00003238,0.00003831,-0.
 00001771,-0.00000004,0.00000201,0.00000241,0.00000066,-0.00000069,0.00
 000218,0.00000157,-0.00000269,0.00000253,-0.00005104,-0.00005880,0.000
 03605,0.00004126,-0.00000723,0.00000042,0.00000285,0.00001063,0.000010
 03,-0.00000463,-0.00001175,-0.00000987,0.00000024,-0.00000199,-0.00000
 298,-0.00000098,-0.00000146,-0.00000381,-0.00000081,-0.00000086,-0.000
 00358,-0.00000041,0.00000025,-0.00000137,0.00000120,-0.00000204,-0.000
 00239,0.00000052,-0.00000032,0.00000024,0.00000135,0.00000083,0.000000
 57,0.00000077,0.00000095,0.00000211,-0.00000073,0.00000128,0.00000341,
 0.00000043,-0.00000089,0.00000494,0.00000094,0.00000144,0.00000244,-0.
 00000095,0.00000151,0.00000300,-0.00000160,0.00000134,-0.00000011,-0.0
 0000160,-0.00000014,-0.00000083,0.00000260,0.00000562,-0.00001144\\\@


 A BIRD IN THE HAND IS SAFER THAN ONE OVERHEAD.

                       -- NEWTON'S SEVENTH LAW
 Job cpu time:       3 days  6 hours 49 minutes 41.8 seconds.
 Elapsed time:       0 days  3 hours 57 minutes  6.5 seconds.
 File lengths (MBytes):  RWF=   4303 Int=      0 D2E=      0 Chk=     63 Scr=      1
 Normal termination of Gaussian 16 at Wed Jun 12 22:34:08 2019.
