 Entering Gaussian System, Link 0=/share/apps/gaussian16/g16/g16
 Initial command:
 /share/apps/gaussian16/g16/l1.exe "/home/amen01//scratch/504/Gau-21870.inp" -scrdir="/home/amen01//scratch/504/"
 Entering Link 1 = /share/apps/gaussian16/g16/l1.exe PID=     21871.
  
 Copyright (c) 1988-2017, Gaussian, Inc.  All Rights Reserved.
  
 This is part of the Gaussian(R) 16 program.  It is based on
 the Gaussian(R) 09 system (copyright 2009, Gaussian, Inc.),
 the Gaussian(R) 03 system (copyright 2003, Gaussian, Inc.),
 the Gaussian(R) 98 system (copyright 1998, Gaussian, Inc.),
 the Gaussian(R) 94 system (copyright 1995, Gaussian, Inc.),
 the Gaussian 92(TM) system (copyright 1992, Gaussian, Inc.),
 the Gaussian 90(TM) system (copyright 1990, Gaussian, Inc.),
 the Gaussian 88(TM) system (copyright 1988, Gaussian, Inc.),
 the Gaussian 86(TM) system (copyright 1986, Carnegie Mellon
 University), and the Gaussian 82(TM) system (copyright 1983,
 Carnegie Mellon University). Gaussian is a federally registered
 trademark of Gaussian, Inc.
  
 This software contains proprietary and confidential information,
 including trade secrets, belonging to Gaussian, Inc.
  
 This software is provided under written license and may be
 used, copied, transmitted, or stored only in accord with that
 written license.
  
 The following legend is applicable only to US Government
 contracts under FAR:
  
                    RESTRICTED RIGHTS LEGEND
  
 Use, reproduction and disclosure by the US Government is
 subject to restrictions as set forth in subparagraphs (a)
 and (c) of the Commercial Computer Software - Restricted
 Rights clause in FAR 52.227-19.
  
 Gaussian, Inc.
 340 Quinnipiac St., Bldg. 40, Wallingford CT 06492
  
  
 ---------------------------------------------------------------
 Warning -- This program may not be used in any manner that
 competes with the business of Gaussian, Inc. or will provide
 assistance to any competitor of Gaussian, Inc.  The licensee
 of this program is prohibited from giving any competitor of
 Gaussian, Inc. access to this program.  By using this program,
 the user acknowledges that Gaussian, Inc. is engaged in the
 business of creating and licensing software in the field of
 computational chemistry and represents and warrants to the
 licensee that it is not a competitor of Gaussian, Inc. and that
 it will not use this program in any manner prohibited above.
 ---------------------------------------------------------------
  

 Cite this work as:
 Gaussian 16, Revision B.01,
 M. J. Frisch, G. W. Trucks, H. B. Schlegel, G. E. Scuseria, 
 M. A. Robb, J. R. Cheeseman, G. Scalmani, V. Barone, 
 G. A. Petersson, H. Nakatsuji, X. Li, M. Caricato, A. V. Marenich, 
 J. Bloino, B. G. Janesko, R. Gomperts, B. Mennucci, H. P. Hratchian, 
 J. V. Ortiz, A. F. Izmaylov, J. L. Sonnenberg, D. Williams-Young, 
 F. Ding, F. Lipparini, F. Egidi, J. Goings, B. Peng, A. Petrone, 
 T. Henderson, D. Ranasinghe, V. G. Zakrzewski, J. Gao, N. Rega, 
 G. Zheng, W. Liang, M. Hada, M. Ehara, K. Toyota, R. Fukuda, 
 J. Hasegawa, M. Ishida, T. Nakajima, Y. Honda, O. Kitao, H. Nakai, 
 T. Vreven, K. Throssell, J. A. Montgomery, Jr., J. E. Peralta, 
 F. Ogliaro, M. J. Bearpark, J. J. Heyd, E. N. Brothers, K. N. Kudin, 
 V. N. Staroverov, T. A. Keith, R. Kobayashi, J. Normand, 
 K. Raghavachari, A. P. Rendell, J. C. Burant, S. S. Iyengar, 
 J. Tomasi, M. Cossi, J. M. Millam, M. Klene, C. Adamo, R. Cammi, 
 J. W. Ochterski, R. L. Martin, K. Morokuma, O. Farkas, 
 J. B. Foresman, and D. J. Fox, Gaussian, Inc., Wallingford CT, 2016.
 
 ******************************************
 Gaussian 16:  ES64L-G16RevB.01 20-Dec-2017
                14-Jun-2019 
 ******************************************
 %nprocshared=20
 Will use up to   20 processors via shared memory.
 %mem=100GB
 %chk=7-memb-haddTSguess-2a.chk
 ---------------------------------------------------------------
 # opt=(ts,calcfc,noeigen) freq b3lyp/6-311+g(d,p) int=grid=fine
 ---------------------------------------------------------------
 1/5=1,10=4,11=1,18=20,26=3,38=1/1,3;
 2/9=110,12=2,17=6,18=5,40=1/2;
 3/5=4,6=6,7=111,11=2,25=1,30=1,71=2,74=-5,75=-4,140=1/1,2,3;
 4//1;
 5/5=2,38=5/2;
 8/6=4,10=90,11=11/1;
 11/6=1,8=1,9=11,15=111,16=1/1,2,10;
 10/6=1,13=1/2;
 6/7=2,8=2,9=2,10=2,28=1/1;
 7/10=1,18=20,25=1/1,2,3,16;
 1/5=1,10=4,11=1,18=20,26=3/3(2);
 2/9=110/2;
 99//99;
 2/9=110/2;
 3/5=4,6=6,7=111,11=2,25=1,30=1,71=1,74=-5,75=-4/1,2,3;
 4/5=5,16=3,69=1/1;
 5/5=2,38=5/2;
 7//1,2,3,16;
 1/5=1,11=1,18=20,26=3/3(-5);
 2/9=110/2;
 6/7=2,8=2,9=2,10=2,19=2,28=1/1;
 99/9=1/99;
 ---------------------
 7-memb-haddTSguess-2a
 ---------------------
 Symbolic Z-matrix:
 Charge =  0 Multiplicity = 2
 C                     1.60389  -2.82473   0.01857 
 C                     1.43305  -1.45916   0.25101 
 C                     2.5278   -0.58288   0.32046 
 C                     3.84918  -0.94102   0.16397 
 C                     2.98945  -3.25178  -0.06122 
 C                     4.05082  -2.36797   0.00681 
 C                     2.03955   0.72404   0.30607 
 C                     2.87645   1.81584   0.12984 
 C                     4.28294   1.49007   0.06638 
 C                     4.74951   0.18229   0.07999 
 C                     0.62096   0.70072   0.21384 
 C                    -0.02427   1.88705  -0.07842 
 C                     0.79707   3.08116  -0.17861 
 C                     2.19044   3.04591  -0.07939 
 C                     0.40661  -3.52762  -0.22422 
 C                    -0.83859  -2.86276  -0.20386 
 C                    -0.96328  -1.44287   0.08752 
 C                     0.23168  -0.72776   0.23057 
 C                     0.12036   4.33868  -0.5 
 C                    -1.46152   1.93881  -0.41847 
 C                    -2.13493   3.28802  -0.25635 
 C                    -1.2126    4.44459  -0.56414 
 C                    -2.04352  -3.56796  -0.54552 
 C                    -3.24937  -2.94325  -0.5797 
 C                    -3.40003  -1.56856  -0.1787 
 C                    -2.25659  -0.83087   0.20405 
 C                    -2.4108    0.50677   0.77873 
 C                    -3.74837   0.97264   0.98259 
 C                    -4.68252  -0.98078  -0.07963 
 C                    -4.84423   0.27889   0.49731 
 H                    -5.84049   0.68948   0.6205 
 H                    -3.90371   1.89819   1.52401 
 H                    -1.69118   0.7613    1.55178 
 H                    -5.54825  -1.54744  -0.40482 
 H                    -4.1398   -3.49192  -0.86833 
 H                    -1.96885  -4.62019  -0.79986 
 H                     0.42147  -4.58418  -0.47389 
 H                     3.2026   -4.30479  -0.21538 
 H                     5.05819  -2.75864  -0.09636 
 H                     5.81739   0.01189  -0.01209 
 H                     5.00491   2.2942   -0.0355 
 H                     2.74298   3.96949  -0.22393 
 H                     0.74382   5.20804  -0.68508 
 H                    -1.67456   5.4017   -0.78614 
 H                    -1.70436   1.41831  -1.34139 
 H                    -3.03702   3.33917  -0.87119 
 H                    -2.47786   3.42235   0.78087 
 

 GradGradGradGradGradGradGradGradGradGradGradGradGradGradGradGradGradGrad
 Berny optimization.
 Initialization pass.
                           ----------------------------
                           !    Initial Parameters    !
                           ! (Angstroms and Degrees)  !
 --------------------------                            --------------------------
 ! Name  Definition              Value          Derivative Info.                !
 --------------------------------------------------------------------------------
 ! R1    R(1,2)                  1.3957         calculate D2E/DX2 analytically  !
 ! R2    R(1,5)                  1.4521         calculate D2E/DX2 analytically  !
 ! R3    R(1,15)                 1.4094         calculate D2E/DX2 analytically  !
 ! R4    R(2,3)                  1.404          calculate D2E/DX2 analytically  !
 ! R5    R(2,18)                 1.4067         calculate D2E/DX2 analytically  !
 ! R6    R(3,4)                  1.378          calculate D2E/DX2 analytically  !
 ! R7    R(3,7)                  1.3952         calculate D2E/DX2 analytically  !
 ! R8    R(4,6)                  1.4497         calculate D2E/DX2 analytically  !
 ! R9    R(4,10)                 1.442          calculate D2E/DX2 analytically  !
 ! R10   R(5,6)                  1.3828         calculate D2E/DX2 analytically  !
 ! R11   R(5,38)                 1.0854         calculate D2E/DX2 analytically  !
 ! R12   R(6,39)                 1.0854         calculate D2E/DX2 analytically  !
 ! R13   R(7,8)                  1.3869         calculate D2E/DX2 analytically  !
 ! R14   R(7,11)                 1.4218         calculate D2E/DX2 analytically  !
 ! R15   R(8,9)                  1.4451         calculate D2E/DX2 analytically  !
 ! R16   R(8,14)                 1.4239         calculate D2E/DX2 analytically  !
 ! R17   R(9,10)                 1.3886         calculate D2E/DX2 analytically  !
 ! R18   R(9,41)                 1.0855         calculate D2E/DX2 analytically  !
 ! R19   R(10,40)                1.0853         calculate D2E/DX2 analytically  !
 ! R20   R(11,12)                1.3817         calculate D2E/DX2 analytically  !
 ! R21   R(11,18)                1.4807         calculate D2E/DX2 analytically  !
 ! R22   R(12,13)                1.4528         calculate D2E/DX2 analytically  !
 ! R23   R(12,20)                1.4778         calculate D2E/DX2 analytically  !
 ! R24   R(13,14)                1.3973         calculate D2E/DX2 analytically  !
 ! R25   R(13,19)                1.4638         calculate D2E/DX2 analytically  !
 ! R26   R(14,42)                1.0859         calculate D2E/DX2 analytically  !
 ! R27   R(15,16)                1.4117         calculate D2E/DX2 analytically  !
 ! R28   R(15,37)                1.0858         calculate D2E/DX2 analytically  !
 ! R29   R(16,17)                1.4548         calculate D2E/DX2 analytically  !
 ! R30   R(16,23)                1.4373         calculate D2E/DX2 analytically  !
 ! R31   R(17,18)                1.3999         calculate D2E/DX2 analytically  !
 ! R32   R(17,26)                1.4355         calculate D2E/DX2 analytically  !
 ! R33   R(19,22)                1.3387         calculate D2E/DX2 analytically  !
 ! R34   R(19,43)                1.0857         calculate D2E/DX2 analytically  !
 ! R35   R(20,21)                1.5166         calculate D2E/DX2 analytically  !
 ! R36   R(20,45)                1.087          calculate D2E/DX2 analytically  !
 ! R37   R(21,22)                1.511          calculate D2E/DX2 analytically  !
 ! R38   R(21,46)                1.0929         calculate D2E/DX2 analytically  !
 ! R39   R(21,47)                1.1007         calculate D2E/DX2 analytically  !
 ! R40   R(22,44)                1.0857         calculate D2E/DX2 analytically  !
 ! R41   R(23,24)                1.3585         calculate D2E/DX2 analytically  !
 ! R42   R(23,36)                1.0851         calculate D2E/DX2 analytically  !
 ! R43   R(24,25)                1.4399         calculate D2E/DX2 analytically  !
 ! R44   R(24,35)                1.085          calculate D2E/DX2 analytically  !
 ! R45   R(25,26)                1.4136         calculate D2E/DX2 analytically  !
 ! R46   R(25,29)                1.4142         calculate D2E/DX2 analytically  !
 ! R47   R(26,27)                1.464          calculate D2E/DX2 analytically  !
 ! R48   R(27,28)                1.431          calculate D2E/DX2 analytically  !
 ! R49   R(27,33)                1.0864         calculate D2E/DX2 analytically  !
 ! R50   R(28,30)                1.3848         calculate D2E/DX2 analytically  !
 ! R51   R(28,32)                1.0835         calculate D2E/DX2 analytically  !
 ! R52   R(29,30)                1.3949         calculate D2E/DX2 analytically  !
 ! R53   R(29,34)                1.0846         calculate D2E/DX2 analytically  !
 ! R54   R(30,31)                1.0846         calculate D2E/DX2 analytically  !
 ! A1    A(2,1,5)              114.4373         calculate D2E/DX2 analytically  !
 ! A2    A(2,1,15)             114.3712         calculate D2E/DX2 analytically  !
 ! A3    A(5,1,15)             130.8768         calculate D2E/DX2 analytically  !
 ! A4    A(1,2,3)              121.5643         calculate D2E/DX2 analytically  !
 ! A5    A(1,2,18)             127.6514         calculate D2E/DX2 analytically  !
 ! A6    A(3,2,18)             110.0078         calculate D2E/DX2 analytically  !
 ! A7    A(2,3,4)              125.4429         calculate D2E/DX2 analytically  !
 ! A8    A(2,3,7)              108.1352         calculate D2E/DX2 analytically  !
 ! A9    A(4,3,7)              125.3            calculate D2E/DX2 analytically  !
 ! A10   A(3,4,6)              113.6735         calculate D2E/DX2 analytically  !
 ! A11   A(3,4,10)             113.7569         calculate D2E/DX2 analytically  !
 ! A12   A(6,4,10)             132.3465         calculate D2E/DX2 analytically  !
 ! A13   A(1,5,6)              122.7996         calculate D2E/DX2 analytically  !
 ! A14   A(1,5,38)             118.7197         calculate D2E/DX2 analytically  !
 ! A15   A(6,5,38)             118.4456         calculate D2E/DX2 analytically  !
 ! A16   A(4,6,5)              121.8489         calculate D2E/DX2 analytically  !
 ! A17   A(4,6,39)             119.5836         calculate D2E/DX2 analytically  !
 ! A18   A(5,6,39)             118.5316         calculate D2E/DX2 analytically  !
 ! A19   A(3,7,8)              121.8401         calculate D2E/DX2 analytically  !
 ! A20   A(3,7,11)             109.5402         calculate D2E/DX2 analytically  !
 ! A21   A(8,7,11)             127.3545         calculate D2E/DX2 analytically  !
 ! A22   A(7,8,9)              114.5458         calculate D2E/DX2 analytically  !
 ! A23   A(7,8,14)             114.0804         calculate D2E/DX2 analytically  !
 ! A24   A(9,8,14)             131.0862         calculate D2E/DX2 analytically  !
 ! A25   A(8,9,10)             122.6087         calculate D2E/DX2 analytically  !
 ! A26   A(8,9,41)             118.978          calculate D2E/DX2 analytically  !
 ! A27   A(10,9,41)            118.3682         calculate D2E/DX2 analytically  !
 ! A28   A(4,10,9)             121.6303         calculate D2E/DX2 analytically  !
 ! A29   A(4,10,40)            119.7988         calculate D2E/DX2 analytically  !
 ! A30   A(9,10,40)            118.532          calculate D2E/DX2 analytically  !
 ! A31   A(7,11,12)            117.7477         calculate D2E/DX2 analytically  !
 ! A32   A(7,11,18)            106.1059         calculate D2E/DX2 analytically  !
 ! A33   A(12,11,18)           135.068          calculate D2E/DX2 analytically  !
 ! A34   A(11,12,13)           117.1484         calculate D2E/DX2 analytically  !
 ! A35   A(11,12,20)           122.2016         calculate D2E/DX2 analytically  !
 ! A36   A(13,12,20)           120.3434         calculate D2E/DX2 analytically  !
 ! A37   A(12,13,14)           122.5561         calculate D2E/DX2 analytically  !
 ! A38   A(12,13,19)           117.3817         calculate D2E/DX2 analytically  !
 ! A39   A(14,13,19)           119.8846         calculate D2E/DX2 analytically  !
 ! A40   A(8,14,13)            120.84           calculate D2E/DX2 analytically  !
 ! A41   A(8,14,42)            120.6074         calculate D2E/DX2 analytically  !
 ! A42   A(13,14,42)           118.4557         calculate D2E/DX2 analytically  !
 ! A43   A(1,15,16)            120.7919         calculate D2E/DX2 analytically  !
 ! A44   A(1,15,37)            120.8825         calculate D2E/DX2 analytically  !
 ! A45   A(16,15,37)           118.2734         calculate D2E/DX2 analytically  !
 ! A46   A(15,16,17)           122.5565         calculate D2E/DX2 analytically  !
 ! A47   A(15,16,23)           120.3266         calculate D2E/DX2 analytically  !
 ! A48   A(17,16,23)           117.0399         calculate D2E/DX2 analytically  !
 ! A49   A(16,17,18)           116.4785         calculate D2E/DX2 analytically  !
 ! A50   A(16,17,26)           120.6341         calculate D2E/DX2 analytically  !
 ! A51   A(18,17,26)           122.8847         calculate D2E/DX2 analytically  !
 ! A52   A(2,18,11)            106.0963         calculate D2E/DX2 analytically  !
 ! A53   A(2,18,17)            117.7037         calculate D2E/DX2 analytically  !
 ! A54   A(11,18,17)           135.7323         calculate D2E/DX2 analytically  !
 ! A55   A(13,19,22)           122.6028         calculate D2E/DX2 analytically  !
 ! A56   A(13,19,43)           117.3788         calculate D2E/DX2 analytically  !
 ! A57   A(22,19,43)           120.0176         calculate D2E/DX2 analytically  !
 ! A58   A(12,20,21)           116.0007         calculate D2E/DX2 analytically  !
 ! A59   A(12,20,45)           113.3185         calculate D2E/DX2 analytically  !
 ! A60   A(21,20,45)           114.6786         calculate D2E/DX2 analytically  !
 ! A61   A(20,21,22)           112.8391         calculate D2E/DX2 analytically  !
 ! A62   A(20,21,46)           110.3648         calculate D2E/DX2 analytically  !
 ! A63   A(20,21,47)           110.3428         calculate D2E/DX2 analytically  !
 ! A64   A(22,21,46)           110.6971         calculate D2E/DX2 analytically  !
 ! A65   A(22,21,47)           106.7821         calculate D2E/DX2 analytically  !
 ! A66   A(46,21,47)           105.5017         calculate D2E/DX2 analytically  !
 ! A67   A(19,22,21)           122.5123         calculate D2E/DX2 analytically  !
 ! A68   A(19,22,44)           120.2124         calculate D2E/DX2 analytically  !
 ! A69   A(21,22,44)           117.175          calculate D2E/DX2 analytically  !
 ! A70   A(16,23,24)           121.6333         calculate D2E/DX2 analytically  !
 ! A71   A(16,23,36)           118.2811         calculate D2E/DX2 analytically  !
 ! A72   A(24,23,36)           120.0734         calculate D2E/DX2 analytically  !
 ! A73   A(23,24,25)           121.6613         calculate D2E/DX2 analytically  !
 ! A74   A(23,24,35)           120.1734         calculate D2E/DX2 analytically  !
 ! A75   A(25,24,35)           118.0998         calculate D2E/DX2 analytically  !
 ! A76   A(24,25,26)           119.2756         calculate D2E/DX2 analytically  !
 ! A77   A(24,25,29)           120.743          calculate D2E/DX2 analytically  !
 ! A78   A(26,25,29)           119.8472         calculate D2E/DX2 analytically  !
 ! A79   A(17,26,25)           118.967          calculate D2E/DX2 analytically  !
 ! A80   A(17,26,27)           121.0833         calculate D2E/DX2 analytically  !
 ! A81   A(25,26,27)           119.8614         calculate D2E/DX2 analytically  !
 ! A82   A(26,27,28)           116.8619         calculate D2E/DX2 analytically  !
 ! A83   A(26,27,33)           115.0627         calculate D2E/DX2 analytically  !
 ! A84   A(28,27,33)           116.2003         calculate D2E/DX2 analytically  !
 ! A85   A(27,28,30)           121.7807         calculate D2E/DX2 analytically  !
 ! A86   A(27,28,32)           118.9018         calculate D2E/DX2 analytically  !
 ! A87   A(30,28,32)           119.3152         calculate D2E/DX2 analytically  !
 ! A88   A(25,29,30)           120.6252         calculate D2E/DX2 analytically  !
 ! A89   A(25,29,34)           119.058          calculate D2E/DX2 analytically  !
 ! A90   A(30,29,34)           120.2178         calculate D2E/DX2 analytically  !
 ! A91   A(28,30,29)           120.3713         calculate D2E/DX2 analytically  !
 ! A92   A(28,30,31)           119.8311         calculate D2E/DX2 analytically  !
 ! A93   A(29,30,31)           119.6923         calculate D2E/DX2 analytically  !
 ! D1    D(5,1,2,3)              3.4623         calculate D2E/DX2 analytically  !
 ! D2    D(5,1,2,18)           172.3254         calculate D2E/DX2 analytically  !
 ! D3    D(15,1,2,3)          -170.808          calculate D2E/DX2 analytically  !
 ! D4    D(15,1,2,18)           -1.9449         calculate D2E/DX2 analytically  !
 ! D5    D(2,1,5,6)             -3.7033         calculate D2E/DX2 analytically  !
 ! D6    D(2,1,5,38)           178.4857         calculate D2E/DX2 analytically  !
 ! D7    D(15,1,5,6)           169.389          calculate D2E/DX2 analytically  !
 ! D8    D(15,1,5,38)           -8.4221         calculate D2E/DX2 analytically  !
 ! D9    D(2,1,15,16)           -0.8576         calculate D2E/DX2 analytically  !
 ! D10   D(2,1,15,37)          176.4693         calculate D2E/DX2 analytically  !
 ! D11   D(5,1,15,16)         -173.9535         calculate D2E/DX2 analytically  !
 ! D12   D(5,1,15,37)            3.3734         calculate D2E/DX2 analytically  !
 ! D13   D(1,2,3,4)              0.556          calculate D2E/DX2 analytically  !
 ! D14   D(1,2,3,7)            168.9349         calculate D2E/DX2 analytically  !
 ! D15   D(18,2,3,4)          -170.0775         calculate D2E/DX2 analytically  !
 ! D16   D(18,2,3,7)            -1.6985         calculate D2E/DX2 analytically  !
 ! D17   D(1,2,18,11)         -166.7648         calculate D2E/DX2 analytically  !
 ! D18   D(1,2,18,17)            6.6136         calculate D2E/DX2 analytically  !
 ! D19   D(3,2,18,11)            3.148          calculate D2E/DX2 analytically  !
 ! D20   D(3,2,18,17)          176.5264         calculate D2E/DX2 analytically  !
 ! D21   D(2,3,4,6)             -4.2335         calculate D2E/DX2 analytically  !
 ! D22   D(2,3,4,10)           171.0221         calculate D2E/DX2 analytically  !
 ! D23   D(7,3,4,6)           -170.668          calculate D2E/DX2 analytically  !
 ! D24   D(7,3,4,10)             4.5876         calculate D2E/DX2 analytically  !
 ! D25   D(2,3,7,8)           -168.5906         calculate D2E/DX2 analytically  !
 ! D26   D(2,3,7,11)            -0.559          calculate D2E/DX2 analytically  !
 ! D27   D(4,3,7,8)             -0.1908         calculate D2E/DX2 analytically  !
 ! D28   D(4,3,7,11)           167.8408         calculate D2E/DX2 analytically  !
 ! D29   D(3,4,6,5)              3.869          calculate D2E/DX2 analytically  !
 ! D30   D(3,4,6,39)          -178.3415         calculate D2E/DX2 analytically  !
 ! D31   D(10,4,6,5)          -170.2521         calculate D2E/DX2 analytically  !
 ! D32   D(10,4,6,39)            7.5374         calculate D2E/DX2 analytically  !
 ! D33   D(3,4,10,9)            -4.2618         calculate D2E/DX2 analytically  !
 ! D34   D(3,4,10,40)          178.0398         calculate D2E/DX2 analytically  !
 ! D35   D(6,4,10,9)           169.8555         calculate D2E/DX2 analytically  !
 ! D36   D(6,4,10,40)           -7.8429         calculate D2E/DX2 analytically  !
 ! D37   D(1,5,6,4)             -0.0013         calculate D2E/DX2 analytically  !
 ! D38   D(1,5,6,39)          -177.8132         calculate D2E/DX2 analytically  !
 ! D39   D(38,5,6,4)           177.8154         calculate D2E/DX2 analytically  !
 ! D40   D(38,5,6,39)            0.0035         calculate D2E/DX2 analytically  !
 ! D41   D(3,7,8,9)             -4.4225         calculate D2E/DX2 analytically  !
 ! D42   D(3,7,8,14)           170.1124         calculate D2E/DX2 analytically  !
 ! D43   D(11,7,8,9)          -170.1902         calculate D2E/DX2 analytically  !
 ! D44   D(11,7,8,14)            4.3448         calculate D2E/DX2 analytically  !
 ! D45   D(3,7,11,12)         -167.459          calculate D2E/DX2 analytically  !
 ! D46   D(3,7,11,18)            2.4442         calculate D2E/DX2 analytically  !
 ! D47   D(8,7,11,12)           -0.2634         calculate D2E/DX2 analytically  !
 ! D48   D(8,7,11,18)          169.6398         calculate D2E/DX2 analytically  !
 ! D49   D(7,8,9,10)             4.5981         calculate D2E/DX2 analytically  !
 ! D50   D(7,8,9,41)          -177.8861         calculate D2E/DX2 analytically  !
 ! D51   D(14,8,9,10)         -168.7775         calculate D2E/DX2 analytically  !
 ! D52   D(14,8,9,41)            8.7384         calculate D2E/DX2 analytically  !
 ! D53   D(7,8,14,13)           -3.9699         calculate D2E/DX2 analytically  !
 ! D54   D(7,8,14,42)          179.6642         calculate D2E/DX2 analytically  !
 ! D55   D(9,8,14,13)          169.4301         calculate D2E/DX2 analytically  !
 ! D56   D(9,8,14,42)           -6.9358         calculate D2E/DX2 analytically  !
 ! D57   D(8,9,10,4)            -0.2266         calculate D2E/DX2 analytically  !
 ! D58   D(8,9,10,40)          177.5            calculate D2E/DX2 analytically  !
 ! D59   D(41,9,10,4)         -177.7569         calculate D2E/DX2 analytically  !
 ! D60   D(41,9,10,40)          -0.0303         calculate D2E/DX2 analytically  !
 ! D61   D(7,11,12,13)          -4.0423         calculate D2E/DX2 analytically  !
 ! D62   D(7,11,12,20)         169.6137         calculate D2E/DX2 analytically  !
 ! D63   D(18,11,12,13)       -170.2454         calculate D2E/DX2 analytically  !
 ! D64   D(18,11,12,20)          3.4105         calculate D2E/DX2 analytically  !
 ! D65   D(7,11,18,2)           -3.3792         calculate D2E/DX2 analytically  !
 ! D66   D(7,11,18,17)        -174.9689         calculate D2E/DX2 analytically  !
 ! D67   D(12,11,18,2)         163.9306         calculate D2E/DX2 analytically  !
 ! D68   D(12,11,18,17)         -7.659          calculate D2E/DX2 analytically  !
 ! D69   D(11,12,13,14)          4.3149         calculate D2E/DX2 analytically  !
 ! D70   D(11,12,13,19)        179.4597         calculate D2E/DX2 analytically  !
 ! D71   D(20,12,13,14)       -169.4654         calculate D2E/DX2 analytically  !
 ! D72   D(20,12,13,19)          5.6795         calculate D2E/DX2 analytically  !
 ! D73   D(11,12,20,21)        160.0615         calculate D2E/DX2 analytically  !
 ! D74   D(11,12,20,45)        -64.2044         calculate D2E/DX2 analytically  !
 ! D75   D(13,12,20,21)        -26.4805         calculate D2E/DX2 analytically  !
 ! D76   D(13,12,20,45)        109.2536         calculate D2E/DX2 analytically  !
 ! D77   D(12,13,14,8)          -0.0924         calculate D2E/DX2 analytically  !
 ! D78   D(12,13,14,42)        176.3501         calculate D2E/DX2 analytically  !
 ! D79   D(19,13,14,8)        -175.1198         calculate D2E/DX2 analytically  !
 ! D80   D(19,13,14,42)          1.3227         calculate D2E/DX2 analytically  !
 ! D81   D(12,13,19,22)          7.031          calculate D2E/DX2 analytically  !
 ! D82   D(12,13,19,43)       -173.2806         calculate D2E/DX2 analytically  !
 ! D83   D(14,13,19,22)       -177.6885         calculate D2E/DX2 analytically  !
 ! D84   D(14,13,19,43)          1.9999         calculate D2E/DX2 analytically  !
 ! D85   D(1,15,16,17)          -1.1333         calculate D2E/DX2 analytically  !
 ! D86   D(1,15,16,23)         175.5816         calculate D2E/DX2 analytically  !
 ! D87   D(37,15,16,17)       -178.5285         calculate D2E/DX2 analytically  !
 ! D88   D(37,15,16,23)         -1.8136         calculate D2E/DX2 analytically  !
 ! D89   D(15,16,17,18)          5.6499         calculate D2E/DX2 analytically  !
 ! D90   D(15,16,17,26)       -174.9281         calculate D2E/DX2 analytically  !
 ! D91   D(23,16,17,18)       -171.1666         calculate D2E/DX2 analytically  !
 ! D92   D(23,16,17,26)          8.2554         calculate D2E/DX2 analytically  !
 ! D93   D(15,16,23,24)       -177.6835         calculate D2E/DX2 analytically  !
 ! D94   D(15,16,23,36)          1.044          calculate D2E/DX2 analytically  !
 ! D95   D(17,16,23,24)         -0.7921         calculate D2E/DX2 analytically  !
 ! D96   D(17,16,23,36)        177.9355         calculate D2E/DX2 analytically  !
 ! D97   D(16,17,18,2)          -7.8615         calculate D2E/DX2 analytically  !
 ! D98   D(16,17,18,11)        163.0057         calculate D2E/DX2 analytically  !
 ! D99   D(26,17,18,2)         172.7307         calculate D2E/DX2 analytically  !
 ! D100  D(26,17,18,11)        -16.4021         calculate D2E/DX2 analytically  !
 ! D101  D(16,17,26,25)        -10.15           calculate D2E/DX2 analytically  !
 ! D102  D(16,17,26,27)        166.426          calculate D2E/DX2 analytically  !
 ! D103  D(18,17,26,25)        169.2339         calculate D2E/DX2 analytically  !
 ! D104  D(18,17,26,27)        -14.1901         calculate D2E/DX2 analytically  !
 ! D105  D(13,19,22,21)          2.4962         calculate D2E/DX2 analytically  !
 ! D106  D(13,19,22,44)        178.7494         calculate D2E/DX2 analytically  !
 ! D107  D(43,19,22,21)       -177.1843         calculate D2E/DX2 analytically  !
 ! D108  D(43,19,22,44)         -0.931          calculate D2E/DX2 analytically  !
 ! D109  D(12,20,21,22)         33.575          calculate D2E/DX2 analytically  !
 ! D110  D(12,20,21,46)        158.0048         calculate D2E/DX2 analytically  !
 ! D111  D(12,20,21,47)        -85.7844         calculate D2E/DX2 analytically  !
 ! D112  D(45,20,21,22)       -101.5627         calculate D2E/DX2 analytically  !
 ! D113  D(45,20,21,46)         22.8671         calculate D2E/DX2 analytically  !
 ! D114  D(45,20,21,47)        139.0779         calculate D2E/DX2 analytically  !
 ! D115  D(20,21,22,19)        -22.8847         calculate D2E/DX2 analytically  !
 ! D116  D(20,21,22,44)        160.7547         calculate D2E/DX2 analytically  !
 ! D117  D(46,21,22,19)       -147.1324         calculate D2E/DX2 analytically  !
 ! D118  D(46,21,22,44)         36.507          calculate D2E/DX2 analytically  !
 ! D119  D(47,21,22,19)         98.5148         calculate D2E/DX2 analytically  !
 ! D120  D(47,21,22,44)        -77.8457         calculate D2E/DX2 analytically  !
 ! D121  D(16,23,24,25)         -4.7548         calculate D2E/DX2 analytically  !
 ! D122  D(16,23,24,35)        178.2459         calculate D2E/DX2 analytically  !
 ! D123  D(36,23,24,25)        176.5401         calculate D2E/DX2 analytically  !
 ! D124  D(36,23,24,35)         -0.4593         calculate D2E/DX2 analytically  !
 ! D125  D(23,24,25,26)          2.8549         calculate D2E/DX2 analytically  !
 ! D126  D(23,24,25,29)       -172.9273         calculate D2E/DX2 analytically  !
 ! D127  D(35,24,25,26)        179.9143         calculate D2E/DX2 analytically  !
 ! D128  D(35,24,25,29)          4.1321         calculate D2E/DX2 analytically  !
 ! D129  D(24,25,26,17)          4.581          calculate D2E/DX2 analytically  !
 ! D130  D(24,25,26,27)       -172.0378         calculate D2E/DX2 analytically  !
 ! D131  D(29,25,26,17)       -179.5984         calculate D2E/DX2 analytically  !
 ! D132  D(29,25,26,27)          3.7829         calculate D2E/DX2 analytically  !
 ! D133  D(24,25,29,30)        170.3232         calculate D2E/DX2 analytically  !
 ! D134  D(24,25,29,34)         -6.0677         calculate D2E/DX2 analytically  !
 ! D135  D(26,25,29,30)         -5.435          calculate D2E/DX2 analytically  !
 ! D136  D(26,25,29,34)        178.174          calculate D2E/DX2 analytically  !
 ! D137  D(17,26,27,28)       -173.565          calculate D2E/DX2 analytically  !
 ! D138  D(17,26,27,33)        -32.0094         calculate D2E/DX2 analytically  !
 ! D139  D(25,26,27,28)          2.9807         calculate D2E/DX2 analytically  !
 ! D140  D(25,26,27,33)        144.5363         calculate D2E/DX2 analytically  !
 ! D141  D(26,27,28,30)         -8.5584         calculate D2E/DX2 analytically  !
 ! D142  D(26,27,28,32)        172.0011         calculate D2E/DX2 analytically  !
 ! D143  D(33,27,28,30)       -149.6773         calculate D2E/DX2 analytically  !
 ! D144  D(33,27,28,32)         30.8823         calculate D2E/DX2 analytically  !
 ! D145  D(27,28,30,29)          7.2401         calculate D2E/DX2 analytically  !
 ! D146  D(27,28,30,31)       -176.5018         calculate D2E/DX2 analytically  !
 ! D147  D(32,28,30,29)       -173.3217         calculate D2E/DX2 analytically  !
 ! D148  D(32,28,30,31)          2.9364         calculate D2E/DX2 analytically  !
 ! D149  D(25,29,30,28)         -0.0224         calculate D2E/DX2 analytically  !
 ! D150  D(25,29,30,31)       -176.2856         calculate D2E/DX2 analytically  !
 ! D151  D(34,29,30,28)        176.3267         calculate D2E/DX2 analytically  !
 ! D152  D(34,29,30,31)          0.0635         calculate D2E/DX2 analytically  !
 --------------------------------------------------------------------------------
 Trust Radius=3.00D-01 FncErr=1.00D-07 GrdErr=1.00D-06 EigMax=2.50D+02 EigMin=1.00D-04
 Number of steps in this run=    282 maximum allowed number of steps=    282.
 Search for a saddle point of order  1.
 GradGradGradGradGradGradGradGradGradGradGradGradGradGradGradGradGradGrad

                          Input orientation:                          
 ---------------------------------------------------------------------
 Center     Atomic      Atomic             Coordinates (Angstroms)
 Number     Number       Type             X           Y           Z
 ---------------------------------------------------------------------
      1          6           0        1.603889   -2.824727    0.018573
      2          6           0        1.433050   -1.459161    0.251009
      3          6           0        2.527802   -0.582883    0.320462
      4          6           0        3.849182   -0.941023    0.163966
      5          6           0        2.989446   -3.251780   -0.061222
      6          6           0        4.050821   -2.367972    0.006812
      7          6           0        2.039554    0.724036    0.306068
      8          6           0        2.876448    1.815838    0.129842
      9          6           0        4.282940    1.490074    0.066375
     10          6           0        4.749510    0.182292    0.079989
     11          6           0        0.620963    0.700720    0.213839
     12          6           0       -0.024274    1.887048   -0.078420
     13          6           0        0.797068    3.081156   -0.178610
     14          6           0        2.190439    3.045907   -0.079392
     15          6           0        0.406605   -3.527618   -0.224216
     16          6           0       -0.838590   -2.862755   -0.203860
     17          6           0       -0.963280   -1.442868    0.087521
     18          6           0        0.231676   -0.727756    0.230567
     19          6           0        0.120362    4.338681   -0.499998
     20          6           0       -1.461522    1.938805   -0.418466
     21          6           0       -2.134926    3.288024   -0.256352
     22          6           0       -1.212603    4.444590   -0.564143
     23          6           0       -2.043520   -3.567959   -0.545524
     24          6           0       -3.249373   -2.943253   -0.579704
     25          6           0       -3.400029   -1.568560   -0.178695
     26          6           0       -2.256591   -0.830869    0.204045
     27          6           0       -2.410803    0.506770    0.778726
     28          6           0       -3.748372    0.972636    0.982594
     29          6           0       -4.682524   -0.980776   -0.079630
     30          6           0       -4.844231    0.278890    0.497306
     31          1           0       -5.840486    0.689483    0.620504
     32          1           0       -3.903707    1.898190    1.524014
     33          1           0       -1.691176    0.761296    1.551779
     34          1           0       -5.548248   -1.547438   -0.404821
     35          1           0       -4.139801   -3.491919   -0.868333
     36          1           0       -1.968846   -4.620191   -0.799856
     37          1           0        0.421465   -4.584179   -0.473885
     38          1           0        3.202595   -4.304786   -0.215377
     39          1           0        5.058188   -2.758638   -0.096357
     40          1           0        5.817387    0.011892   -0.012085
     41          1           0        5.004911    2.294195   -0.035501
     42          1           0        2.742984    3.969486   -0.223933
     43          1           0        0.743817    5.208040   -0.685077
     44          1           0       -1.674558    5.401700   -0.786144
     45          1           0       -1.704356    1.418312   -1.341392
     46          1           0       -3.037019    3.339169   -0.871189
     47          1           0       -2.477855    3.422346    0.780869
 ---------------------------------------------------------------------
                    Distance matrix (angstroms):
                    1          2          3          4          5
     1  C    0.000000
     2  C    1.395702   0.000000
     3  C    2.443485   1.403983   0.000000
     4  C    2.934420   2.472597   1.377970   0.000000
     5  C    1.452071   2.394439   2.735290   2.475773   0.000000
     6  C    2.489225   2.781779   2.367384   1.449669   1.382846
     7  C    3.586945   2.266545   1.395217   2.463203   4.104182
     8  C    4.813173   3.581019   2.431410   2.923638   5.072477
     9  C    5.079085   4.105356   2.728043   2.471417   4.916766
    10  C    4.352111   3.704392   2.362056   1.442040   3.861427
    11  C    3.665112   2.307803   2.301095   3.622044   4.616018
    12  C    4.986095   3.664619   3.573900   4.802124   5.957378
    13  C    5.964000   4.604728   4.082854   5.060700   6.702714
    14  C    5.900676   4.580223   3.666308   4.325074   6.348197
    15  C    1.409429   2.357529   3.669825   4.323482   2.602637
    16  C    2.452881   2.708751   4.099430   5.079720   3.850396
    17  C    2.916272   2.401956   3.602983   4.839161   4.349521
    18  C    2.514995   1.406652   2.302447   3.624399   3.749818
    19  C    7.333770   5.991839   5.539920   6.497709   8.126455
    20  C    5.681460   4.513637   4.776990   6.069284   6.846964
    21  C    7.170777   5.960171   6.087501   7.339690   8.310614
    22  C    7.817618   6.520600   6.328400   7.426751   8.783180
    23  C    3.764863   4.143432   5.527892   6.490617   5.066090
    24  C    4.891435   4.981736   6.305347   7.412925   6.267924
    25  C    5.162951   4.853377   6.029917   7.284386   6.608511
    26  C    4.348928   3.743048   4.792230   6.106898   5.783777
    27  C    5.272045   4.349549   5.078107   6.454568   6.632865
    28  C    6.632948   5.770268   6.499878   7.877504   8.020813
    29  C    6.552006   6.143160   7.232371   8.535275   8.001058
    30  C    7.172160   6.518109   7.424338   8.784915   8.610696
    31  H    8.254133   7.593255   8.469781   9.836495   9.693606
    32  H    7.409852   6.432210   6.997755   8.367685   8.749327
    33  H    5.105657   4.047619   4.595948   5.959822   6.372972
    34  H    7.277623   7.012591   8.165720   9.434137   8.712925
    35  H    5.849934   6.036696   7.371069   8.449649   7.178806
    36  H    4.081415   4.761231   6.146122   6.950876   5.196421
    37  H    2.176307   3.363705   4.591080   5.042686   2.922346
    38  H    2.191157   3.383251   3.820344   3.446285   1.085365
    39  H    3.456842   3.866643   3.363109   2.198451   2.126997
    40  H    5.079460   4.632022   3.359422   2.193826   4.318706
    41  H    6.145994   5.189216   3.813182   3.441240   5.900898
    42  H    6.893307   5.604615   4.589851   5.048489   7.227302
    43  H    8.109266   6.767782   6.142353   6.940831   8.774999
    44  H    8.892125   7.602916   7.395921   8.464310   9.857036
    45  H    5.549538   4.545207   4.967666   6.218870   6.743914
    46  H    7.766809   6.653181   6.911567   8.173821   8.967438
    47  H    7.501177   6.277343   6.427319   7.710445   8.668590
                    6          7          8          9         10
     6  C    0.000000
     7  C    3.700711   0.000000
     8  C    4.347247   1.386895   0.000000
     9  C    3.865481   2.382656   1.445119   0.000000
    10  C    2.645254   2.772807   2.485824   1.388584   0.000000
    11  C    4.606914   1.421777   2.517490   3.748987   4.163122
    12  C    5.892271   2.399961   2.909060   4.327892   5.071519
    13  C    6.349353   2.708265   2.453567   3.839644   4.908369
    14  C    5.725254   2.358481   1.423888   2.611594   3.843766
    15  C    3.831248   4.585225   5.897288   6.347255   5.719860
    16  C    4.918895   4.626965   5.983485   6.726828   6.370223
    17  C    5.099367   3.709481   5.036315   6.010443   5.939459
    18  C    4.162480   2.319876   3.670808   4.621522   4.611039
    19  C    7.790029   4.171175   3.789122   5.075667   6.248277
    20  C    7.008218   3.775996   4.374214   5.782324   6.473848
    21  C    8.385882   4.931190   5.237399   6.672764   7.560037
    22  C    8.627898   5.017600   4.910427   6.271181   7.357233
    23  C    6.235867   5.984808   7.324444   8.122944   7.784658
    24  C    7.346277   6.496641   7.789614   8.763991   8.613150
    25  C    7.495908   5.922842   7.137472   8.273047   8.339508
    26  C    6.495001   4.570011   5.775695   6.940547   7.080066
    27  C    7.114252   4.480657   5.485411   6.802979   7.201639
    28  C    8.540446   5.832630   6.732490   8.099949   8.582152
    29  C    8.843252   6.945609   8.062443   9.300858   9.504813
    30  C    9.293461   6.900813   7.880744   9.217262   9.603299
    31  H   10.371239   7.886387   8.803088  10.170141  10.615904
    32  H    9.152953   6.179351   6.922499   8.325410   8.939109
    33  H    6.719358   3.933387   4.898689   6.199000   6.632032
    34  H    9.642865   7.952339   9.086968  10.300522  10.453269
    35  H    8.313569   7.572181   8.854173   9.830387   9.665350
    36  H    6.477623   6.771344   8.109481   8.784675   8.305075
    37  H    4.279587   5.603899   6.881253   7.217993   6.462043
    38  H    2.126054   5.187834   6.139022   5.901435   4.755424
    39  H    1.085381   4.626350   5.073163   4.321926   2.962338
    40  H    2.963927   3.857511   3.453040   2.132066   1.085300
    41  H    4.758979   3.372745   2.187811   1.085464   2.130423
    42  H    6.475110   3.362835   2.186588   2.933126   4.296668
    43  H    8.295236   4.771540   4.088917   5.187807   6.472175
    44  H    9.683829   6.071910   5.865926   7.177701   8.322323
    45  H    7.019663   4.148856   4.827662   6.150989   6.723128
    46  H    9.142200   5.830647   6.188028   7.607889   8.455805
    47  H    8.760740   5.283304   5.627901   7.067710   7.951351
                   11         12         13         14         15
    11  C    0.000000
    12  C    1.381709   0.000000
    13  C    2.418988   1.452768   0.000000
    14  C    2.837101   2.499582   1.397344   0.000000
    15  C    4.256370   5.433739   6.620456   6.812802   0.000000
    16  C    3.873386   4.820734   6.164908   6.640994   1.411725
    17  C    2.668474   3.463757   4.861733   5.488434   2.513951
    18  C    1.480665   2.645408   3.872325   4.263022   2.841946
    19  C    3.740979   2.491817   1.463759   2.476569   7.876335
    20  C    2.503879   1.477834   2.542386   3.831118   5.780088
    21  C    3.809219   2.539536   2.940311   4.335749   7.274159
    22  C    4.240729   2.861656   2.458936   3.711064   8.142081
    23  C    5.088980   5.835464   7.239772   7.866823   2.471433
    24  C    5.374733   5.829610   7.268292   8.106288   3.719412
    25  C    4.633799   4.831874   6.263823   7.249586   4.281407
    26  C    3.259782   3.528470   4.977469   5.906421   3.814246
    27  C    3.090035   2.887107   4.223078   5.324942   5.021949
    28  C    4.444773   3.978795   5.143469   6.379322   6.242797
    29  C    5.571403   5.470257   6.821658   7.965664   5.692675
    30  C    5.488774   5.113670   6.335125   7.581263   6.525441
    31  H    6.474243   5.979212   7.100409   8.398711   7.584434
    32  H    4.860363   4.197371   5.137667   6.405215   7.146642
    33  H    2.672029   2.589098   3.816720   4.790313   5.094078
    34  H    6.595159   6.512797   7.857359   9.005110   6.278057
    35  H    6.435386   6.818710   8.249467   9.134415   4.591946
    36  H    6.003897   6.829787   8.206520   8.751444   2.677283
    37  H    5.333191   6.498604   7.680210   7.842392   1.085761
    38  H    5.648375   6.983570   7.767886   7.421296   2.902004
    39  H    5.634922   6.885793   7.229599   6.474335   4.716450
    40  H    5.246746   6.135602   5.886571   4.729115   6.469134
    41  H    4.671224   5.045821   4.283192   2.913460   7.421155
    42  H    3.921664   3.466329   2.139573   1.085908   7.852722
    43  H    4.597725   3.462222   2.187003   2.671028   8.754303
    44  H    5.326218   3.946782   3.444264   4.581207   9.185844
    45  H    2.888043   2.153483   3.220906   4.405807   5.492400
    46  H    4.638915   3.437117   3.904671   5.295211   7.709078
    47  H    4.163105   3.019201   3.429596   4.761798   7.591594
                   16         17         18         19         20
    16  C    0.000000
    17  C    1.454830   0.000000
    18  C    2.427430   1.399917   0.000000
    19  C    7.271036   5.911495   5.120049   0.000000
    20  C    4.846553   3.455428   3.224703   2.875484   0.000000
    21  C    6.286122   4.885933   4.686618   2.499913   1.516623
    22  C    7.325775   5.928658   5.428689   1.338703   2.522328
    23  C    1.437325   2.466511   3.720966   8.197525   5.538891
    24  C    2.441232   2.814705   4.205076   8.024215   5.201625
    25  C    2.869938   2.454468   3.750164   6.884176   4.014587
    26  C    2.511110   1.435540   2.490544   5.733222   2.948008
    27  C    3.845911   2.524713   2.967697   4.767124   2.094070
    28  C    4.958299   3.793752   4.392910   5.338112   2.850638
    29  C    4.281718   3.751566   4.930477   7.179209   4.360461
    30  C    5.138748   4.265461   5.181633   6.490277   3.877715
    31  H    6.190067   5.349592   6.247541   7.078409   4.670716
    32  H    5.920058   4.676782   5.066556   5.123061   3.120760
    33  H    4.116177   2.744490   2.767713   4.504347   2.306758
    34  H    4.894009   4.612512   5.872233   8.172429   5.371723
    35  H    3.425692   3.899045   5.287532   8.922049   6.071929
    36  H    2.172849   3.448765   4.588586   9.204135   6.589633
    37  H    2.150338   3.478582   3.924827   8.927977   6.789553
    38  H    4.290776   5.063283   4.671228   9.180996   7.796003
    39  H    5.898677   6.166291   5.246578   8.655460   8.042160
    40  H    7.252751   6.935683   5.639692   7.170443   7.540600
    41  H    7.795446   7.042732   5.655683   5.315496   6.487505
    42  H    7.714116   6.567113   5.345776   2.662830   4.673262
    43  H    8.238526   6.909824   6.027799   1.085696   3.952531
    44  H    8.327011   6.936665   6.499051   2.105618   3.488870
    45  H    4.513432   3.282885   3.290119   3.544869   1.087048
    46  H    6.613795   5.299754   5.332740   3.332546   2.155961
    47  H    6.569580   5.142468   4.986756   3.038260   2.161534
                   21         22         23         24         25
    21  C    0.000000
    22  C    1.510980   0.000000
    23  C    6.862687   8.055539   0.000000
    24  C    6.338404   7.663478   1.358495   0.000000
    25  C    5.019255   6.410256   2.443824   1.439891   0.000000
    26  C    4.146329   5.432356   2.845859   2.462122   1.413552
    27  C    2.980414   4.329597   4.300227   3.801472   2.490425
    28  C    3.082080   4.569134   5.085142   4.245464   2.815602
    29  C    4.974348   6.458305   3.724905   2.480990   1.414248
    30  C    4.118643   5.627473   4.871316   3.753096   2.440444
    31  H    4.610040   6.076308   5.822575   4.620729   3.419548
    32  H    2.868785   4.252834   6.133683   5.319150   3.895031
    33  H    3.138568   4.274671   4.823409   4.549163   3.367929
    34  H    5.920684   7.397811   4.047891   2.695127   2.160191
    35  H    7.096596   8.464585   2.122353   1.084990   2.173056
    36  H    7.928609   9.099325   1.085105   2.121400   3.427328
    37  H    8.279736   9.175892   2.667206   4.022299   4.876978
    38  H    9.281248   9.806487   5.307884   6.604120   7.147232
    39  H    9.398330   9.561806   7.161774   8.323658   8.541926
    40  H    8.604184   8.329126   8.654117   9.553073   9.353414
    41  H    7.212055   6.600086   9.181795   9.790823   9.251184
    42  H    4.925388   3.998517   8.934602   9.155374   8.270950
    43  H    3.486750   2.103583   9.209065   9.077458   7.959283
    44  H    2.227161   1.085701   8.980468   8.494757   7.206301
    45  H    2.204206   3.162957   5.060764   4.689402   3.626096
    46  H    1.092892   2.155163   6.985808   6.292764   4.969621
    47  H    1.100668   2.110664   7.128277   6.554941   5.165299
                   26         27         28         29         30
    26  C    0.000000
    27  C    1.464007   0.000000
    28  C    2.466613   1.430973   0.000000
    29  C    2.447058   2.847856   2.411800   0.000000
    30  C    2.830803   2.460223   1.384809   1.394906   0.000000
    31  H    3.915254   3.438189   2.142014   2.149611   1.084568
    32  H    3.450083   2.172617   1.083473   3.386248   2.135614
    33  H    2.161266   1.086397   2.144922   3.826810   3.359521
    34  H    3.423331   3.932444   3.393412   1.084589   2.155214
    35  H    3.431860   4.657440   4.848855   2.687460   4.071878
    36  H    3.930595   5.382655   6.133804   4.596533   5.826788
    37  H    4.660355   5.958904   7.098385   6.260244   7.233271
    38  H    6.484345   7.459863   8.809214   8.558187   9.288133
    39  H    7.570504   8.198444   9.625074   9.901643  10.374821
    40  H    8.120719   8.280906   9.665204  10.546947  10.677119
    41  H    7.909034   7.671419   8.910836  10.226132  10.067320
    42  H    6.944230   6.289455   7.250829   8.925474   8.467970
    43  H    6.801574   5.847759   6.395274   8.253071   7.544589
    44  H    6.337519   5.191456   5.200553   7.091052   6.159322
    45  H    2.784269   2.413478   3.126906   4.027052   3.812861
    46  H    4.376575   3.337192   3.089177   4.690008   3.808425
    47  H    4.297851   2.916348   2.766945   4.998851   3.944802
                   31         32         33         34         35
    31  H    0.000000
    32  H    2.455283   0.000000
    33  H    4.253140   2.487688   0.000000
    34  H    2.478005   4.277531   4.902605   0.000000
    35  H    4.753219   5.901893   5.471978   2.445316   0.000000
    36  H    6.723069   7.185635   5.879429   4.733918   2.447597
    37  H    8.259614   8.044863   6.094315   6.698062   4.706779
    38  H   10.364301   9.591763   7.262026   9.176934   7.416056
    39  H   11.453581  10.228744   7.788466  10.679824   9.259409
    40  H   11.694670  10.020848   7.706218  11.478824  10.590347
    41  H   10.983082   9.052755   7.050306  11.236712  10.853501
    42  H    9.227538   7.178028   5.753904   9.960607  10.171556
    43  H    8.091659   6.118388   5.541322   9.236076   9.978607
    44  H    6.445045   4.751896   5.196105   7.965011   9.229336
    45  H    4.635493   3.643896   2.966864   4.944527   5.501413
    46  H    4.135869   2.926528   3.785168   5.513864   6.919530
    47  H    4.336075   2.215484   2.879992   5.960866   7.299931
                   36         37         38         39         40
    36  H    0.000000
    37  H    2.412704   0.000000
    38  H    5.213914   2.807057   0.000000
    39  H    7.303389   4.997432   2.418257   0.000000
    40  H    9.094075   7.103035   5.050958   2.873904   0.000000
    41  H    9.850191   8.277209   6.843044   5.053480   2.422720
    42  H    9.814050   8.866629   8.287032   7.116467   5.015913
    43  H   10.196364   9.799799   9.836669   9.079006   7.293421
    44  H   10.026220  10.208261  10.877880  10.601735   9.261665
    45  H    6.068503   6.426631   7.622331   8.045435   7.766704
    46  H    8.031033   8.654386   9.889030  10.164447   9.497860
    47  H    8.212197   8.607259   9.642022   9.786012   9.003944
                   41         42         43         44         45
    41  H    0.000000
    42  H    2.821067   0.000000
    43  H    5.202823   2.396526   0.000000
    44  H    7.405090   4.677820   2.428221   0.000000
    45  H    6.891066   5.247479   4.559204   4.022010   0.000000
    46  H    8.152483   5.850186   4.221615   2.473372   2.384696
    47  H    7.611240   5.344731   3.964451   2.649275   3.019676
                   46         47
    46  H    0.000000
    47  H    1.746104   0.000000
 Stoichiometry    C30H17(2)
 Framework group  C1[X(C30H17)]
 Deg. of freedom   135
 Full point group                 C1      NOp   1
 Largest Abelian subgroup         C1      NOp   1
 Largest concise Abelian subgroup C1      NOp   1
                         Standard orientation:                         
 ---------------------------------------------------------------------
 Center     Atomic      Atomic             Coordinates (Angstroms)
 Number     Number       Type             X           Y           Z
 ---------------------------------------------------------------------
      1          6           0        1.603889   -2.824727    0.018573
      2          6           0        1.433050   -1.459161    0.251009
      3          6           0        2.527802   -0.582883    0.320462
      4          6           0        3.849182   -0.941023    0.163966
      5          6           0        2.989446   -3.251780   -0.061222
      6          6           0        4.050821   -2.367972    0.006812
      7          6           0        2.039554    0.724036    0.306068
      8          6           0        2.876448    1.815838    0.129842
      9          6           0        4.282940    1.490074    0.066375
     10          6           0        4.749510    0.182293    0.079989
     11          6           0        0.620963    0.700720    0.213839
     12          6           0       -0.024274    1.887048   -0.078420
     13          6           0        0.797068    3.081156   -0.178610
     14          6           0        2.190439    3.045907   -0.079392
     15          6           0        0.406605   -3.527618   -0.224216
     16          6           0       -0.838590   -2.862755   -0.203860
     17          6           0       -0.963280   -1.442868    0.087521
     18          6           0        0.231676   -0.727756    0.230567
     19          6           0        0.120362    4.338681   -0.499998
     20          6           0       -1.461522    1.938805   -0.418466
     21          6           0       -2.134926    3.288024   -0.256352
     22          6           0       -1.212603    4.444590   -0.564143
     23          6           0       -2.043520   -3.567959   -0.545524
     24          6           0       -3.249373   -2.943253   -0.579704
     25          6           0       -3.400029   -1.568560   -0.178695
     26          6           0       -2.256591   -0.830869    0.204045
     27          6           0       -2.410803    0.506770    0.778726
     28          6           0       -3.748372    0.972636    0.982594
     29          6           0       -4.682524   -0.980776   -0.079630
     30          6           0       -4.844231    0.278889    0.497306
     31          1           0       -5.840486    0.689482    0.620504
     32          1           0       -3.903707    1.898190    1.524014
     33          1           0       -1.691176    0.761296    1.551779
     34          1           0       -5.548248   -1.547439   -0.404821
     35          1           0       -4.139801   -3.491919   -0.868333
     36          1           0       -1.968845   -4.620191   -0.799856
     37          1           0        0.421466   -4.584179   -0.473885
     38          1           0        3.202595   -4.304786   -0.215377
     39          1           0        5.058188   -2.758637   -0.096357
     40          1           0        5.817387    0.011893   -0.012085
     41          1           0        5.004911    2.294196   -0.035501
     42          1           0        2.742984    3.969486   -0.223933
     43          1           0        0.743816    5.208040   -0.685077
     44          1           0       -1.674559    5.401700   -0.786144
     45          1           0       -1.704356    1.418312   -1.341392
     46          1           0       -3.037019    3.339169   -0.871189
     47          1           0       -2.477855    3.422346    0.780869
 ---------------------------------------------------------------------
 Rotational constants (GHZ):           0.2334988           0.1747440           0.1022997
 Standard basis: 6-311+G(d,p) (5D, 7F)
 There are   792 symmetry adapted cartesian basis functions of A   symmetry.
 There are   762 symmetry adapted basis functions of A   symmetry.
   762 basis functions,  1216 primitive gaussians,   792 cartesian basis functions
    99 alpha electrons       98 beta electrons
       nuclear repulsion energy      2641.6865198003 Hartrees.
 NAtoms=   47 NActive=   47 NUniq=   47 SFac= 1.00D+00 NAtFMM=   60 NAOKFM=F Big=F
 Integral buffers will be    131072 words long.
 Raffenetti 2 integral format.
 Two-electron integral symmetry is turned on.
 One-electron integrals computed using PRISM.
 NBasis=   762 RedAO= T EigKep=  1.26D-06  NBF=   762
 NBsUse=   741 1.00D-06 EigRej=  9.90D-07 NBFU=   741
 ExpMin= 4.38D-02 ExpMax= 4.56D+03 ExpMxC= 6.82D+02 IAcc=2 IRadAn=         4 AccDes= 0.00D+00
 Harris functional with IExCor=  402 and IRadAn=       4 diagonalized for initial guess.
 HarFok:  IExCor=  402 AccDes= 0.00D+00 IRadAn=         4 IDoV= 1 UseB2=F ITyADJ=14
 ICtDFT=  3500011 ScaDFX=  1.000000  1.000000  1.000000  1.000000
 FoFCou: FMM=F IPFlag=           0 FMFlag=      100000 FMFlg1=           0
         NFxFlg=           0 DoJE=T BraDBF=F KetDBF=T FulRan=T
         wScrn=  0.000000 ICntrl=       500 IOpCl=  0 I1Cent=   200000004 NGrid=           0
         NMat0=    1 NMatS0=      1 NMatT0=    0 NMatD0=    1 NMtDS0=    0 NMtDT0=    0
 Petite list used in FoFCou.
 Initial guess <Sx>= 0.0000 <Sy>= 0.0000 <Sz>= 0.5000 <S**2>= 0.7500 S= 0.5000
 Requested convergence on RMS density matrix=1.00D-08 within 128 cycles.
 Requested convergence on MAX density matrix=1.00D-06.
 Requested convergence on             energy=1.00D-06.
 No special actions if energy rises.
 Restarting incremental Fock formation.
 SCF Done:  E(UB3LYP) =  -1153.65598918     A.U. after   23 cycles
            NFock= 23  Conv=0.88D-08     -V/T= 2.0045
 <Sx>= 0.0000 <Sy>= 0.0000 <Sz>= 0.5000 <S**2>= 0.7842 S= 0.5170
 <L.S>=  0.00000000000    
 Annihilation of the first spin contaminant:
 S**2 before annihilation     0.7842,   after     0.7509
 DoSCS=F DFT=T ScalE2(SS,OS)=  1.000000  1.000000
 Range of M.O.s used for correlation:     1   741
 NBasis=   762 NAE=    99 NBE=    98 NFC=     0 NFV=     0
 NROrb=    741 NOA=    99 NOB=    98 NVA=   642 NVB=   643

 **** Warning!!: The largest alpha MO coefficient is  0.12340061D+03


 **** Warning!!: The smallest alpha delta epsilon is  0.95659467D-01


 **** Warning!!: The largest beta MO coefficient is  0.12873256D+03


 **** Warning!!: The smallest beta delta epsilon is  0.91786977D-01

 Symmetrizing basis deriv contribution to polar:
 IMax=3 JMax=2 DiffMx= 0.00D+00
 G2DrvN: will do    48 centers at a time, making    1 passes.
 Calling FoFCou, ICntrl=  3107 FMM=F I1Cent=   0 AccDes= 0.00D+00.
 End of G2Drv F.D. properties file   721 does not exist.
 End of G2Drv F.D. properties file   722 does not exist.
 End of G2Drv F.D. properties file   788 does not exist.
          IDoAtm=11111111111111111111111111111111111111111111111
          Differentiating once with respect to nuclear coordinates.
 CalDSu exits because no D1Ps are significant.
          There are   144 degrees of freedom in the 1st order CPHF.  IDoFFX=6 NUNeed=     0.
    138 vectors produced by pass  0 Test12= 1.27D-13 1.00D-09 XBig12= 5.50D-01 1.52D-01.
 AX will form   138 AO Fock derivatives at one time.
    138 vectors produced by pass  1 Test12= 1.27D-13 1.00D-09 XBig12= 1.37D-01 6.09D-02.
    138 vectors produced by pass  2 Test12= 1.27D-13 1.00D-09 XBig12= 2.09D-03 7.43D-03.
    138 vectors produced by pass  3 Test12= 1.27D-13 1.00D-09 XBig12= 2.47D-05 5.67D-04.
    138 vectors produced by pass  4 Test12= 1.27D-13 1.00D-09 XBig12= 2.42D-07 3.79D-05.
    138 vectors produced by pass  5 Test12= 1.27D-13 1.00D-09 XBig12= 1.73D-09 3.15D-06.
    136 vectors produced by pass  6 Test12= 1.27D-13 1.00D-09 XBig12= 7.55D-11 5.17D-07.
    114 vectors produced by pass  7 Test12= 1.27D-13 1.00D-09 XBig12= 1.19D-11 1.69D-07.
     86 vectors produced by pass  8 Test12= 1.27D-13 1.00D-09 XBig12= 1.34D-12 4.78D-08.
     21 vectors produced by pass  9 Test12= 1.27D-13 1.00D-09 XBig12= 1.68D-14 5.79D-09.
      2 vectors produced by pass 10 Test12= 1.27D-13 1.00D-09 XBig12= 7.74D-16 1.33D-09.
      2 vectors produced by pass 11 Test12= 1.27D-13 1.00D-09 XBig12= 7.84D-16 1.35D-09.
      2 vectors produced by pass 12 Test12= 1.27D-13 1.00D-09 XBig12= 6.32D-16 1.52D-09.
      1 vectors produced by pass 13 Test12= 1.27D-13 1.00D-09 XBig12= 1.00D-15 1.70D-09.
 InvSVY:  IOpt=1 It=  1 EMax= 1.11D-15
 Solved reduced A of dimension  1192 with   144 vectors.
 End of Minotr F.D. properties file   721 does not exist.
 End of Minotr F.D. properties file   722 does not exist.
 End of Minotr F.D. properties file   788 does not exist.

 **********************************************************************

            Population analysis using the SCF Density.

 **********************************************************************

 Orbital symmetries:
 Alpha Orbitals:
       Occupied  (A) (A) (A) (A) (A) (A) (A) (A) (A) (A) (A) (A)
                 (A) (A) (A) (A) (A) (A) (A) (A) (A) (A) (A) (A)
                 (A) (A) (A) (A) (A) (A) (A) (A) (A) (A) (A) (A)
                 (A) (A) (A) (A) (A) (A) (A) (A) (A) (A) (A) (A)
                 (A) (A) (A) (A) (A) (A) (A) (A) (A) (A) (A) (A)
                 (A) (A) (A) (A) (A) (A) (A) (A) (A) (A) (A) (A)
                 (A) (A) (A) (A) (A) (A) (A) (A) (A) (A) (A) (A)
                 (A) (A) (A) (A) (A) (A) (A) (A) (A) (A) (A) (A)
                 (A) (A) (A)
       Virtual   (A) (A) (A) (A) (A) (A) (A) (A) (A) (A) (A) (A)
                 (A) (A) (A) (A) (A) (A) (A) (A) (A) (A) (A) (A)
                 (A) (A) (A) (A) (A) (A) (A) (A) (A) (A) (A) (A)
                 (A) (A) (A) (A) (A) (A) (A) (A) (A) (A) (A) (A)
                 (A) (A) (A) (A) (A) (A) (A) (A) (A) (A) (A) (A)
                 (A) (A) (A) (A) (A) (A) (A) (A) (A) (A) (A) (A)
                 (A) (A) (A) (A) (A) (A) (A) (A) (A) (A) (A) (A)
                 (A) (A) (A) (A) (A) (A) (A) (A) (A) (A) (A) (A)
                 (A) (A) (A) (A) (A) (A) (A) (A) (A) (A) (A) (A)
                 (A) (A) (A) (A) (A) (A) (A) (A) (A) (A) (A) (A)
                 (A) (A) (A) (A) (A) (A) (A) (A) (A) (A) (A) (A)
                 (A) (A) (A) (A) (A) (A) (A) (A) (A) (A) (A) (A)
                 (A) (A) (A) (A) (A) (A) (A) (A) (A) (A) (A) (A)
                 (A) (A) (A) (A) (A) (A) (A) (A) (A) (A) (A) (A)
                 (A) (A) (A) (A) (A) (A) (A) (A) (A) (A) (A) (A)
                 (A) (A) (A) (A) (A) (A) (A) (A) (A) (A) (A) (A)
                 (A) (A) (A) (A) (A) (A) (A) (A) (A) (A) (A) (A)
                 (A) (A) (A) (A) (A) (A) (A) (A) (A) (A) (A) (A)
                 (A) (A) (A) (A) (A) (A) (A) (A) (A) (A) (A) (A)
                 (A) (A) (A) (A) (A) (A) (A) (A) (A) (A) (A) (A)
                 (A) (A) (A) (A) (A) (A) (A) (A) (A) (A) (A) (A)
                 (A) (A) (A) (A) (A) (A) (A) (A) (A) (A) (A) (A)
                 (A) (A) (A) (A) (A) (A) (A) (A) (A) (A) (A) (A)
                 (A) (A) (A) (A) (A) (A) (A) (A) (A) (A) (A) (A)
                 (A) (A) (A) (A) (A) (A) (A) (A) (A) (A) (A) (A)
                 (A) (A) (A) (A) (A) (A) (A) (A) (A) (A) (A) (A)
                 (A) (A) (A) (A) (A) (A) (A) (A) (A) (A) (A) (A)
                 (A) (A) (A) (A) (A) (A) (A) (A) (A) (A) (A) (A)
                 (A) (A) (A) (A) (A) (A) (A) (A) (A) (A) (A) (A)
                 (A) (A) (A) (A) (A) (A) (A) (A) (A) (A) (A) (A)
                 (A) (A) (A) (A) (A) (A) (A) (A) (A) (A) (A) (A)
                 (A) (A) (A) (A) (A) (A) (A) (A) (A) (A) (A) (A)
                 (A) (A) (A) (A) (A) (A) (A) (A) (A) (A) (A) (A)
                 (A) (A) (A) (A) (A) (A) (A) (A) (A) (A) (A) (A)
                 (A) (A) (A) (A) (A) (A) (A) (A) (A) (A) (A) (A)
                 (A) (A) (A) (A) (A) (A) (A) (A) (A) (A) (A) (A)
                 (A) (A) (A) (A) (A) (A) (A) (A) (A) (A) (A) (A)
                 (A) (A) (A) (A) (A) (A) (A) (A) (A) (A) (A) (A)
                 (A) (A) (A) (A) (A) (A) (A) (A) (A) (A) (A) (A)
                 (A) (A) (A) (A) (A) (A) (A) (A) (A) (A) (A) (A)
                 (A) (A) (A) (A) (A) (A) (A) (A) (A) (A) (A) (A)
                 (A) (A) (A) (A) (A) (A) (A) (A) (A) (A) (A) (A)
                 (A) (A) (A) (A) (A) (A) (A) (A) (A) (A) (A) (A)
                 (A) (A) (A) (A) (A) (A) (A) (A) (A) (A) (A) (A)
                 (A) (A) (A) (A) (A) (A) (A) (A) (A) (A) (A) (A)
                 (A) (A) (A) (A) (A) (A) (A) (A) (A) (A) (A) (A)
                 (A) (A) (A) (A) (A) (A) (A) (A) (A) (A) (A) (A)
                 (A) (A) (A) (A) (A) (A) (A) (A) (A) (A) (A) (A)
                 (A) (A) (A) (A) (A) (A) (A) (A) (A) (A) (A) (A)
                 (A) (A) (A) (A) (A) (A) (A) (A) (A) (A) (A) (A)
                 (A) (A) (A) (A) (A) (A) (A) (A) (A) (A) (A) (A)
                 (A) (A) (A) (A) (A) (A) (A) (A) (A) (A) (A) (A)
                 (A) (A) (A) (A) (A) (A) (A) (A) (A) (A) (A) (A)
                 (A) (A) (A) (A) (A) (A)
 Beta  Orbitals:
       Occupied  (A) (A) (A) (A) (A) (A) (A) (A) (A) (A) (A) (A)
                 (A) (A) (A) (A) (A) (A) (A) (A) (A) (A) (A) (A)
                 (A) (A) (A) (A) (A) (A) (A) (A) (A) (A) (A) (A)
                 (A) (A) (A) (A) (A) (A) (A) (A) (A) (A) (A) (A)
                 (A) (A) (A) (A) (A) (A) (A) (A) (A) (A) (A) (A)
                 (A) (A) (A) (A) (A) (A) (A) (A) (A) (A) (A) (A)
                 (A) (A) (A) (A) (A) (A) (A) (A) (A) (A) (A) (A)
                 (A) (A) (A) (A) (A) (A) (A) (A) (A) (A) (A) (A)
                 (A) (A)
       Virtual   (A) (A) (A) (A) (A) (A) (A) (A) (A) (A) (A) (A)
                 (A) (A) (A) (A) (A) (A) (A) (A) (A) (A) (A) (A)
                 (A) (A) (A) (A) (A) (A) (A) (A) (A) (A) (A) (A)
                 (A) (A) (A) (A) (A) (A) (A) (A) (A) (A) (A) (A)
                 (A) (A) (A) (A) (A) (A) (A) (A) (A) (A) (A) (A)
                 (A) (A) (A) (A) (A) (A) (A) (A) (A) (A) (A) (A)
                 (A) (A) (A) (A) (A) (A) (A) (A) (A) (A) (A) (A)
                 (A) (A) (A) (A) (A) (A) (A) (A) (A) (A) (A) (A)
                 (A) (A) (A) (A) (A) (A) (A) (A) (A) (A) (A) (A)
                 (A) (A) (A) (A) (A) (A) (A) (A) (A) (A) (A) (A)
                 (A) (A) (A) (A) (A) (A) (A) (A) (A) (A) (A) (A)
                 (A) (A) (A) (A) (A) (A) (A) (A) (A) (A) (A) (A)
                 (A) (A) (A) (A) (A) (A) (A) (A) (A) (A) (A) (A)
                 (A) (A) (A) (A) (A) (A) (A) (A) (A) (A) (A) (A)
                 (A) (A) (A) (A) (A) (A) (A) (A) (A) (A) (A) (A)
                 (A) (A) (A) (A) (A) (A) (A) (A) (A) (A) (A) (A)
                 (A) (A) (A) (A) (A) (A) (A) (A) (A) (A) (A) (A)
                 (A) (A) (A) (A) (A) (A) (A) (A) (A) (A) (A) (A)
                 (A) (A) (A) (A) (A) (A) (A) (A) (A) (A) (A) (A)
                 (A) (A) (A) (A) (A) (A) (A) (A) (A) (A) (A) (A)
                 (A) (A) (A) (A) (A) (A) (A) (A) (A) (A) (A) (A)
                 (A) (A) (A) (A) (A) (A) (A) (A) (A) (A) (A) (A)
                 (A) (A) (A) (A) (A) (A) (A) (A) (A) (A) (A) (A)
                 (A) (A) (A) (A) (A) (A) (A) (A) (A) (A) (A) (A)
                 (A) (A) (A) (A) (A) (A) (A) (A) (A) (A) (A) (A)
                 (A) (A) (A) (A) (A) (A) (A) (A) (A) (A) (A) (A)
                 (A) (A) (A) (A) (A) (A) (A) (A) (A) (A) (A) (A)
                 (A) (A) (A) (A) (A) (A) (A) (A) (A) (A) (A) (A)
                 (A) (A) (A) (A) (A) (A) (A) (A) (A) (A) (A) (A)
                 (A) (A) (A) (A) (A) (A) (A) (A) (A) (A) (A) (A)
                 (A) (A) (A) (A) (A) (A) (A) (A) (A) (A) (A) (A)
                 (A) (A) (A) (A) (A) (A) (A) (A) (A) (A) (A) (A)
                 (A) (A) (A) (A) (A) (A) (A) (A) (A) (A) (A) (A)
                 (A) (A) (A) (A) (A) (A) (A) (A) (A) (A) (A) (A)
                 (A) (A) (A) (A) (A) (A) (A) (A) (A) (A) (A) (A)
                 (A) (A) (A) (A) (A) (A) (A) (A) (A) (A) (A) (A)
                 (A) (A) (A) (A) (A) (A) (A) (A) (A) (A) (A) (A)
                 (A) (A) (A) (A) (A) (A) (A) (A) (A) (A) (A) (A)
                 (A) (A) (A) (A) (A) (A) (A) (A) (A) (A) (A) (A)
                 (A) (A) (A) (A) (A) (A) (A) (A) (A) (A) (A) (A)
                 (A) (A) (A) (A) (A) (A) (A) (A) (A) (A) (A) (A)
                 (A) (A) (A) (A) (A) (A) (A) (A) (A) (A) (A) (A)
                 (A) (A) (A) (A) (A) (A) (A) (A) (A) (A) (A) (A)
                 (A) (A) (A) (A) (A) (A) (A) (A) (A) (A) (A) (A)
                 (A) (A) (A) (A) (A) (A) (A) (A) (A) (A) (A) (A)
                 (A) (A) (A) (A) (A) (A) (A) (A) (A) (A) (A) (A)
                 (A) (A) (A) (A) (A) (A) (A) (A) (A) (A) (A) (A)
                 (A) (A) (A) (A) (A) (A) (A) (A) (A) (A) (A) (A)
                 (A) (A) (A) (A) (A) (A) (A) (A) (A) (A) (A) (A)
                 (A) (A) (A) (A) (A) (A) (A) (A) (A) (A) (A) (A)
                 (A) (A) (A) (A) (A) (A) (A) (A) (A) (A) (A) (A)
                 (A) (A) (A) (A) (A) (A) (A) (A) (A) (A) (A) (A)
                 (A) (A) (A) (A) (A) (A) (A) (A) (A) (A) (A) (A)
                 (A) (A) (A) (A) (A) (A) (A)
 The electronic state is 2-A.
 Alpha  occ. eigenvalues --  -10.20720 -10.19770 -10.19576 -10.19458 -10.19449
 Alpha  occ. eigenvalues --  -10.19403 -10.19397 -10.19232 -10.19111 -10.18998
 Alpha  occ. eigenvalues --  -10.18839 -10.18770 -10.18768 -10.18764 -10.18757
 Alpha  occ. eigenvalues --  -10.18720 -10.18719 -10.18645 -10.18627 -10.18449
 Alpha  occ. eigenvalues --  -10.18444 -10.18411 -10.18282 -10.18211 -10.18163
 Alpha  occ. eigenvalues --  -10.18130 -10.17707 -10.16754 -10.16485 -10.16391
 Alpha  occ. eigenvalues --   -0.91864  -0.88661  -0.87275  -0.85129  -0.83442
 Alpha  occ. eigenvalues --   -0.82948  -0.80124  -0.79292  -0.78017  -0.77025
 Alpha  occ. eigenvalues --   -0.75136  -0.74627  -0.72414  -0.71369  -0.70995
 Alpha  occ. eigenvalues --   -0.66664  -0.65006  -0.64167  -0.62854  -0.62304
 Alpha  occ. eigenvalues --   -0.60613  -0.59021  -0.58866  -0.56451  -0.55811
 Alpha  occ. eigenvalues --   -0.52830  -0.52097  -0.51581  -0.50879  -0.49772
 Alpha  occ. eigenvalues --   -0.48958  -0.47891  -0.47417  -0.46593  -0.45397
 Alpha  occ. eigenvalues --   -0.44644  -0.44082  -0.43617  -0.43372  -0.43161
 Alpha  occ. eigenvalues --   -0.42935  -0.42228  -0.41716  -0.41086  -0.40415
 Alpha  occ. eigenvalues --   -0.40029  -0.39954  -0.39654  -0.38668  -0.37846
 Alpha  occ. eigenvalues --   -0.37386  -0.36627  -0.36146  -0.35104  -0.34543
 Alpha  occ. eigenvalues --   -0.34077  -0.33532  -0.32924  -0.32806  -0.32470
 Alpha  occ. eigenvalues --   -0.31124  -0.29538  -0.26945  -0.26562  -0.25766
 Alpha  occ. eigenvalues --   -0.22269  -0.21272  -0.21059  -0.18050
 Alpha virt. eigenvalues --   -0.08484  -0.05445  -0.04045  -0.02563  -0.01059
 Alpha virt. eigenvalues --   -0.00203   0.00262   0.00656   0.00723   0.01398
 Alpha virt. eigenvalues --    0.01633   0.01758   0.02191   0.02305   0.02925
 Alpha virt. eigenvalues --    0.03029   0.03302   0.04242   0.04406   0.04612
 Alpha virt. eigenvalues --    0.04914   0.05183   0.05561   0.05887   0.06327
 Alpha virt. eigenvalues --    0.06530   0.06735   0.06964   0.07536   0.07953
 Alpha virt. eigenvalues --    0.08417   0.08646   0.08970   0.09223   0.09650
 Alpha virt. eigenvalues --    0.10073   0.10256   0.10452   0.10700   0.11250
 Alpha virt. eigenvalues --    0.11599   0.11768   0.12337   0.12612   0.12801
 Alpha virt. eigenvalues --    0.13294   0.13580   0.13855   0.14258   0.14478
 Alpha virt. eigenvalues --    0.14916   0.15052   0.15446   0.15655   0.15939
 Alpha virt. eigenvalues --    0.15969   0.16198   0.16558   0.16736   0.16875
 Alpha virt. eigenvalues --    0.17159   0.17305   0.17582   0.17754   0.18027
 Alpha virt. eigenvalues --    0.18387   0.18767   0.18858   0.19191   0.19241
 Alpha virt. eigenvalues --    0.19324   0.19392   0.19718   0.19764   0.19998
 Alpha virt. eigenvalues --    0.20022   0.20537   0.20678   0.20737   0.21000
 Alpha virt. eigenvalues --    0.21182   0.21473   0.21631   0.21892   0.22141
 Alpha virt. eigenvalues --    0.22450   0.22776   0.23099   0.23169   0.23374
 Alpha virt. eigenvalues --    0.23646   0.23871   0.24104   0.24260   0.24372
 Alpha virt. eigenvalues --    0.24765   0.24789   0.25023   0.25217   0.25513
 Alpha virt. eigenvalues --    0.25588   0.25896   0.26000   0.26315   0.26654
 Alpha virt. eigenvalues --    0.26750   0.26921   0.27218   0.27739   0.27833
 Alpha virt. eigenvalues --    0.28164   0.28191   0.28606   0.28800   0.29280
 Alpha virt. eigenvalues --    0.29339   0.30044   0.30107   0.30295   0.30715
 Alpha virt. eigenvalues --    0.30849   0.31354   0.31687   0.31894   0.31938
 Alpha virt. eigenvalues --    0.32085   0.32423   0.32958   0.33052   0.33459
 Alpha virt. eigenvalues --    0.33709   0.33979   0.34252   0.35554   0.35841
 Alpha virt. eigenvalues --    0.36187   0.36398   0.36998   0.37401   0.37684
 Alpha virt. eigenvalues --    0.38271   0.38680   0.39045   0.39613   0.40318
 Alpha virt. eigenvalues --    0.41350   0.41428   0.41928   0.42658   0.43050
 Alpha virt. eigenvalues --    0.43528   0.44073   0.44208   0.44971   0.45146
 Alpha virt. eigenvalues --    0.45834   0.47171   0.47554   0.48171   0.48672
 Alpha virt. eigenvalues --    0.49030   0.49974   0.50232   0.51034   0.52247
 Alpha virt. eigenvalues --    0.52582   0.53037   0.53197   0.53730   0.53986
 Alpha virt. eigenvalues --    0.54414   0.54588   0.55000   0.55398   0.55896
 Alpha virt. eigenvalues --    0.56144   0.56463   0.56764   0.57147   0.57565
 Alpha virt. eigenvalues --    0.57857   0.58139   0.58588   0.59001   0.59159
 Alpha virt. eigenvalues --    0.59723   0.60017   0.60335   0.60434   0.60754
 Alpha virt. eigenvalues --    0.60970   0.61331   0.62182   0.62540   0.63368
 Alpha virt. eigenvalues --    0.63671   0.64409   0.64645   0.65260   0.65637
 Alpha virt. eigenvalues --    0.66258   0.66371   0.66758   0.67005   0.67702
 Alpha virt. eigenvalues --    0.68050   0.68721   0.68929   0.69436   0.69777
 Alpha virt. eigenvalues --    0.70268   0.70613   0.70906   0.71207   0.71738
 Alpha virt. eigenvalues --    0.71899   0.72281   0.72501   0.72713   0.72981
 Alpha virt. eigenvalues --    0.73273   0.73951   0.74155   0.74269   0.74480
 Alpha virt. eigenvalues --    0.74819   0.75498   0.75625   0.76064   0.76446
 Alpha virt. eigenvalues --    0.76470   0.77068   0.77576   0.78002   0.78516
 Alpha virt. eigenvalues --    0.79054   0.79994   0.80510   0.80747   0.82134
 Alpha virt. eigenvalues --    0.82399   0.83501   0.83769   0.84389   0.85235
 Alpha virt. eigenvalues --    0.85433   0.86206   0.86792   0.87285   0.87487
 Alpha virt. eigenvalues --    0.87862   0.88663   0.89384   0.89763   0.90305
 Alpha virt. eigenvalues --    0.90675   0.91489   0.91686   0.92139   0.92591
 Alpha virt. eigenvalues --    0.93220   0.93383   0.93641   0.94426   0.94634
 Alpha virt. eigenvalues --    0.95013   0.95279   0.95495   0.96029   0.96303
 Alpha virt. eigenvalues --    0.96878   0.97085   0.97832   0.98039   0.98471
 Alpha virt. eigenvalues --    0.99243   0.99762   1.00302   1.01268   1.02005
 Alpha virt. eigenvalues --    1.02195   1.02806   1.02973   1.03848   1.04218
 Alpha virt. eigenvalues --    1.04914   1.05134   1.06070   1.06729   1.06837
 Alpha virt. eigenvalues --    1.07572   1.07746   1.08601   1.09297   1.09669
 Alpha virt. eigenvalues --    1.10258   1.11544   1.12321   1.12977   1.14113
 Alpha virt. eigenvalues --    1.14916   1.15407   1.15961   1.16647   1.17422
 Alpha virt. eigenvalues --    1.18771   1.19257   1.20757   1.22224   1.23875
 Alpha virt. eigenvalues --    1.25361   1.26047   1.27228   1.27900   1.29106
 Alpha virt. eigenvalues --    1.30726   1.31555   1.33138   1.34267   1.34820
 Alpha virt. eigenvalues --    1.36901   1.37803   1.39343   1.40398   1.40416
 Alpha virt. eigenvalues --    1.41925   1.42752   1.44127   1.44277   1.45636
 Alpha virt. eigenvalues --    1.46006   1.46840   1.47631   1.48016   1.48353
 Alpha virt. eigenvalues --    1.49167   1.49780   1.50242   1.50512   1.51057
 Alpha virt. eigenvalues --    1.51158   1.51614   1.52982   1.53361   1.53607
 Alpha virt. eigenvalues --    1.54532   1.54822   1.55600   1.56220   1.56335
 Alpha virt. eigenvalues --    1.56630   1.57728   1.58234   1.59245   1.60423
 Alpha virt. eigenvalues --    1.60944   1.61207   1.61867   1.63275   1.63975
 Alpha virt. eigenvalues --    1.64860   1.65540   1.66342   1.66551   1.67616
 Alpha virt. eigenvalues --    1.68331   1.68558   1.69207   1.70108   1.70824
 Alpha virt. eigenvalues --    1.71977   1.72051   1.72715   1.73165   1.73760
 Alpha virt. eigenvalues --    1.74322   1.74819   1.75548   1.76262   1.76824
 Alpha virt. eigenvalues --    1.77194   1.77963   1.78667   1.79707   1.80217
 Alpha virt. eigenvalues --    1.81453   1.81574   1.82522   1.83314   1.83662
 Alpha virt. eigenvalues --    1.84487   1.84963   1.85845   1.86709   1.86943
 Alpha virt. eigenvalues --    1.87613   1.87972   1.88606   1.89028   1.90118
 Alpha virt. eigenvalues --    1.90883   1.91120   1.91467   1.92022   1.92329
 Alpha virt. eigenvalues --    1.92683   1.93658   1.94144   1.94852   1.95081
 Alpha virt. eigenvalues --    1.95804   1.96209   1.98520   1.98806   1.99148
 Alpha virt. eigenvalues --    2.00031   2.00220   2.00716   2.02372   2.02751
 Alpha virt. eigenvalues --    2.03553   2.04328   2.05250   2.05314   2.05515
 Alpha virt. eigenvalues --    2.06590   2.07808   2.08281   2.08856   2.09951
 Alpha virt. eigenvalues --    2.11614   2.12167   2.12375   2.13522   2.13914
 Alpha virt. eigenvalues --    2.14581   2.16340   2.16777   2.17742   2.17920
 Alpha virt. eigenvalues --    2.18572   2.19490   2.20097   2.20746   2.21907
 Alpha virt. eigenvalues --    2.22285   2.24054   2.24834   2.25660   2.26051
 Alpha virt. eigenvalues --    2.26834   2.29063   2.29616   2.33071   2.33786
 Alpha virt. eigenvalues --    2.34460   2.35608   2.36726   2.38149   2.38619
 Alpha virt. eigenvalues --    2.40926   2.42125   2.42665   2.43225   2.43470
 Alpha virt. eigenvalues --    2.44731   2.46884   2.47179   2.48618   2.48912
 Alpha virt. eigenvalues --    2.50635   2.52378   2.53145   2.54225   2.56124
 Alpha virt. eigenvalues --    2.56553   2.57663   2.58112   2.59191   2.60155
 Alpha virt. eigenvalues --    2.61176   2.63534   2.63551   2.64279   2.65710
 Alpha virt. eigenvalues --    2.67438   2.67698   2.68042   2.68914   2.71073
 Alpha virt. eigenvalues --    2.71619   2.72343   2.72443   2.72834   2.73057
 Alpha virt. eigenvalues --    2.73337   2.74105   2.74378   2.74909   2.75463
 Alpha virt. eigenvalues --    2.75562   2.76125   2.76814   2.77063   2.77518
 Alpha virt. eigenvalues --    2.77718   2.78434   2.78695   2.79320   2.80238
 Alpha virt. eigenvalues --    2.80792   2.81408   2.81973   2.83207   2.83767
 Alpha virt. eigenvalues --    2.84809   2.85446   2.86534   2.87367   2.87614
 Alpha virt. eigenvalues --    2.87902   2.88660   2.89705   2.90467   2.91276
 Alpha virt. eigenvalues --    2.92425   2.93714   2.93874   2.95473   2.97885
 Alpha virt. eigenvalues --    2.98689   3.00382   3.01136   3.01618   3.03536
 Alpha virt. eigenvalues --    3.05243   3.05443   3.07207   3.10244   3.12281
 Alpha virt. eigenvalues --    3.12923   3.13444   3.15994   3.16866   3.18157
 Alpha virt. eigenvalues --    3.20563   3.20944   3.21482   3.22637   3.23436
 Alpha virt. eigenvalues --    3.23781   3.24488   3.27045   3.28332   3.30280
 Alpha virt. eigenvalues --    3.32415   3.32617   3.34311   3.36414   3.36692
 Alpha virt. eigenvalues --    3.38159   3.39734   3.39980   3.41820   3.43225
 Alpha virt. eigenvalues --    3.43824   3.44913   3.45938   3.47261   3.49064
 Alpha virt. eigenvalues --    3.49430   3.51687   3.53582   3.55028   3.55676
[...]
 0306,-0.00000039,0.00000150,0.00000119,0.00000098,0.00000476,0.0000020
 3,0.00000154,-0.00000211,-0.00000296,0.00000771,0.00000017,-0.00001072
 ,0.00002277,0.00000119,-0.00000490,-0.00000900,0.00000239,-0.00001918,
 -0.00006175,-0.00000674,0.00082675,-0.00006501,0.00033099,0.11084875,0
 .00008450,0.00000067,0.00000677,0.00004404,0.00003094,0.00000686,-0.00
 005752,-0.00002790,0.00001431,0.00010768,-0.00003373,-0.00001822,-0.00
 011384,0.00003731,0.00000909,0.00006550,0.00008920,0.00000795,0.000049
 16,0.00004707,-0.00002808,0.00020803,-0.00004886,-0.00012643,-0.000051
 39,0.00002424,-0.00001349,0.00001673,-0.00005045,0.00001617,-0.0000488
 8,0.00000399,-0.00005059,-0.00036992,0.00026605,-0.00027908,-0.0002064
 4,0.00214703,0.00188710,-0.00013629,-0.00016057,0.00001343,-0.00010799
 ,-0.00000884,-0.00000663,0.00011693,-0.00002122,-0.00001600,-0.0001793
 6,-0.00001890,0.00000698,0.00002562,0.00012677,-0.00000962,-0.00170728
 ,0.00073309,0.00102149,-0.00364250,-0.00085250,0.00116476,0.00978246,-
 0.01679624,0.00333424,0.10625166,-0.27043625,0.05279811,-0.00008590,-0
 .00003583,-0.00002186,0.00008619,-0.00003150,-0.00001666,-0.00018664,0
 .00005001,0.00000120,0.00000274,-0.00007470,0.00019804,0.00028811,-0.0
 0009879,-0.00033199,0.00003336,-0.00005598,-0.00003078,0.00006385,-0.0
 0015433,-0.00008757,0.00011017,0.00008706,0.00004940,-0.00003162,-0.00
 000248,0.00000793,0.00002431,0.00000097,-0.00001793,0.00002471,0.00001
 157,0.00002714,-0.00000600,-0.00001750,0.00000521,-0.00000881,-0.00001
 115,-0.00000370,0.00000574,-0.00000929,-0.00000107,0.00000073,-0.00000
 740,0.00000140,0.00000210,-0.00000844,-0.00000405,0.00000769,0.0000017
 5,-0.00000054,0.00000631,-0.00000343,0.00000132,0.00000964,0.00000718,
 -0.00000195,0.00001951,0.00002143,0.00004148,0.00034941,0.00078955,-0.
 00162459,-0.11072764,0.28446703,-0.00005448,-0.00014466,-0.00002232,-0
 .00018161,0.00009110,-0.00001419,0.00002719,0.00014590,0.00001683,0.00
 009415,0.00012438,-0.00002466,0.00001976,-0.00000065,0.00000249,-0.000
 04977,-0.00002834,-0.00000441,0.00037761,0.00013282,0.00015668,0.00027
 635,-0.00056989,-0.00091592,-0.00016549,0.00002065,-0.00011016,0.00001
 206,-0.00013930,0.00008942,-0.00024181,0.00050338,-0.00060590,0.000777
 66,-0.00061062,-0.00033130,0.00039397,0.00166998,0.01061097,-0.0008873
 7,0.00015053,0.00017319,0.00009611,0.00002593,0.00001294,-0.00007770,-
 0.00002834,-0.00000921,0.00011533,0.00000921,0.00001216,0.00000487,-0.
 00023074,0.00001871,-0.00104469,0.00297809,0.00526869,0.00014170,-0.00
 026637,0.00090781,-0.00402897,0.00380056,0.00254883,-0.02242642,0.0521
 9815,-0.04682480,0.00007469,0.00000228,0.00000643,-0.00003139,0.000057
 76,0.00001487,0.00015905,-0.00005140,0.00000087,-0.00005322,-0.0000196
 4,-0.00013662,0.00017134,0.00029434,-0.00001780,-0.00011750,0.00014638
 ,0.00007309,-0.00007464,0.00007129,0.00002142,-0.00000665,-0.00000819,
 -0.00003838,0.00001047,0.00000143,0.00000776,0.00002408,-0.00002991,-0
 .00000570,-0.00005973,0.00000252,0.00004879,-0.00000011,-0.00000268,0.
 00000289,0.00000115,0.00000069,0.00000574,0.00000052,0.00000321,0.0000
 0248,0.00000166,0.00000463,0.00000051,-0.00000402,0.00000393,-0.000002
 73,-0.00000312,-0.00000068,0.00000236,-0.00000120,-0.00000611,0.000018
 55,-0.00000073,0.00000166,-0.00000480,-0.00002343,0.00005184,0.0003378
 5,0.00032078,-0.00168426,-0.00661207,0.02595098,-0.05792163,0.03514233
 ,0.00019372,0.00028096,0.00006317,-0.00009297,-0.00021325,0.00009744,0
 .00009483,0.00004857,-0.00001109,-0.00003360,-0.00021004,-0.00010889,-
 0.00003367,0.00007376,0.00000994,0.00010477,0.00004946,-0.00000691,0.0
 0017348,0.00009787,0.00138073,0.00018291,-0.00060319,-0.00017670,-0.00
 006896,0.00022103,-0.00013215,-0.00015188,-0.00007339,0.00004346,0.000
 36351,-0.00335287,0.00021220,-0.01484823,-0.01407607,-0.02675382,-0.00
 157508,0.00255726,-0.00093877,-0.00132300,0.00016111,0.00100262,-0.000
 16939,-0.00002382,-0.00003531,0.00018647,0.00027188,0.00014554,0.00018
 238,-0.00002065,-0.00007277,0.00005405,0.00046255,-0.00039656,0.000350
 79,0.00027285,-0.00036270,-0.04959923,-0.02114071,-0.06369752,0.004478
 09,0.00841363,0.01055485,-0.00116647,0.00008528,0.00093057,-0.00019642
 ,0.00005081,0.00000623,0.00005633,-0.00014976,-0.00002980,-0.00072809,
 0.00028475,-0.00031595,0.00026747,0.00208707,0.00132314,-0.00665702,-0
 .00685557,0.01072832,0.00449327,-0.00050602,0.00041925,0.00023460,0.00
 039990,0.00018782,-0.00075325,-0.00094786,-0.00125187,-0.00004112,-0.0
 0001205,-0.00004624,0.00003315,0.00000723,0.00011851,0.00018638,0.0004
 8074,-0.00060393,-0.00001141,-0.00002038,0.00003790,-0.00000023,-0.000
 00322,0.00000051,-0.00000390,-0.00000169,-0.00000131,0.00000951,0.0000
 0138,-0.00000308,0.00000566,0.00000640,-0.00000441,-0.00000660,0.00001
 272,0.00000042,-0.00000095,0.00001107,0.00000355,-0.00003473,-0.000008
 24,0.00000416,-0.00030781,-0.00003100,0.00002523,0.00005641,-0.0001091
 1,-0.00006870,0.00021897,0.00017455,0.00002092,0.06605068,0.00016135,0
 .00020828,0.00006685,0.00079014,-0.00019555,0.00000592,-0.00010452,-0.
 00070834,0.00011407,-0.00007169,-0.00020060,0.00000862,-0.00016913,0.0
 0000387,0.00000739,0.00009583,0.00020141,0.00000352,-0.00186471,-0.000
 06694,-0.00036135,0.00051919,0.00038086,-0.00001689,-0.00016217,0.0001
 6887,0.00000855,0.00015841,-0.00003854,0.00000049,0.00275901,-0.003992
 91,0.00105938,-0.00838559,0.00572607,-0.00166803,0.00024552,0.00141352
 ,0.00059089,-0.00007253,0.00024250,-0.00021151,-0.00003137,-0.00012483
 ,0.00000752,0.00001293,-0.00007463,-0.00011541,0.00011898,0.00005181,-
 0.00062092,0.00044265,0.00150315,-0.00013368,0.00021967,-0.00046688,0.
 00065805,-0.01598915,-0.10728293,-0.12718992,-0.00241330,-0.01146092,-
 0.02331839,0.00136917,-0.00020349,-0.00012297,0.00000091,0.00009477,0.
 00005569,-0.00006660,0.00003987,0.00003513,-0.00013477,0.00034051,-0.0
 0014857,-0.00133837,0.00171637,0.00276479,-0.01003932,-0.00875901,0.01
 496301,0.00642909,-0.00092092,0.00008759,-0.00025954,0.00132122,0.0005
 9722,-0.00145984,-0.00198594,-0.00179240,-0.00004920,-0.00003335,-0.00
 009620,-0.00008003,-0.00003751,0.00026072,0.00034552,0.00058330,-0.000
 91297,-0.00001583,0.00000415,0.00003412,-0.00000261,-0.00000007,-0.000
 00805,0.00000879,0.00000198,-0.00000877,-0.00000634,0.00000223,0.00000
 536,0.00000073,-0.00000459,0.00000001,0.00000262,0.00000469,-0.0000042
 5,-0.00000269,0.00000305,0.00000332,-0.00000701,0.00000216,-0.00000676
 ,0.00000638,-0.00003464,-0.00011741,-0.00007539,-0.00002010,-0.0001267
 7,-0.00033298,-0.00045446,0.00010952,0.02899264,0.12583905,0.00005037,
 -0.00007203,0.00002016,-0.00030756,0.00018450,-0.00002888,0.00007252,0
 .00012783,-0.00009976,-0.00023510,0.00000725,0.00001696,-0.00003500,-0
 .00002690,-0.00000826,-0.00000972,-0.00003884,-0.00000315,0.00013602,0
 .00019310,0.00031135,-0.00047263,0.00040389,-0.00015328,0.00036889,-0.
 00023260,-0.00003738,-0.00006384,0.00033063,0.00000775,-0.00117223,0.0
 0252897,0.00108056,0.00494562,-0.00491769,0.00007380,-0.00072656,-0.00
 031214,-0.00130736,0.00077698,-0.00069312,0.00026078,-0.00013910,0.000
 17305,0.00003252,-0.00003733,-0.00065926,-0.00018670,-0.00089463,0.001
 00021,-0.00005891,-0.00000242,-0.00048846,-0.00038979,-0.00012600,0.00
 007131,-0.00015637,-0.07417393,-0.14148172,-0.22851369,-0.00224328,0.0
 0170980,0.00341913,0.00021389,-0.00018087,-0.00068329,0.00015333,-0.00
 013442,-0.00007306,0.00007029,0.00021190,0.00005092,0.00153062,-0.0001
 7160,0.00076391,-0.00014606,-0.00337940,-0.00057851,0.00994130,0.00954
 011,-0.01435537,-0.00552571,0.00061288,0.00038862,-0.00034588,-0.00074
 607,-0.00068540,0.00138039,0.00181984,0.00141714,0.00002694,0.00001704
 ,0.00007626,-0.00002058,0.00001355,-0.00019999,-0.00027642,-0.00068249
 ,0.00125470,-0.00000184,0.00001071,-0.00004843,0.00000145,-0.00002401,
 -0.00001102,0.00001637,0.00000608,0.00000560,-0.00000306,0.00000329,0.
 00000644,-0.00000026,0.00000614,0.00000027,-0.00000469,0.00000084,-0.0
 0000036,-0.00000209,0.00000925,-0.00000496,0.00000219,-0.00001103,0.00
 001234,-0.00001905,0.00004273,0.00006274,0.00001064,0.00000606,0.00009
 961,-0.00004698,0.00005113,-0.00027381,0.06616769,0.13515243,0.2369790
 5,0.00001977,0.00002682,0.00000587,0.00000299,0.00003680,-0.00002363,-
 0.00009704,0.00000313,0.00008738,0.00001806,-0.00000058,0.00000639,-0.
 00000580,0.00002619,0.00000873,0.00001771,0.00000746,-0.00000842,0.000
 10695,0.00026059,-0.00016483,0.00002063,-0.00006981,-0.00002635,0.0000
 3891,0.00002125,0.00001052,-0.00002559,0.00001224,0.00000010,-0.000936
 41,-0.00057433,-0.00029507,0.00025072,0.00332712,-0.00006054,0.0005441
 3,0.00018477,-0.00038868,-0.00004306,0.00004887,-0.00001012,-0.0000211
 6,0.00001719,0.00000212,-0.00000600,-0.00000225,-0.00001324,-0.0001106
 6,0.00006002,0.00001241,0.00002066,0.00001485,0.00004207,0.00071514,-0
 .00389161,0.00024669,-0.01177290,0.00130601,-0.00756189,-0.20597168,0.
 01004493,-0.12621742,-0.01860724,-0.00023023,-0.01072001,-0.00000076,-
 0.00000995,-0.00000002,0.00000291,0.00002077,0.00002541,0.00004636,0.0
 0003126,-0.00001329,-0.00000183,-0.00003526,0.00002000,-0.00030975,-0.
 00012927,0.00017030,0.00013794,-0.00002722,-0.00012095,-0.00001115,0.0
 0017896,0.00012395,-0.00008101,-0.00032154,-0.00000010,0.00001790,0.00
 000522,-0.00002665,0.00011129,0.00010891,0.00007351,-0.00003015,0.0000
 0551,-0.00003769,0.00000471,0.00000788,-0.00000783,0.00000596,0.000004
 04,-0.00000249,0.00000212,0.00000613,-0.00000112,0.00000153,0.00000610
 ,0.00000302,-0.00000087,0.00000630,0.00000016,-0.00000689,0.00000912,0
 .00000077,-0.00000804,0.00000498,-0.00000182,-0.00000946,-0.00000560,0
 .00000212,0.00000810,0.00000120,0.00003941,-0.00090076,0.00027141,0.00
 087596,0.00095747,-0.00001270,0.00067806,0.00071546,-0.00061343,0.0007
 1845,0.22649894,0.00007898,0.00004296,-0.00000149,0.00011046,-0.000012
 65,0.00002930,0.00012201,-0.00012541,-0.00003496,-0.00001112,-0.000055
 10,-0.00002333,-0.00008483,0.00003562,0.00000659,0.00007713,0.00004574
 ,0.00000429,-0.00009556,-0.00024702,0.00015366,0.00006757,-0.00000257,
 0.00000747,0.00003275,0.00002989,-0.00003822,0.00002845,0.00003044,-0.
 00000054,0.00143308,0.00041659,0.00034232,0.00032154,-0.00517159,-0.00
 083620,0.00010473,-0.00076489,-0.00039742,0.00005496,0.00025652,-0.000
 04425,-0.00011766,-0.00002731,-0.00001156,0.00011829,-0.00004965,0.000
 00708,-0.00006911,0.00003486,0.00000815,-0.00001346,0.00025603,-0.0000
 3211,-0.00147350,-0.00409314,0.00110374,0.02593058,-0.00174851,0.01717
 245,0.00784425,-0.04869746,0.00613523,-0.02127955,0.00159646,-0.016916
 78,-0.00004878,0.00002634,-0.00000758,0.00002537,-0.00005943,-0.000020
 38,-0.00026978,0.00006422,0.00001113,0.00008213,0.00002435,0.00009262,
 0.00003741,-0.00026591,-0.00007931,-0.00020167,0.00006565,0.00012232,0
 .00002485,-0.00021534,-0.00016143,-0.00007282,0.00000733,-0.00002514,-
 0.00001889,0.00000515,0.00002336,-0.00002074,-0.00000859,0.00011076,0.
 00009262,0.00018773,-0.00015837,0.00000102,-0.00000292,0.00001838,-0.0
 0000180,-0.00000040,0.00000161,-0.00000233,-0.00000394,-0.00000001,-0.
 00000121,-0.00000268,0.00000226,0.00000409,-0.00000356,-0.00000175,0.0
 0000173,-0.00000180,0.00000082,-0.00000104,0.00000525,0.00000447,0.000
 01480,-0.00000126,-0.00000257,0.00009392,0.00003659,0.00005450,-0.0009
 3678,0.00039363,0.00138529,0.00047207,0.00074805,0.00011792,-0.0001199
 4,0.00129045,0.00017417,-0.00961839,0.05576465,0.00000871,-0.00000749,
 -0.00000292,-0.00001098,0.00002212,0.00000440,0.00002000,0.00004058,-0
 .00003629,0.00004680,-0.00000363,0.00000010,-0.00000955,0.00002054,0.0
 0000250,0.00002138,0.00000336,0.00000473,0.00021295,-0.00005630,-0.000
 04785,0.00009518,-0.00022009,0.00005602,-0.00004419,0.00005691,0.00000
 830,-0.00000830,-0.00005164,-0.00000030,0.00007011,-0.00002167,0.00020
 493,0.00086506,-0.00104490,0.00072470,0.00045613,-0.00035980,0.0001788
 1,-0.00030636,0.00015309,-0.00009965,0.00001148,0.00000595,-0.00000062
 ,-0.00003406,-0.00001024,-0.00001356,-0.00009886,0.00000126,-0.0000093
 9,0.00003381,0.00005261,0.00002942,0.00028908,0.00097461,-0.00010528,0
 .00526168,-0.00153462,0.00218621,-0.12828144,0.00754413,-0.14181284,0.
 00870069,0.00015364,0.00547222,0.00002188,-0.00003508,-0.00000540,0.00
 001628,0.00005175,0.00001591,0.00009509,-0.00002033,-0.00002491,0.0001
 1199,-0.00010108,-0.00003464,-0.00019535,0.00013872,-0.00012302,-0.000
 01119,-0.00008219,0.00039442,0.00003779,0.00020427,0.00007231,0.000047
 24,-0.00005057,0.00009669,0.00006632,0.00003113,-0.00001560,-0.0001949
 8,-0.00020125,-0.00033602,0.00003131,-0.00018264,0.00010871,-0.0000051
 4,-0.00000875,-0.00000267,-0.00000240,0.00000115,0.00000065,0.00000283
 ,-0.00000024,-0.00000003,0.00000030,0.00000044,0.00000294,0.00000034,0
 .00000041,-0.00000036,-0.00000055,0.00000078,0.00000111,-0.00000120,0.
 00000106,-0.00000113,0.00000055,0.00000044,-0.00000104,-0.00000337,0.0
 0000548,-0.00001141,0.00036749,0.00001890,-0.00035270,-0.00049846,-0.0
 0061314,0.00046591,0.00049740,0.00038306,0.00104201,0.13636149,-0.0061
 3253,0.15327992,-0.00015884,-0.00006459,-0.00001853,-0.00009017,0.0000
 1073,-0.00000154,0.00009013,-0.00003235,-0.00010348,-0.00015398,0.0001
 2527,0.00003161,0.00012310,-0.00000754,-0.00000556,-0.00007754,-0.0001
 3683,-0.00000633,-0.00010566,0.00014746,0.00000628,-0.00003517,0.00005
 841,0.00007608,0.00001806,-0.00004469,-0.00002514,0.00003480,0.0000684
 1,-0.00000693,-0.00006021,0.00045964,-0.00003674,0.00054093,0.00047614
 ,-0.00023347,-0.00014088,0.00027400,0.00052578,0.00000792,-0.00004240,
 -0.00003600,0.00016254,0.00000408,0.00000839,-0.00011768,0.00010301,0.
 00004415,0.00037208,-0.00012205,-0.00001595,-0.00011522,-0.00027632,-0
 .00003703,0.00107539,-0.00241861,0.00035111,-0.00428543,0.00376119,0.0
 1251266,-0.07028186,0.01544220,0.07902738,-0.01418557,-0.00388603,0.02
 107431,0.00000771,-0.00002036,0.00000655,-0.00002561,-0.00002694,-0.00
 003026,0.00020661,-0.00009842,-0.00005353,-0.00043076,0.00037462,0.000
 05179,-0.00035285,-0.00092777,0.00051399,0.00025751,-0.00120706,-0.000
 01841,-0.00005527,0.00017298,0.00015019,-0.00012133,-0.00025245,-0.000
 00894,-0.00002773,-0.00001450,-0.00004027,-0.00031682,-0.00079356,0.00
 039367,-0.00010688,0.00025732,-0.00017013,-0.00000377,0.00002171,-0.00
 001779,0.00000988,-0.00000465,-0.00000057,-0.00000501,0.00000643,0.000
 00514,0.00000151,0.00000646,-0.00000467,-0.00000021,0.00000638,0.00000
 251,-0.00000621,-0.00000193,0.00000361,-0.00000693,0.00000033,0.000003
 92,0.00000136,-0.00000581,0.00000425,0.00001965,-0.00000612,-0.0000306
 0,-0.00019422,-0.00036486,-0.00156357,0.00021978,-0.00028074,-0.000216
 40,-0.00088885,0.00106856,0.00044802,0.00869188,-0.00271581,-0.0240449
 8,0.08050981,0.00000316,-0.00006010,0.00000114,-0.00009564,0.00010616,
 -0.00002190,0.00005254,-0.00001373,0.00010297,0.00005307,0.00006563,-0
 .00004783,-0.00006093,0.00007112,0.00000552,0.00005707,0.00000777,0.00
 000111,0.00009120,0.00009534,-0.00003333,0.00039296,-0.00044403,0.0001
 0591,-0.00012354,0.00015784,-0.00001388,0.00003927,-0.00010748,0.00000
 960,0.00013796,-0.00012848,-0.00000482,-0.00139122,-0.00057803,-0.0002
 9728,0.00082522,-0.00024688,0.00138179,-0.00067178,0.00045468,-0.00027
 980,0.00000860,-0.00001897,-0.00001028,-0.00001629,0.00007385,0.000002
 81,-0.00006228,0.00000771,-0.00010113,0.00009687,0.00014665,0.00011727
 ,-0.00041073,-0.00149992,0.00040619,0.00899274,-0.00794075,-0.02706863
 ,0.01177800,-0.04320592,-0.02272781,-0.01283981,0.00203877,0.02289429,
 -0.00001281,-0.00000180,0.00000580,0.00001726,-0.00001551,-0.00000592,
 0.00015038,0.00007909,0.00007819,-0.00000028,0.00011860,0.00007694,-0.
 00030224,0.00057748,-0.00037226,0.00049312,-0.00131944,-0.00005878,-0.
 00002552,0.00015924,0.00016629,-0.00033396,0.00000445,-0.00003117,0.00
 000742,0.00001920,-0.00007258,-0.00114490,-0.00033986,0.00068548,0.000
 15567,-0.00017796,0.00030108,-0.00000580,0.00005105,0.00001472,0.00000
 798,0.00000307,-0.00000526,-0.00000420,0.00000200,0.00000243,0.0000031
 2,0.00000503,0.00000242,0.00000302,0.00000440,-0.00000309,-0.00000721,
 0.00000796,0.00000092,-0.00001219,0.00000532,0.00000218,0.00000136,-0.
 00000446,0.00000453,0.00005129,0.00001275,-0.00001134,-0.00007749,-0.0
 0036618,-0.00185923,0.00082306,-0.00027019,-0.00097666,0.00297337,-0.0
 0407699,-0.00015604,-0.00052388,0.00019664,0.00087179,-0.00909297,0.05
 634485,0.00004564,0.00002850,-0.00000762,0.00009724,-0.00003461,0.0000
 0895,-0.00013141,0.00016281,0.00001099,0.00031107,0.00006089,-0.000011
 41,-0.00000357,-0.00000808,0.00000640,-0.00001184,0.00005052,0.0000077
 6,0.00046697,-0.00002505,0.00002334,0.00035689,-0.00061617,0.00013109,
 -0.00031430,0.00017152,0.00001573,-0.00002099,-0.00033339,0.00000328,-
 0.00018287,-0.00021865,0.00002994,-0.00040258,-0.00032818,-0.00056394,
 0.00153901,-0.00094314,-0.00002349,-0.00103889,0.00039683,-0.00019193,
 -0.00008193,-0.00001291,0.00000094,0.00005207,0.00000098,-0.00002132,-
 0.00025126,0.00001193,0.00003945,0.00001530,0.00036788,-0.00003354,-0.
 00258194,0.00156902,0.00015118,0.00174095,-0.00576236,-0.00018420,0.07
 313425,-0.02678560,-0.25103077,0.00646590,0.00384045,-0.00404567,0.000
 01666,0.00007870,0.00001726,-0.00001747,-0.00002377,0.00001213,-0.0000
 9898,0.00014415,0.00011321,0.00039814,-0.00039918,-0.00023123,0.001427
 19,0.00151850,0.00022448,0.00006278,0.00123614,-0.00072152,-0.00000202
 ,-0.00001361,-0.00004795,-0.00020280,0.00027909,0.00004662,-0.00000734
 ,-0.00002347,0.00000399,0.00016458,0.00081731,0.00082068,-0.00021195,-
 0.00060288,0.00020292,0.00000828,0.00003709,0.00003395,-0.00000836,0.0
 0001338,0.00000448,-0.00000309,-0.00000427,-0.00000586,-0.00000185,-0.
 00000479,-0.00000087,-0.00000249,-0.00000641,-0.00000108,0.00000692,-0
 .00000368,-0.00000319,0.00000670,-0.00000854,-0.00000119,0.00000354,0.
 00001066,-0.00000992,-0.00000365,0.00000963,-0.00002428,0.00012392,0.0
 0004701,0.00021441,0.00042798,0.00055407,-0.00001576,0.00103691,-0.000
 00199,0.00047512,0.00618726,-0.00216394,-0.02131526,-0.08851456,0.0269
 1763,0.27589368\\0.00000093,-0.00000056,-0.00000053,0.00000083,0.00000
 172,0.00000086,-0.00000011,0.00000016,0.00000135,0.00000095,0.00000125
 ,0.00000144,0.00000131,0.00000160,0.00000110,0.00000029,0.00000105,0.0
 0000147,-0.00000058,0.00000108,0.00000090,0.00000007,0.00000072,0.0000
 0199,-0.00000061,0.00000125,0.00000261,-0.00000037,0.00000143,0.000002
 53,0.00000041,-0.00000280,-0.00000083,-0.00000228,0.00000112,0.0000002
 8,-0.00000039,0.00000051,0.00000168,-0.00000151,0.00000134,0.00000189,
 0.00000092,0.00000058,0.00000018,0.00000184,-0.00000046,-0.00000089,-0
 .00000101,0.00000007,-0.00000257,-0.00000037,-0.00000199,-0.00000296,-
 0.00000056,0.00000036,0.00000122,0.00000405,0.00000342,0.00000063,0.00
 000194,-0.00000012,0.00000046,-0.00000200,-0.00000107,-0.00000101,0.00
 000139,-0.00000035,-0.00000108,0.00000121,-0.00000052,-0.00000225,0.00
 000103,-0.00000163,-0.00000128,-0.00000077,-0.00000060,-0.00000046,-0.
 00000185,-0.00000192,-0.00000308,-0.00000076,-0.00000138,-0.00000165,-
 0.00000037,-0.00000103,-0.00000240,-0.00000013,-0.00000203,-0.00000179
 ,-0.00000046,-0.00000180,-0.00000234,-0.00000153,-0.00000159,-0.000001
 92,-0.00000022,0.00000008,-0.00000105,0.00000068,-0.00000145,-0.000002
 95,0.00000142,-0.00000093,-0.00000276,0.00000175,-0.00000034,-0.000002
 06,0.00000156,0.00000025,-0.00000096,0.00000138,0.00000100,0.00000039,
 0.00000083,0.00000149,0.00000161,-0.00000001,0.00000174,0.00000271,-0.
 00000064,0.00000148,0.00000293,-0.00000111,0.00000088,0.00000236,-0.00
 000123,0.00000048,0.00000200,-0.00000144,-0.00000015,0.00000148,-0.000
 00204,-0.00000186,0.00000231,-0.00000158,-0.00000108,0.00000011,-0.000
 00086,0.00000057,0.00000031\\\@


 BOOKS ARE LIGHTHOUSES ERECTED IN THE GREAT SEA OF TIME.
     -- E.P.WHIPPLE
 Job cpu time:       2 days  6 hours 21 minutes  3.7 seconds.
 Elapsed time:       0 days  2 hours 43 minutes 29.3 seconds.
 File lengths (MBytes):  RWF=   4598 Int=      0 D2E=      0 Chk=     65 Scr=      1
 Normal termination of Gaussian 16 at Sat Jun 15 01:10:23 2019.
