 Entering Gaussian System, Link 0=/share/apps/gaussian16/g16/g16
 Initial command:
 /share/apps/gaussian16/g16/l1.exe "/home/am2145//scratch/4155/Gau-2737.inp" -scrdir="/home/am2145//scratch/4155/"
 Entering Link 1 = /share/apps/gaussian16/g16/l1.exe PID=      2738.
  
 Copyright (c) 1988,1990,1992,1993,1995,1998,2003,2009,2016,
            Gaussian, Inc.  All Rights Reserved.
  
 This is part of the Gaussian(R) 16 program.  It is based on
 the Gaussian(R) 09 system (copyright 2009, Gaussian, Inc.),
 the Gaussian(R) 03 system (copyright 2003, Gaussian, Inc.),
 the Gaussian(R) 98 system (copyright 1998, Gaussian, Inc.),
 the Gaussian(R) 94 system (copyright 1995, Gaussian, Inc.),
 the Gaussian 92(TM) system (copyright 1992, Gaussian, Inc.),
 the Gaussian 90(TM) system (copyright 1990, Gaussian, Inc.),
 the Gaussian 88(TM) system (copyright 1988, Gaussian, Inc.),
 the Gaussian 86(TM) system (copyright 1986, Carnegie Mellon
 University), and the Gaussian 82(TM) system (copyright 1983,
 Carnegie Mellon University). Gaussian is a federally registered
 trademark of Gaussian, Inc.
  
 This software contains proprietary and confidential information,
 including trade secrets, belonging to Gaussian, Inc.
  
 This software is provided under written license and may be
 used, copied, transmitted, or stored only in accord with that
 written license.
  
 The following legend is applicable only to US Government
 contracts under FAR:
  
                    RESTRICTED RIGHTS LEGEND
  
 Use, reproduction and disclosure by the US Government is
 subject to restrictions as set forth in subparagraphs (a)
 and (c) of the Commercial Computer Software - Restricted
 Rights clause in FAR 52.227-19.
  
 Gaussian, Inc.
 340 Quinnipiac St., Bldg. 40, Wallingford CT 06492
  
  
 ---------------------------------------------------------------
 Warning -- This program may not be used in any manner that
 competes with the business of Gaussian, Inc. or will provide
 assistance to any competitor of Gaussian, Inc.  The licensee
 of this program is prohibited from giving any competitor of
 Gaussian, Inc. access to this program.  By using this program,
 the user acknowledges that Gaussian, Inc. is engaged in the
 business of creating and licensing software in the field of
 computational chemistry and represents and warrants to the
 licensee that it is not a competitor of Gaussian, Inc. and that
 it will not use this program in any manner prohibited above.
 ---------------------------------------------------------------
  

 Cite this work as:
 Gaussian 16, Revision A.03,
 M. J. Frisch, G. W. Trucks, H. B. Schlegel, G. E. Scuseria, 
 M. A. Robb, J. R. Cheeseman, G. Scalmani, V. Barone, 
 G. A. Petersson, H. Nakatsuji, X. Li, M. Caricato, A. V. Marenich, 
 J. Bloino, B. G. Janesko, R. Gomperts, B. Mennucci, H. P. Hratchian, 
 J. V. Ortiz, A. F. Izmaylov, J. L. Sonnenberg, D. Williams-Young, 
 F. Ding, F. Lipparini, F. Egidi, J. Goings, B. Peng, A. Petrone, 
 T. Henderson, D. Ranasinghe, V. G. Zakrzewski, J. Gao, N. Rega, 
 G. Zheng, W. Liang, M. Hada, M. Ehara, K. Toyota, R. Fukuda, 
 J. Hasegawa, M. Ishida, T. Nakajima, Y. Honda, O. Kitao, H. Nakai, 
 T. Vreven, K. Throssell, J. A. Montgomery, Jr., J. E. Peralta, 
 F. Ogliaro, M. J. Bearpark, J. J. Heyd, E. N. Brothers, K. N. Kudin, 
 V. N. Staroverov, T. A. Keith, R. Kobayashi, J. Normand, 
 K. Raghavachari, A. P. Rendell, J. C. Burant, S. S. Iyengar, 
 J. Tomasi, M. Cossi, J. M. Millam, M. Klene, C. Adamo, R. Cammi, 
 J. W. Ochterski, R. L. Martin, K. Morokuma, O. Farkas, 
 J. B. Foresman, and D. J. Fox, Gaussian, Inc., Wallingford CT, 2016.
 
 ******************************************
 Gaussian 16:  ES64L-G16RevA.03 25-Dec-2016
                 2-May-2019 
 ******************************************
 %nprocshared=20
 Will use up to   20 processors via shared memory.
 %mem=100GB
 %chk=7-path-TSguess-2.chk
 ----------------------------------------------------------------------
 # opt=(ts,calcfc,modredundant,noeigen) freq b3lyp/6-311+g(d,p) geom=co
 nnectivity int=grid=fine
 ----------------------------------------------------------------------
 1/5=1,10=4,11=1,18=120,26=3,38=1,57=2/1,3;
 2/9=110,12=2,17=6,18=5,40=1/2;
 3/5=4,6=6,7=111,11=2,25=1,30=1,71=2,74=-5,75=-4,140=1/1,2,3;
 4//1;
 5/5=2,38=5/2;
 8/6=4,10=90,11=11/1;
 11/6=1,8=1,9=11,15=111,16=1/1,2,10;
 10/6=1,13=1/2;
 6/7=2,8=2,9=2,10=2,28=1/1;
 7/10=1,18=20,25=1/1,2,3,16;
 1/5=1,10=4,11=1,18=20,26=3/3(2);
 2/9=110/2;
 99//99;
 2/9=110/2;
 3/5=4,6=6,7=111,11=2,25=1,30=1,71=1,74=-5,75=-4/1,2,3;
 4/5=5,16=3,69=1/1;
 5/5=2,38=5/2;
 7//1,2,3,16;
 1/5=1,11=1,18=20,26=3/3(-5);
 2/9=110/2;
 6/7=2,8=2,9=2,10=2,19=2,28=1/1;
 99/9=1/99;
 ----------------
 7-path-TSguess-2
 ----------------
 Symbolic Z-matrix:
 Charge =  0 Multiplicity = 2
 C                     1.00366   3.08977   0.05045 
 C                     2.37209   2.89856   0.36596 
 C                     2.95108   1.62081   0.27255 
 C                     2.05504   0.60253  -0.06267 
 C                     0.67371   0.70385  -0.29272 
 C                     0.14764   1.99014  -0.36577 
 C                     0.15246  -0.68828  -0.38589 
 C                     2.44564  -0.7385   -0.1191 
 C                     1.30149  -1.51671  -0.33199 
 C                     4.30413   1.16193   0.53339 
 C                     3.7056   -1.2118    0.15993 
 C                     4.66379  -0.17181   0.47945 
 C                     1.36447  -2.90601  -0.25796 
 C                     3.80432  -2.65447   0.14773 
 C                     2.69205  -3.45146  -0.05383 
 C                    -1.09462  -1.32063  -0.26897 
 C                    -1.07736  -2.78118  -0.28092 
 C                     0.10947  -3.53956  -0.29792 
 C                    -2.35593  -0.63282   0.00687 
 C                    -2.32973  -3.48359  -0.18185 
 C                    -3.54279  -1.40956   0.21126 
 C                    -3.49513  -2.83772   0.05326 
 C                    -1.17121   2.25542  -0.88231 
 C                     0.40957   4.38896   0.11468 
 C                    -0.89134   4.60333  -0.28627 
 C                    -1.66205   3.56056  -0.84205 
 C                    -2.50147   0.75385   0.19032 
 C                    -3.65813   1.36971   0.58915 
 C                    -4.74512  -0.78037   0.59532 
 C                    -4.80488   0.5825    0.80735 
 H                     5.69053  -0.44185   0.70464 
 H                     4.76256  -3.13156   0.32612 
 H                     2.81399  -4.52955  -0.02651 
 H                     0.02689  -4.62166  -0.27284 
 H                     5.06201   1.89244   0.79748 
 H                     2.95575   3.75884   0.67883 
 H                     1.01333   5.21929   0.46514 
 H                    -1.30636   5.60435  -0.24288 
 H                    -2.6243    3.78765  -1.28702 
 H                    -3.70064   2.44586   0.71773 
 H                    -5.73208   1.05075   1.12074 
 H                    -5.62769  -1.39436   0.73936 
 H                    -4.41996  -3.39482   0.16107 
 H                    -2.3119   -4.56564  -0.25794 
 H                    -1.5608    1.57555  -1.62855 
 
 The following ModRedundant input section has been read:
 

 GradGradGradGradGradGradGradGradGradGradGradGradGradGradGradGradGradGrad
 Berny optimization.
 Initialization pass.
                           ----------------------------
                           !    Initial Parameters    !
                           ! (Angstroms and Degrees)  !
 --------------------------                            --------------------------
 ! Name  Definition              Value          Derivative Info.                !
 --------------------------------------------------------------------------------
 ! R1    R(1,2)                  1.4173         calculate D2E/DX2 analytically  !
 ! R2    R(1,6)                  1.4544         calculate D2E/DX2 analytically  !
 ! R3    R(1,24)                 1.43           calculate D2E/DX2 analytically  !
 ! R4    R(2,3)                  1.4059         calculate D2E/DX2 analytically  !
 ! R5    R(2,36)                 1.0857         calculate D2E/DX2 analytically  !
 ! R6    R(3,4)                  1.3972         calculate D2E/DX2 analytically  !
 ! R7    R(3,10)                 1.4524         calculate D2E/DX2 analytically  !
 ! R8    R(4,5)                  1.404          calculate D2E/DX2 analytically  !
 ! R9    R(4,8)                  1.3979         calculate D2E/DX2 analytically  !
 ! R10   R(5,6)                  1.3916         calculate D2E/DX2 analytically  !
 ! R11   R(5,7)                  1.4894         calculate D2E/DX2 analytically  !
 ! R12   R(6,23)                 1.441          calculate D2E/DX2 analytically  !
 ! R13   R(7,9)                  1.4176         calculate D2E/DX2 analytically  !
 ! R14   R(7,16)                 1.4031         calculate D2E/DX2 analytically  !
 ! R15   R(8,9)                  1.4            calculate D2E/DX2 analytically  !
 ! R16   R(8,11)                 1.3745         calculate D2E/DX2 analytically  !
 ! R17   R(9,13)                 1.3927         calculate D2E/DX2 analytically  !
 ! R18   R(10,12)                1.3824         calculate D2E/DX2 analytically  !
 ! R19   R(10,35)                1.0852         calculate D2E/DX2 analytically  !
 ! R20   R(11,12)                1.4498         calculate D2E/DX2 analytically  !
 ! R21   R(11,14)                1.4461         calculate D2E/DX2 analytically  !
 ! R22   R(12,31)                1.0853         calculate D2E/DX2 analytically  !
 ! R23   R(13,15)                1.4497         calculate D2E/DX2 analytically  !
 ! R24   R(13,18)                1.4064         calculate D2E/DX2 analytically  !
 ! R25   R(14,15)                1.3831         calculate D2E/DX2 analytically  !
 ! R26   R(14,32)                1.0852         calculate D2E/DX2 analytically  !
 ! R27   R(15,33)                1.0853         calculate D2E/DX2 analytically  !
 ! R28   R(16,17)                1.4607         calculate D2E/DX2 analytically  !
 ! R29   R(16,19)                1.4629         calculate D2E/DX2 analytically  !
 ! R30   R(17,18)                1.4085         calculate D2E/DX2 analytically  !
 ! R31   R(17,20)                1.4393         calculate D2E/DX2 analytically  !
 ! R32   R(18,34)                1.0855         calculate D2E/DX2 analytically  !
 ! R33   R(19,21)                1.4331         calculate D2E/DX2 analytically  !
 ! R34   R(19,27)                1.4063         calculate D2E/DX2 analytically  !
 ! R35   R(20,22)                1.353          calculate D2E/DX2 analytically  !
 ! R36   R(20,44)                1.0849         calculate D2E/DX2 analytically  !
 ! R37   R(21,22)                1.4377         calculate D2E/DX2 analytically  !
 ! R38   R(21,29)                1.4103         calculate D2E/DX2 analytically  !
 ! R39   R(22,43)                1.085          calculate D2E/DX2 analytically  !
 ! R40   R(23,26)                1.395          calculate D2E/DX2 analytically  !
 ! R41   R(23,45)                1.0821         calculate D2E/DX2 analytically  !
 ! R42   R(24,25)                1.3781         calculate D2E/DX2 analytically  !
 ! R43   R(24,37)                1.0848         calculate D2E/DX2 analytically  !
 ! R44   R(25,26)                1.4108         calculate D2E/DX2 analytically  !
 ! R45   R(25,38)                1.0845         calculate D2E/DX2 analytically  !
 ! R46   R(26,39)                1.0842         calculate D2E/DX2 analytically  !
 ! R47   R(27,28)                1.3697         calculate D2E/DX2 analytically  !
 ! R48   R(28,30)                1.408          calculate D2E/DX2 analytically  !
 ! R49   R(28,40)                1.0846         calculate D2E/DX2 analytically  !
 ! R50   R(29,30)                1.3806         calculate D2E/DX2 analytically  !
 ! R51   R(29,42)                1.0847         calculate D2E/DX2 analytically  !
 ! R52   R(30,41)                1.085          calculate D2E/DX2 analytically  !
 ! A1    A(2,1,6)              122.005          calculate D2E/DX2 analytically  !
 ! A2    A(2,1,24)             120.9104         calculate D2E/DX2 analytically  !
 ! A3    A(6,1,24)             117.0805         calculate D2E/DX2 analytically  !
 ! A4    A(1,2,3)              120.3618         calculate D2E/DX2 analytically  !
 ! A5    A(1,2,36)             118.446          calculate D2E/DX2 analytically  !
 ! A6    A(3,2,36)             121.1922         calculate D2E/DX2 analytically  !
 ! A7    A(2,3,4)              114.4685         calculate D2E/DX2 analytically  !
 ! A8    A(2,3,10)             131.2153         calculate D2E/DX2 analytically  !
 ! A9    A(4,3,10)             114.2222         calculate D2E/DX2 analytically  !
 ! A10   A(3,4,5)              128.1459         calculate D2E/DX2 analytically  !
 ! A11   A(3,4,8)              121.9816         calculate D2E/DX2 analytically  !
 ! A12   A(5,4,8)              109.7259         calculate D2E/DX2 analytically  !
 ! A13   A(4,5,6)              116.5657         calculate D2E/DX2 analytically  !
 ! A14   A(4,5,7)              106.6853         calculate D2E/DX2 analytically  !
 ! A15   A(6,5,7)              136.7472         calculate D2E/DX2 analytically  !
 ! A16   A(1,6,5)              117.473          calculate D2E/DX2 analytically  !
 ! A17   A(1,6,23)             120.1374         calculate D2E/DX2 analytically  !
 ! A18   A(5,6,23)             122.3406         calculate D2E/DX2 analytically  !
 ! A19   A(5,7,9)              105.0802         calculate D2E/DX2 analytically  !
 ! A20   A(5,7,16)             136.6415         calculate D2E/DX2 analytically  !
 ! A21   A(9,7,16)             116.9928         calculate D2E/DX2 analytically  !
 ! A22   A(4,8,9)              108.1214         calculate D2E/DX2 analytically  !
 ! A23   A(4,8,11)             125.3282         calculate D2E/DX2 analytically  !
 ! A24   A(9,8,11)             126.0568         calculate D2E/DX2 analytically  !
 ! A25   A(7,9,8)              110.0824         calculate D2E/DX2 analytically  !
 ! A26   A(7,9,13)             128.4375         calculate D2E/DX2 analytically  !
 ! A27   A(8,9,13)             120.6281         calculate D2E/DX2 analytically  !
 ! A28   A(3,10,12)            122.6969         calculate D2E/DX2 analytically  !
 ! A29   A(3,10,35)            118.7911         calculate D2E/DX2 analytically  !
 ! A30   A(12,10,35)           118.5043         calculate D2E/DX2 analytically  !
 ! A31   A(8,11,12)            113.8011         calculate D2E/DX2 analytically  !
 ! A32   A(8,11,14)            113.8525         calculate D2E/DX2 analytically  !
 ! A33   A(12,11,14)           132.2521         calculate D2E/DX2 analytically  !
 ! A34   A(10,12,11)           121.92           calculate D2E/DX2 analytically  !
 ! A35   A(10,12,31)           118.5609         calculate D2E/DX2 analytically  !
 ! A36   A(11,12,31)           119.5062         calculate D2E/DX2 analytically  !
 ! A37   A(9,13,15)            115.1019         calculate D2E/DX2 analytically  !
 ! A38   A(9,13,18)            114.0482         calculate D2E/DX2 analytically  !
 ! A39   A(15,13,18)           130.6683         calculate D2E/DX2 analytically  !
 ! A40   A(11,14,15)           121.4126         calculate D2E/DX2 analytically  !
 ! A41   A(11,14,32)           119.8335         calculate D2E/DX2 analytically  !
 ! A42   A(15,14,32)           118.7333         calculate D2E/DX2 analytically  !
 ! A43   A(13,15,14)           122.6942         calculate D2E/DX2 analytically  !
 ! A44   A(13,15,33)           118.697          calculate D2E/DX2 analytically  !
 ! A45   A(14,15,33)           118.5796         calculate D2E/DX2 analytically  !
 ! A46   A(7,16,17)            116.0685         calculate D2E/DX2 analytically  !
 ! A47   A(7,16,19)            124.7593         calculate D2E/DX2 analytically  !
 ! A48   A(17,16,19)           118.8066         calculate D2E/DX2 analytically  !
 ! A49   A(16,17,18)           123.2586         calculate D2E/DX2 analytically  !
 ! A50   A(16,17,20)           118.4976         calculate D2E/DX2 analytically  !
 ! A51   A(18,17,20)           118.1138         calculate D2E/DX2 analytically  !
 ! A52   A(13,18,17)           120.5968         calculate D2E/DX2 analytically  !
 ! A53   A(13,18,34)           121.0824         calculate D2E/DX2 analytically  !
 ! A54   A(17,18,34)           118.1861         calculate D2E/DX2 analytically  !
 ! A55   A(16,19,21)           119.0854         calculate D2E/DX2 analytically  !
 ! A56   A(16,19,27)           125.27           calculate D2E/DX2 analytically  !
 ! A57   A(21,19,27)           115.4759         calculate D2E/DX2 analytically  !
 ! A58   A(17,20,22)           121.9024         calculate D2E/DX2 analytically  !
 ! A59   A(17,20,44)           117.88           calculate D2E/DX2 analytically  !
 ! A60   A(22,20,44)           120.1635         calculate D2E/DX2 analytically  !
 ! A61   A(19,21,22)           119.6891         calculate D2E/DX2 analytically  !
 ! A62   A(19,21,29)           120.2036         calculate D2E/DX2 analytically  !
 ! A63   A(22,21,29)           120.0916         calculate D2E/DX2 analytically  !
 ! A64   A(20,22,21)           121.4574         calculate D2E/DX2 analytically  !
 ! A65   A(20,22,43)           120.4205         calculate D2E/DX2 analytically  !
 ! A66   A(21,22,43)           118.0907         calculate D2E/DX2 analytically  !
 ! A67   A(6,23,26)            118.9419         calculate D2E/DX2 analytically  !
 ! A68   A(6,23,45)            117.4547         calculate D2E/DX2 analytically  !
 ! A69   A(26,23,45)           118.7556         calculate D2E/DX2 analytically  !
 ! A70   A(1,24,25)            121.362          calculate D2E/DX2 analytically  !
 ! A71   A(1,24,37)            118.5995         calculate D2E/DX2 analytically  !
 ! A72   A(25,24,37)           120.0212         calculate D2E/DX2 analytically  !
 ! A73   A(24,25,26)           121.0213         calculate D2E/DX2 analytically  !
 ! A74   A(24,25,38)           119.5508         calculate D2E/DX2 analytically  !
 ! A75   A(26,25,38)           119.2718         calculate D2E/DX2 analytically  !
 ! A76   A(23,26,25)           120.7106         calculate D2E/DX2 analytically  !
 ! A77   A(23,26,39)           119.762          calculate D2E/DX2 analytically  !
 ! A78   A(25,26,39)           119.4545         calculate D2E/DX2 analytically  !
 ! A79   A(19,27,28)           124.6599         calculate D2E/DX2 analytically  !
 ! A80   A(27,28,30)           118.7845         calculate D2E/DX2 analytically  !
 ! A81   A(27,28,40)           120.9106         calculate D2E/DX2 analytically  !
 ! A82   A(30,28,40)           120.2947         calculate D2E/DX2 analytically  !
 ! A83   A(21,29,30)           121.2752         calculate D2E/DX2 analytically  !
 ! A84   A(21,29,42)           118.5075         calculate D2E/DX2 analytically  !
 ! A85   A(30,29,42)           120.2091         calculate D2E/DX2 analytically  !
 ! A86   A(28,30,29)           119.5308         calculate D2E/DX2 analytically  !
 ! A87   A(28,30,41)           119.9671         calculate D2E/DX2 analytically  !
 ! A88   A(29,30,41)           120.4909         calculate D2E/DX2 analytically  !
 ! D1    D(6,1,2,3)              0.544          calculate D2E/DX2 analytically  !
 ! D2    D(6,1,2,36)          -179.4704         calculate D2E/DX2 analytically  !
 ! D3    D(24,1,2,3)          -178.6932         calculate D2E/DX2 analytically  !
 ! D4    D(24,1,2,36)            1.2925         calculate D2E/DX2 analytically  !
 ! D5    D(2,1,6,5)              7.5276         calculate D2E/DX2 analytically  !
 ! D6    D(2,1,6,23)          -169.987          calculate D2E/DX2 analytically  !
 ! D7    D(24,1,6,5)          -173.2075         calculate D2E/DX2 analytically  !
 ! D8    D(24,1,6,23)            9.2779         calculate D2E/DX2 analytically  !
 ! D9    D(2,1,24,25)          175.0352         calculate D2E/DX2 analytically  !
 ! D10   D(2,1,24,37)           -3.4532         calculate D2E/DX2 analytically  !
 ! D11   D(6,1,24,25)           -4.2382         calculate D2E/DX2 analytically  !
 ! D12   D(6,1,24,37)          177.2734         calculate D2E/DX2 analytically  !
 ! D13   D(1,2,3,4)             -3.7866         calculate D2E/DX2 analytically  !
 ! D14   D(1,2,3,10)          -179.9981         calculate D2E/DX2 analytically  !
 ! D15   D(36,2,3,4)           176.2282         calculate D2E/DX2 analytically  !
 ! D16   D(36,2,3,10)            0.0167         calculate D2E/DX2 analytically  !
 ! D17   D(2,3,4,5)             -0.9605         calculate D2E/DX2 analytically  !
 ! D18   D(2,3,4,8)           -176.092          calculate D2E/DX2 analytically  !
 ! D19   D(10,3,4,5)           175.9152         calculate D2E/DX2 analytically  !
 ! D20   D(10,3,4,8)             0.7837         calculate D2E/DX2 analytically  !
 ! D21   D(2,3,10,12)          174.9985         calculate D2E/DX2 analytically  !
 ! D22   D(2,3,10,35)           -3.9771         calculate D2E/DX2 analytically  !
 ! D23   D(4,3,10,12)           -1.2204         calculate D2E/DX2 analytically  !
 ! D24   D(4,3,10,35)          179.8041         calculate D2E/DX2 analytically  !
 ! D25   D(3,4,5,6)              8.9499         calculate D2E/DX2 analytically  !
 ! D26   D(3,4,5,7)           -170.6408         calculate D2E/DX2 analytically  !
 ! D27   D(8,4,5,6)           -175.4361         calculate D2E/DX2 analytically  !
 ! D28   D(8,4,5,7)              4.9732         calculate D2E/DX2 analytically  !
 ! D29   D(3,4,8,9)            173.5048         calculate D2E/DX2 analytically  !
 ! D30   D(3,4,8,11)             1.1777         calculate D2E/DX2 analytically  !
 ! D31   D(5,4,8,9)             -2.4292         calculate D2E/DX2 analytically  !
 ! D32   D(5,4,8,11)          -174.7562         calculate D2E/DX2 analytically  !
 ! D33   D(4,5,6,1)            -11.4659         calculate D2E/DX2 analytically  !
 ! D34   D(4,5,6,23)           165.99           calculate D2E/DX2 analytically  !
 ! D35   D(7,5,6,1)            167.9619         calculate D2E/DX2 analytically  !
 ! D36   D(7,5,6,23)           -14.5822         calculate D2E/DX2 analytically  !
 ! D37   D(4,5,7,9)             -5.5476         calculate D2E/DX2 analytically  !
 ! D38   D(4,5,7,16)           160.3867         calculate D2E/DX2 analytically  !
 ! D39   D(6,5,7,9)            174.9867         calculate D2E/DX2 analytically  !
 ! D40   D(6,5,7,16)           -19.079          calculate D2E/DX2 analytically  !
 ! D41   D(1,6,23,26)           -6.7793         calculate D2E/DX2 analytically  !
 ! D42   D(1,6,23,45)          148.2887         calculate D2E/DX2 analytically  !
 ! D43   D(5,6,23,26)          175.8307         calculate D2E/DX2 analytically  !
 ! D44   D(5,6,23,45)          -29.1012         calculate D2E/DX2 analytically  !
 ! D45   D(5,7,9,8)              4.2111         calculate D2E/DX2 analytically  !
 ! D46   D(5,7,9,13)           173.5329         calculate D2E/DX2 analytically  !
 ! D47   D(16,7,9,8)          -164.9962         calculate D2E/DX2 analytically  !
 ! D48   D(16,7,9,13)            4.3256         calculate D2E/DX2 analytically  !
 ! D49   D(5,7,16,17)         -172.5            calculate D2E/DX2 analytically  !
 ! D50   D(5,7,16,19)            0.4486         calculate D2E/DX2 analytically  !
 ! D51   D(9,7,16,17)           -7.7691         calculate D2E/DX2 analytically  !
 ! D52   D(9,7,16,19)          165.1795         calculate D2E/DX2 analytically  !
 ! D53   D(4,8,9,7)             -1.298          calculate D2E/DX2 analytically  !
 ! D54   D(4,8,9,13)          -171.5876         calculate D2E/DX2 analytically  !
 ! D55   D(11,8,9,7)           170.9582         calculate D2E/DX2 analytically  !
 ! D56   D(11,8,9,13)            0.6685         calculate D2E/DX2 analytically  !
 ! D57   D(4,8,11,12)           -2.4978         calculate D2E/DX2 analytically  !
 ! D58   D(4,8,11,14)          174.4118         calculate D2E/DX2 analytically  !
 ! D59   D(9,8,11,12)         -173.467          calculate D2E/DX2 analytically  !
 ! D60   D(9,8,11,14)            3.4426         calculate D2E/DX2 analytically  !
 ! D61   D(7,9,13,15)         -172.8505         calculate D2E/DX2 analytically  !
 ! D62   D(7,9,13,18)            2.7824         calculate D2E/DX2 analytically  !
 ! D63   D(8,9,13,15)           -4.5186         calculate D2E/DX2 analytically  !
 ! D64   D(8,9,13,18)          171.1143         calculate D2E/DX2 analytically  !
 ! D65   D(3,10,12,11)          -0.1834         calculate D2E/DX2 analytically  !
 ! D66   D(3,10,12,31)        -178.8743         calculate D2E/DX2 analytically  !
 ! D67   D(35,10,12,11)        178.7949         calculate D2E/DX2 analytically  !
 ! D68   D(35,10,12,31)          0.104          calculate D2E/DX2 analytically  !
 ! D69   D(8,11,12,10)           1.9701         calculate D2E/DX2 analytically  !
 ! D70   D(8,11,12,31)        -179.351          calculate D2E/DX2 analytically  !
 ! D71   D(14,11,12,10)       -174.2104         calculate D2E/DX2 analytically  !
 ! D72   D(14,11,12,31)          4.4685         calculate D2E/DX2 analytically  !
 ! D73   D(8,11,14,15)          -3.5102         calculate D2E/DX2 analytically  !
 ! D74   D(8,11,14,32)         178.1622         calculate D2E/DX2 analytically  !
 ! D75   D(12,11,14,15)        172.6689         calculate D2E/DX2 analytically  !
 ! D76   D(12,11,14,32)         -5.6587         calculate D2E/DX2 analytically  !
 ! D77   D(9,13,15,14)           4.3766         calculate D2E/DX2 analytically  !
 ! D78   D(9,13,15,33)        -177.6197         calculate D2E/DX2 analytically  !
 ! D79   D(18,13,15,14)       -170.3632         calculate D2E/DX2 analytically  !
 ! D80   D(18,13,15,33)          7.6404         calculate D2E/DX2 analytically  !
 ! D81   D(9,13,18,17)          -5.8327         calculate D2E/DX2 analytically  !
 ! D82   D(9,13,18,34)         178.4622         calculate D2E/DX2 analytically  !
 ! D83   D(15,13,18,17)        168.9514         calculate D2E/DX2 analytically  !
 ! D84   D(15,13,18,34)         -6.7538         calculate D2E/DX2 analytically  !
 ! D85   D(11,14,15,13)         -0.3107         calculate D2E/DX2 analytically  !
 ! D86   D(11,14,15,33)       -178.3166         calculate D2E/DX2 analytically  !
 ! D87   D(32,14,15,13)        178.0348         calculate D2E/DX2 analytically  !
 ! D88   D(32,14,15,33)          0.0289         calculate D2E/DX2 analytically  !
 ! D89   D(7,16,17,18)           5.0346         calculate D2E/DX2 analytically  !
 ! D90   D(7,16,17,20)        -179.1944         calculate D2E/DX2 analytically  !
 ! D91   D(19,16,17,18)       -168.3562         calculate D2E/DX2 analytically  !
 ! D92   D(19,16,17,20)          7.4148         calculate D2E/DX2 analytically  !
 ! D93   D(7,16,19,21)        -174.8792         calculate D2E/DX2 analytically  !
 ! D94   D(7,16,19,27)           0.1754         calculate D2E/DX2 analytically  !
 ! D95   D(17,16,19,21)         -2.1087         calculate D2E/DX2 analytically  !
 ! D96   D(17,16,19,27)        172.9459         calculate D2E/DX2 analytically  !
 ! D97   D(16,17,18,13)          2.1928         calculate D2E/DX2 analytically  !
 ! D98   D(16,17,18,34)        178.02           calculate D2E/DX2 analytically  !
 ! D99   D(20,17,18,13)       -173.5934         calculate D2E/DX2 analytically  !
 ! D100  D(20,17,18,34)          2.2337         calculate D2E/DX2 analytically  !
 ! D101  D(16,17,20,22)         -6.6535         calculate D2E/DX2 analytically  !
 ! D102  D(16,17,20,44)        176.0186         calculate D2E/DX2 analytically  !
 ! D103  D(18,17,20,22)        169.3376         calculate D2E/DX2 analytically  !
 ! D104  D(18,17,20,44)         -7.9904         calculate D2E/DX2 analytically  !
 ! D105  D(16,19,21,22)         -4.1976         calculate D2E/DX2 analytically  !
 ! D106  D(16,19,21,29)        174.3619         calculate D2E/DX2 analytically  !
 ! D107  D(27,19,21,22)       -179.7261         calculate D2E/DX2 analytically  !
 ! D108  D(27,19,21,29)         -1.1666         calculate D2E/DX2 analytically  !
 ! D109  D(16,19,27,28)       -172.6102         calculate D2E/DX2 analytically  !
 ! D110  D(21,19,27,28)          2.6029         calculate D2E/DX2 analytically  !
 ! D111  D(17,20,22,21)          0.2652         calculate D2E/DX2 analytically  !
 ! D112  D(17,20,22,43)       -177.6563         calculate D2E/DX2 analytically  !
 ! D113  D(44,20,22,21)        177.5334         calculate D2E/DX2 analytically  !
 ! D114  D(44,20,22,43)         -0.3881         calculate D2E/DX2 analytically  !
 ! D115  D(19,21,22,20)          5.3001         calculate D2E/DX2 analytically  !
 ! D116  D(19,21,22,43)       -176.7316         calculate D2E/DX2 analytically  !
 ! D117  D(29,21,22,20)       -173.261          calculate D2E/DX2 analytically  !
 ! D118  D(29,21,22,43)          4.7073         calculate D2E/DX2 analytically  !
 ! D119  D(19,21,29,30)         -1.2372         calculate D2E/DX2 analytically  !
 ! D120  D(19,21,29,42)        179.8034         calculate D2E/DX2 analytically  !
 ! D121  D(22,21,29,30)        177.3164         calculate D2E/DX2 analytically  !
 ! D122  D(22,21,29,42)         -1.643          calculate D2E/DX2 analytically  !
 ! D123  D(6,23,26,25)          -0.986          calculate D2E/DX2 analytically  !
 ! D124  D(6,23,26,39)         175.8915         calculate D2E/DX2 analytically  !
 ! D125  D(45,23,26,25)       -155.7287         calculate D2E/DX2 analytically  !
 ! D126  D(45,23,26,39)         21.1489         calculate D2E/DX2 analytically  !
 ! D127  D(1,24,25,26)          -3.4087         calculate D2E/DX2 analytically  !
 ! D128  D(1,24,25,38)        -178.8322         calculate D2E/DX2 analytically  !
 ! D129  D(37,24,25,26)        175.0585         calculate D2E/DX2 analytically  !
 ! D130  D(37,24,25,38)         -0.365          calculate D2E/DX2 analytically  !
 ! D131  D(24,25,26,23)          6.1873         calculate D2E/DX2 analytically  !
 ! D132  D(24,25,26,39)       -170.6997         calculate D2E/DX2 analytically  !
 ! D133  D(38,25,26,23)       -178.3767         calculate D2E/DX2 analytically  !
 ! D134  D(38,25,26,39)          4.7363         calculate D2E/DX2 analytically  !
 ! D135  D(19,27,28,30)         -1.5512         calculate D2E/DX2 analytically  !
 ! D136  D(19,27,28,40)        179.607          calculate D2E/DX2 analytically  !
 ! D137  D(27,28,30,29)         -1.0333         calculate D2E/DX2 analytically  !
 ! D138  D(27,28,30,41)       -179.8194         calculate D2E/DX2 analytically  !
 ! D139  D(40,28,30,29)        177.8159         calculate D2E/DX2 analytically  !
 ! D140  D(40,28,30,41)         -0.9702         calculate D2E/DX2 analytically  !
 ! D141  D(21,29,30,28)          2.3805         calculate D2E/DX2 analytically  !
 ! D142  D(21,29,30,41)       -178.8399         calculate D2E/DX2 analytically  !
 ! D143  D(42,29,30,28)       -178.6777         calculate D2E/DX2 analytically  !
 ! D144  D(42,29,30,41)          0.1019         calculate D2E/DX2 analytically  !
 --------------------------------------------------------------------------------
 Trust Radius=3.00D-01 FncErr=1.00D-07 GrdErr=1.00D-06 EigMax=2.50D+02 EigMin=1.00D-04
 Number of steps in this run=    270 maximum allowed number of steps=    270.
 Search for a saddle point of order  1.
 GradGradGradGradGradGradGradGradGradGradGradGradGradGradGradGradGradGrad

                          Input orientation:                          
 ---------------------------------------------------------------------
 Center     Atomic      Atomic             Coordinates (Angstroms)
 Number     Number       Type             X           Y           Z
 ---------------------------------------------------------------------
      1          6           0        1.003660    3.089769    0.050454
      2          6           0        2.372086    2.898555    0.365957
      3          6           0        2.951083    1.620813    0.272547
      4          6           0        2.055040    0.602525   -0.062669
      5          6           0        0.673714    0.703848   -0.292718
      6          6           0        0.147640    1.990138   -0.365768
      7          6           0        0.152456   -0.688277   -0.385890
      8          6           0        2.445639   -0.738499   -0.119104
      9          6           0        1.301487   -1.516707   -0.331987
     10          6           0        4.304129    1.161929    0.533389
     11          6           0        3.705598   -1.211802    0.159925
     12          6           0        4.663789   -0.171808    0.479449
     13          6           0        1.364472   -2.906008   -0.257962
     14          6           0        3.804318   -2.654473    0.147733
     15          6           0        2.692052   -3.451456   -0.053834
     16          6           0       -1.094619   -1.320630   -0.268966
     17          6           0       -1.077357   -2.781178   -0.280923
     18          6           0        0.109465   -3.539560   -0.297915
     19          6           0       -2.355933   -0.632816    0.006873
     20          6           0       -2.329727   -3.483590   -0.181846
     21          6           0       -3.542793   -1.409563    0.211260
     22          6           0       -3.495128   -2.837720    0.053259
     23          6           0       -1.171212    2.255422   -0.882313
     24          6           0        0.409569    4.388955    0.114675
     25          6           0       -0.891338    4.603330   -0.286274
     26          6           0       -1.662047    3.560564   -0.842051
     27          6           0       -2.501469    0.753854    0.190316
     28          6           0       -3.658130    1.369705    0.589154
     29          6           0       -4.745119   -0.780369    0.595323
     30          6           0       -4.804881    0.582501    0.807346
     31          1           0        5.690531   -0.441849    0.704637
     32          1           0        4.762564   -3.131560    0.326117
     33          1           0        2.813989   -4.529548   -0.026511
     34          1           0        0.026886   -4.621660   -0.272839
     35          1           0        5.062005    1.892435    0.797483
     36          1           0        2.955751    3.758837    0.678834
     37          1           0        1.013329    5.219294    0.465141
     38          1           0       -1.306355    5.604346   -0.242878
     39          1           0       -2.624299    3.787646   -1.287022
     40          1           0       -3.700636    2.445861    0.717727
     41          1           0       -5.732075    1.050748    1.120739
     42          1           0       -5.627693   -1.394357    0.739362
     43          1           0       -4.419958   -3.394821    0.161070
     44          1           0       -2.311896   -4.565640   -0.257938
     45          1           0       -1.560795    1.575547   -1.628547
 ---------------------------------------------------------------------
                    Distance matrix (angstroms):
                    1          2          3          4          5
     1  C    0.000000
     2  C    1.417284   0.000000
     3  C    2.449411   1.405912   0.000000
     4  C    2.702699   2.357115   1.397202   0.000000
     5  C    2.432951   2.852202   2.519277   1.404012   0.000000
     6  C    1.454372   2.511733   2.898817   2.378132   1.391629
     7  C    3.897252   4.284553   3.687513   2.321738   1.489430
     8  C    4.094348   3.669994   2.444426   1.397891   2.291337
     9  C    4.631909   4.596504   3.595923   2.265286   2.307922
    10  C    3.852647   2.603208   1.452359   2.393036   3.751294
    11  C    5.080941   4.326169   2.933545   2.462859   3.614820
    12  C    4.921226   3.833003   2.487903   2.774717   4.157369
    13  C    6.014536   5.924315   4.826063   3.581177   3.675516
    14  C    6.391359   5.738905   4.361383   3.703009   4.612266
    15  C    6.756417   6.371910   5.089355   4.103733   4.625722
    16  C    4.894530   5.497517   5.031205   3.696138   2.688136
    17  C    6.237665   6.676562   5.992677   4.616166   3.900230
    18  C    6.698429   6.856348   5.918587   4.582300   4.280761
    19  C    5.014619   5.912164   5.771815   4.581221   3.324934
    20  C    7.373905   7.946000   7.358557   5.994724   5.154376
    21  C    6.398444   7.319126   7.166405   5.954769   4.743357
    22  C    7.441386   8.211384   7.840934   6.530933   5.481026
    23  C    2.509234   3.811399   4.327788   3.716529   2.481684
    24  C    1.430018   2.477076   3.761227   4.132321   3.716955
    25  C    2.448524   3.739198   4.896109   4.973689   4.201832
    26  C    2.850299   4.262836   5.126981   4.813955   3.730734
    27  C    4.214498   5.327488   5.521658   4.566035   3.212104
    28  C    4.998110   6.225006   6.621555   5.801185   4.470563
    29  C    6.951497   8.015092   8.068543   6.970474   5.688169
    30  C    6.371689   7.554322   7.843410   6.914900   5.589264
    31  H    5.904832   4.720708   3.456277   3.859569   5.241736
    32  H    7.273946   6.486776   5.086195   4.628740   5.640213
    33  H    7.831807   7.451579   6.159153   5.188014   5.660395
    34  H    7.779765   7.903269   6.914972   5.608002   5.364682
    35  H    4.296723   2.904162   2.192106   3.383130   4.675294
    36  H    2.157121   1.085653   2.176290   3.365028   3.935043
    37  H    2.169547   2.691076   4.091583   4.762174   4.591181
    38  H    3.427143   4.606833   5.853202   6.029068   5.285645
    39  H    3.929117   5.337292   6.181610   5.791394   4.623347
    40  H    4.794817   6.099723   6.717459   6.093826   4.815656
    41  H    7.118514   8.346347   8.743091   7.889266   6.569044
    42  H    8.034726   9.086528   9.105194   7.978420   6.721264
    43  H    8.454453   9.261772   8.916348   7.612781   6.553664
    44  H    8.348252   8.834203   8.139568   6.768913   6.056615
    45  H    3.418822   4.603906   4.896249   4.058695   2.745420
                    6          7          8          9         10
     6  C    0.000000
     7  C    2.678495   0.000000
     8  C    3.575906   2.309196   0.000000
     9  C    3.691946   1.417559   1.400004   0.000000
    10  C    4.332530   4.637319   2.737035   4.115802   0.000000
    11  C    4.815375   3.632741   1.374543   2.472791   2.476351
    12  C    5.077795   4.622518   2.366346   3.711099   1.382432
    13  C    5.046241   2.530549   2.426170   1.392697   5.080938
    14  C    5.933581   4.181719   2.363930   2.790843   3.868264
    15  C    6.015171   3.767621   2.724906   2.398811   4.922087
    16  C    3.537480   1.403117   3.590928   2.404941   5.996111
    17  C    4.926791   2.429752   4.075564   2.694512   6.720981
    18  C    5.530246   2.852964   3.651798   2.348193   6.355334
    19  C    3.645083   2.539558   4.804387   3.777937   6.917713
    20  C    6.011063   3.743880   5.508501   4.132419   8.130219
    21  C    5.050765   3.812048   6.034964   4.875823   8.263808
    22  C    6.062471   4.256504   6.303106   4.990091   8.778162
    23  C    1.441029   3.265562   4.756854   4.543793   5.760147
    24  C    2.460438   5.108322   5.521867   5.989313   5.075098
    25  C    2.813284   5.394491   6.300674   6.501186   6.285536
    26  C    2.442959   4.642537   5.989798   5.900964   6.575754
    27  C    2.975803   3.074910   5.176556   4.459902   6.826448
    28  C    3.972493   4.439208   6.496318   5.811856   7.965165
    29  C    5.704252   4.995748   7.226283   6.161456   9.255552
    30  C    5.280635   5.254891   7.427879   6.556865   9.131531
    31  H    6.146867   5.649801   3.360934   4.636121   2.126862
    32  H    6.928782   5.265898   3.360521   3.875552   4.322866
    33  H    7.052008   4.687033   3.810027   3.384995   5.909900
    34  H    6.613554   3.937010   4.577438   3.356909   7.238419
    35  H    5.051107   5.671342   3.821952   5.199947   1.085247
    36  H    3.479221   5.363667   4.595971   5.620473   2.929711
    37  H    3.444891   6.030319   6.155335   6.789121   5.224580
    38  H    3.897654   6.461090   7.370513   7.584074   7.198277
    39  H    3.429780   5.343809   6.895962   6.667837   7.629640
    40  H    4.023788   5.087938   6.972599   6.467231   8.109175
    41  H    6.137036   6.318374   8.462483   7.627138  10.053991
    42  H    6.784585   5.930840   8.145293   7.012581  10.257588
    43  H    7.080840   5.341490   7.366883   6.041966   9.849482
    44  H    7.002797   4.596014   6.107407   4.728426   8.786526
    45  H    2.164543   3.099084   4.866697   4.408601   6.264374
                   11         12         13         14         15
    11  C    0.000000
    12  C    1.449763   0.000000
    13  C    2.919903   4.348002   0.000000
    14  C    1.446096   2.648084   2.486103   0.000000
    15  C    2.467594   3.863707   1.449707   1.383093   0.000000
    16  C    4.820568   5.919390   2.925863   5.094346   4.350354
    17  C    5.053113   6.351987   2.445125   4.902097   3.835269
    18  C    4.308161   5.717335   1.406423   3.825431   2.595591
    19  C    6.091043   7.050699   4.367946   6.485031   5.781917
    20  C    6.457784   7.766240   3.739853   6.198594   5.023513
    21  C    7.251270   8.303731   5.151773   7.452106   6.566041
    22  C    7.382780   8.593989   4.870034   7.302357   6.218467
    23  C    6.073811   6.464757   5.784450   7.065689   6.941156
    24  C    6.498795   6.247560   7.366626   7.818906   8.167629
    25  C    7.426081   7.365305   7.840895   8.655244   8.818973
    26  C    7.251968   7.462785   7.163626   8.335916   8.291435
    27  C    6.510945   7.230586   5.342382   7.168086   6.687070
    28  C    7.814916   8.464197   6.650252   8.489817   7.998865
    29  C    8.472917   9.429280   6.524840   8.763873   7.928911
    30  C    8.721636   9.504326   7.166972   9.221247   8.556778
    31  H    2.197612   1.085279   5.070844   2.960346   4.315540
    32  H    2.197787   2.965367   3.455293   1.085204   2.129252
    33  H    3.440518   4.761056   2.188733   2.127679   1.085310
    34  H    5.034614   6.470548   2.175504   4.279684   2.918981
    35  H    3.447116   2.126222   6.149046   4.762176   5.907503
    36  H    5.053592   4.290352   6.915917   6.490969   7.252218
    37  H    6.978572   6.510764   8.164969   8.359819   8.846997
    38  H    8.470053   8.338365   8.919623   9.720064   9.901038
    39  H    8.194860   8.480208   7.859660   9.213389   9.065812
    40  H    8.279006   8.767701   7.433020   9.091899   8.731559
    41  H    9.752536  10.487129   8.241220  10.277071   9.623688
    42  H    9.353042  10.367101   7.222888   9.534188   8.606914
    43  H    8.413693   9.643839   5.820151   8.257543   7.115482
    44  H    6.901672   8.277057   4.033616   6.420685   5.130552
    45  H    6.221161   6.800172   5.524493   7.059226   6.770317
                   16         17         18         19         20
    16  C    0.000000
    17  C    1.460699   0.000000
    18  C    2.524739   1.408538   0.000000
    19  C    1.462904   2.516554   3.823643   0.000000
    20  C    2.492284   1.439316   2.442593   2.857134   0.000000
    21  C    2.496414   2.863904   4.258537   1.433090   2.434676
    22  C    2.857942   2.441412   3.689037   2.482241   1.352990
    23  C    3.629078   5.073245   5.963512   3.245941   5.896530
    24  C    5.916851   7.333366   7.944913   5.733917   8.340781
    25  C    5.927472   7.386853   8.204170   5.445016   8.214508
    26  C    4.947369   6.393310   7.337990   4.334349   7.106460
    27  C    2.548264   3.840132   5.048638   1.406302   4.257221
    28  C    3.813904   4.964600   6.251604   2.458629   5.090537
    29  C    3.790122   4.268902   5.654909   2.465006   3.707494
    30  C    4.306553   5.137422   6.508747   2.848701   4.861891
    31  H    6.910747   7.228284   6.461364   8.078919   8.623374
    32  H    6.159560   5.881832   4.712453   7.551069   7.119167
    33  H    5.062920   4.273651   2.892782   6.474081   5.251283
    34  H    3.486343   2.146344   1.085536   4.654776   2.618608
    35  H    7.026032   7.790853   7.431966   7.875770   9.192303
    36  H    6.565425   7.743313   7.894427   6.924748   9.007208
    37  H    6.910352   8.302718   8.838368   6.768244   9.345309
    38  H    6.928261   8.388737   9.253032   6.329785   9.145578
    39  H    5.428705   6.823101   7.882877   4.613748   7.360643
    40  H    4.685226   5.933029   7.167542   3.433918   6.151993
    41  H    5.390799   6.189888   7.563537   3.933627   5.816607
    42  H    4.644451   4.865163   6.212312   3.438153   4.011246
    43  H    3.942725   3.427083   4.554919   3.451470   2.120032
    44  H    3.465830   2.170004   2.630100   3.941975   1.084869
    45  H    3.233206   4.585941   5.542984   2.860718   5.317807
                   21         22         23         24         25
    21  C    0.000000
    22  C    1.437661   0.000000
    23  C    4.500268   5.675912   0.000000
    24  C    7.018070   8.214333   2.836339   0.000000
    25  C    6.590344   7.890769   2.438496   1.378070   0.000000
    26  C    5.417456   6.715639   1.394968   2.427581   1.410759
    27  C    2.401076   3.729014   2.274824   4.657663   4.199777
    28  C    2.807212   4.244547   3.022329   5.087944   4.344864
    29  C    1.410311   2.467591   4.916528   7.315992   6.679301
    30  C    2.432386   3.739253   4.342483   6.493025   5.716545
    31  H    9.296998   9.515294   7.541697   7.181454   8.352050
    32  H    8.482772   8.267422   8.104911   8.692032   9.600529
    33  H    7.085162   6.532504   7.915178   9.238012   9.859330
    34  H    4.826440   3.961485   7.007222   9.027059   9.270586
    35  H    9.235226   9.805751   6.465792   5.323908   6.630669
    36  H    8.316373   9.247689   4.661465   2.682977   4.055206
    37  H    8.047636   9.241824   3.920764   1.084811   2.138175
    38  H    7.375826   8.726219   3.412101   2.132936   1.084507
    39  H    5.486298   6.815436   2.150107   3.395686   2.161016
    40  H    3.891750   5.329163   2.999063   4.586183   3.681691
    41  H    3.416612   4.611250   5.124932   7.062265   6.167111
    42  H    2.150798   2.664933   5.984224   8.383643   7.710852
    43  H    2.170988   1.085032   6.600625   9.160440   8.753382
    44  H    3.419953   2.117213   6.943910   9.366429   9.278405
    45  H    4.027914   5.103630   1.082068   3.851808   3.378955
                   26         27         28         29         30
    26  C    0.000000
    27  C    3.106128   0.000000
    28  C    3.291285   1.369748   0.000000
    29  C    5.514987   2.748060   2.409233   0.000000
    30  C    4.633225   2.390773   1.407954   1.380558   0.000000
    31  H    8.513046   8.294763   9.523262  10.441711  10.545782
    32  H    9.350121   8.238996   9.551893   9.797786  10.274329
    33  H    9.281698   7.497696   8.778870   8.460682   9.212792
    34  H    8.374084   5.958460   7.086524   6.187185   7.183040
    35  H    7.119242   7.672754   8.738272  10.166830   9.953465
    36  H    4.865846   6.248986   7.032739   8.939506   8.386479
    37  H    3.408485   5.689419   6.054523   8.317008   7.447719
    38  H    2.159298   5.014302   4.914805   7.300155   6.209797
    39  H    1.084202   3.376612   3.230369   5.376603   4.406163
    40  H    2.798449   2.139872   1.084643   3.393300   2.167833
    41  H    5.168834   3.375003   2.164616   2.145491   1.084970
    42  H    6.540524   3.832693   3.397319   1.084742   2.142337
    43  H    7.549153   4.570882   4.844001   2.670143   4.047830
    44  H    8.173046   5.341712   6.144773   4.580055   5.818347
    45  H    2.137550   2.206425   3.059311   4.542671   4.176579
                   31         32         33         34         35
    31  H    0.000000
    32  H    2.870356   0.000000
    33  H    5.051569   2.423976   0.000000
    34  H    7.106557   5.000579   2.799483   0.000000
    35  H    2.419204   5.054936   6.853788   8.302496   0.000000
    36  H    5.012529   7.132079   8.319551   8.928419   2.816707
    37  H    7.347252   9.154936   9.925927   9.917765   5.250735
    38  H    9.295734  10.652304  10.941657  10.312596   7.444236
    39  H    9.538959  10.249067  10.016965   8.875459   8.186346
    40  H    9.825124  10.143310   9.573430   8.051428   8.780462
    41  H   11.527225  11.325218  10.270886   8.202677  10.831671
    42  H   11.358286  10.542584   9.037587   6.588953  11.183739
    43  H   10.546919   9.187778   7.324806   4.633339  10.875096
    44  H    9.053786   7.241940   5.131234   2.339500   9.858756
    45  H    7.880061   8.121726   7.679677   6.539423   7.060278
                   36         37         38         39         40
    36  H    0.000000
    37  H    2.439591   0.000000
    38  H    4.735082   2.455706   0.000000
    39  H    5.916281   4.283927   2.475401   0.000000
    40  H    6.784755   5.475143   4.078158   2.641573   0.000000
    41  H    9.110837   7.956573   6.494744   4.790219   2.497099
    42  H   10.011722   9.376500   8.283755   6.322955   4.296660
    43  H   10.288051  10.189016   9.531144   7.543818   5.911079
    44  H    9.895583  10.359773  10.219587   8.422232   7.213991
    45  H    5.521771   4.928137   4.268025   2.478117   3.292623
                   41         42         43         44         45
    41  H    0.000000
    42  H    2.476869   0.000000
    43  H    4.733466   2.407260   0.000000
    44  H    6.718794   4.695333   2.447511   0.000000
    45  H    5.023302   5.564798   6.006838   6.336947   0.000000
 Stoichiometry    C30H15(2)
 Framework group  C1[X(C30H15)]
 Deg. of freedom   129
 Full point group                 C1      NOp   1
 Largest Abelian subgroup         C1      NOp   1
 Largest concise Abelian subgroup C1      NOp   1
                         Standard orientation:                         
 ---------------------------------------------------------------------
 Center     Atomic      Atomic             Coordinates (Angstroms)
 Number     Number       Type             X           Y           Z
 ---------------------------------------------------------------------
      1          6           0       -1.003661    3.089769   -0.050454
      2          6           0       -2.372087    2.898555   -0.365957
      3          6           0       -2.951083    1.620812   -0.272547
      4          6           0       -2.055040    0.602525    0.062669
      5          6           0       -0.673714    0.703848    0.292718
      6          6           0       -0.147640    1.990138    0.365768
      7          6           0       -0.152456   -0.688277    0.385890
      8          6           0       -2.445639   -0.738499    0.119104
      9          6           0       -1.301487   -1.516707    0.331987
     10          6           0       -4.304129    1.161928   -0.533389
     11          6           0       -3.705598   -1.211803   -0.159925
     12          6           0       -4.663789   -0.171809   -0.479449
     13          6           0       -1.364471   -2.906008    0.257962
     14          6           0       -3.804317   -2.654474   -0.147733
     15          6           0       -2.692051   -3.451457    0.053834
     16          6           0        1.094619   -1.320630    0.268966
     17          6           0        1.077358   -2.781178    0.280923
     18          6           0       -0.109464   -3.539560    0.297915
     19          6           0        2.355933   -0.632815   -0.006873
     20          6           0        2.329728   -3.483589    0.181846
     21          6           0        3.542793   -1.409562   -0.211260
     22          6           0        3.495129   -2.837719   -0.053259
     23          6           0        1.171212    2.255422    0.882313
     24          6           0       -0.409570    4.388955   -0.114675
     25          6           0        0.891337    4.603330    0.286274
     26          6           0        1.662046    3.560564    0.842051
     27          6           0        2.501469    0.753855   -0.190316
     28          6           0        3.658130    1.369706   -0.589154
     29          6           0        4.745119   -0.780368   -0.595323
     30          6           0        4.804881    0.582502   -0.807346
     31          1           0       -5.690531   -0.441850   -0.704637
     32          1           0       -4.762563   -3.131561   -0.326117
     33          1           0       -2.813988   -4.529549    0.026511
     34          1           0       -0.026885   -4.621660    0.272839
     35          1           0       -5.062005    1.892434   -0.797483
     36          1           0       -2.955752    3.758836   -0.678834
     37          1           0       -1.013330    5.219294   -0.465141
     38          1           0        1.306354    5.604346    0.242878
     39          1           0        2.624298    3.787647    1.287022
     40          1           0        3.700636    2.445862   -0.717727
     41          1           0        5.732075    1.050749   -1.120739
     42          1           0        5.627693   -1.394356   -0.739362
     43          1           0        4.419959   -3.394820   -0.161070
     44          1           0        2.311897   -4.565639    0.257938
     45          1           0        1.560795    1.575547    1.628547
 ---------------------------------------------------------------------
 Rotational constants (GHZ):           0.2262061           0.1777016           0.1021104
 Standard basis: 6-311+G(d,p) (5D, 7F)
 There are   780 symmetry adapted cartesian basis functions of A   symmetry.
 There are   750 symmetry adapted basis functions of A   symmetry.
   750 basis functions,  1200 primitive gaussians,   780 cartesian basis functions
    98 alpha electrons       97 beta electrons
       nuclear repulsion energy      2582.1948816938 Hartrees.
 NAtoms=   45 NActive=   45 NUniq=   45 SFac= 1.00D+00 NAtFMM=   60 NAOKFM=F Big=F
 Integral buffers will be    131072 words long.
 Raffenetti 2 integral format.
 Two-electron integral symmetry is turned on.
 One-electron integrals computed using PRISM.
 NBasis=   750 RedAO= T EigKep=  1.01D-06  NBF=   750
 NBsUse=   729 1.00D-06 EigRej=  6.74D-07 NBFU=   729
 ExpMin= 4.38D-02 ExpMax= 4.56D+03 ExpMxC= 6.82D+02 IAcc=2 IRadAn=         4 AccDes= 0.00D+00
 Harris functional with IExCor=  402 and IRadAn=       4 diagonalized for initial guess.
 HarFok:  IExCor=  402 AccDes= 0.00D+00 IRadAn=         4 IDoV= 1 UseB2=F ITyADJ=14
 ICtDFT=  3500011 ScaDFX=  1.000000  1.000000  1.000000  1.000000
 FoFCou: FMM=F IPFlag=           0 FMFlag=      100000 FMFlg1=           0
         NFxFlg=           0 DoJE=T BraDBF=F KetDBF=T FulRan=T
         wScrn=  0.000000 ICntrl=       500 IOpCl=  0 I1Cent=   200000004 NGrid=           0
         NMat0=    1 NMatS0=      1 NMatT0=    0 NMatD0=    1 NMtDS0=    0 NMtDT0=    0
 Petite list used in FoFCou.
 Initial guess <Sx>= 0.0000 <Sy>= 0.0000 <Sz>= 0.5000 <S**2>= 0.7500 S= 0.5000
 Requested convergence on RMS density matrix=1.00D-08 within 128 cycles.
 Requested convergence on MAX density matrix=1.00D-06.
 Requested convergence on             energy=1.00D-06.
 No special actions if energy rises.
 Restarting incremental Fock formation.
 SCF Done:  E(UB3LYP) =  -1152.43595063     A.U. after   24 cycles
            NFock= 24  Conv=0.46D-08     -V/T= 2.0045
 <Sx>= 0.0000 <Sy>= 0.0000 <Sz>= 0.5000 <S**2>= 0.7996 S= 0.5245
 <L.S>=  0.00000000000    
 Annihilation of the first spin contaminant:
 S**2 before annihilation     0.7996,   after     0.7513
 DoSCS=F DFT=T ScalE2(SS,OS)=  1.000000  1.000000
 Range of M.O.s used for correlation:     1   729
 NBasis=   750 NAE=    98 NBE=    97 NFC=     0 NFV=     0
 NROrb=    729 NOA=    98 NOB=    97 NVA=   631 NVB=   632

 **** Warning!!: The largest alpha MO coefficient is  0.15059342D+03


 **** Warning!!: The smallest alpha delta epsilon is  0.90815214D-01


 **** Warning!!: The largest beta MO coefficient is  0.15652105D+03

 Symmetrizing basis deriv contribution to polar:
 IMax=3 JMax=2 DiffMx= 0.00D+00
 G2DrvN: will do    46 centers at a time, making    1 passes.
 Calling FoFCou, ICntrl=  3107 FMM=F I1Cent=   0 AccDes= 0.00D+00.
 End of G2Drv F.D. properties file   721 does not exist.
 End of G2Drv F.D. properties file   722 does not exist.
 End of G2Drv F.D. properties file   788 does not exist.
          IDoAtm=111111111111111111111111111111111111111111111
          Differentiating once with respect to nuclear coordinates.
 CalDSu exits because no D1Ps are significant.
          There are   138 degrees of freedom in the 1st order CPHF.  IDoFFX=6 NUNeed=     0.
    132 vectors produced by pass  0 Test12= 1.23D-13 1.00D-09 XBig12= 5.70D-01 1.43D-01.
 AX will form   132 AO Fock derivatives at one time.
    132 vectors produced by pass  1 Test12= 1.23D-13 1.00D-09 XBig12= 1.02D-01 4.48D-02.
    132 vectors produced by pass  2 Test12= 1.23D-13 1.00D-09 XBig12= 2.03D-03 6.73D-03.
    132 vectors produced by pass  3 Test12= 1.23D-13 1.00D-09 XBig12= 2.68D-05 8.12D-04.
    132 vectors produced by pass  4 Test12= 1.23D-13 1.00D-09 XBig12= 2.59D-07 4.41D-05.
    132 vectors produced by pass  5 Test12= 1.23D-13 1.00D-09 XBig12= 1.74D-09 2.74D-06.
    123 vectors produced by pass  6 Test12= 1.23D-13 1.00D-09 XBig12= 9.95D-12 1.75D-07.
     57 vectors produced by pass  7 Test12= 1.23D-13 1.00D-09 XBig12= 7.24D-14 1.10D-08.
     33 vectors produced by pass  8 Test12= 1.23D-13 1.00D-09 XBig12= 6.98D-15 6.65D-09.
     33 vectors produced by pass  9 Test12= 1.23D-13 1.00D-09 XBig12= 6.06D-14 1.68D-08.
     33 vectors produced by pass 10 Test12= 1.23D-13 1.00D-09 XBig12= 3.97D-12 1.07D-07.
     20 vectors produced by pass 11 Test12= 1.23D-13 1.00D-09 XBig12= 2.10D-12 6.45D-08.
     15 vectors produced by pass 12 Test12= 1.23D-13 1.00D-09 XBig12= 1.06D-12 5.41D-08.
      6 vectors produced by pass 13 Test12= 1.23D-13 1.00D-09 XBig12= 1.01D-13 1.37D-08.
      6 vectors produced by pass 14 Test12= 1.23D-13 1.00D-09 XBig12= 3.16D-13 2.82D-08.
      6 vectors produced by pass 15 Test12= 1.23D-13 1.00D-09 XBig12= 2.41D-13 2.51D-08.
      6 vectors produced by pass 16 Test12= 1.23D-13 1.00D-09 XBig12= 3.13D-13 3.14D-08.
      6 vectors produced by pass 17 Test12= 1.23D-13 1.00D-09 XBig12= 4.29D-13 3.55D-08.
      6 vectors produced by pass 18 Test12= 1.23D-13 1.00D-09 XBig12= 2.01D-13 2.17D-08.
      6 vectors produced by pass 19 Test12= 1.23D-13 1.00D-09 XBig12= 4.41D-13 3.00D-08.
      6 vectors produced by pass 20 Test12= 1.23D-13 1.00D-09 XBig12= 2.21D-13 2.01D-08.
      4 vectors produced by pass 21 Test12= 1.23D-13 1.00D-09 XBig12= 1.04D-13 1.44D-08.
      4 vectors produced by pass 22 Test12= 1.23D-13 1.00D-09 XBig12= 3.20D-13 2.32D-08.
      4 vectors produced by pass 23 Test12= 1.23D-13 1.00D-09 XBig12= 2.26D-13 1.79D-08.
      4 vectors produced by pass 24 Test12= 1.23D-13 1.00D-09 XBig12= 3.77D-13 3.11D-08.
      4 vectors produced by pass 25 Test12= 1.23D-13 1.00D-09 XBig12= 2.83D-13 2.39D-08.
      4 vectors produced by pass 26 Test12= 1.23D-13 1.00D-09 XBig12= 4.18D-13 3.18D-08.
      4 vectors produced by pass 27 Test12= 1.23D-13 1.00D-09 XBig12= 1.40D-13 1.69D-08.
      4 vectors produced by pass 28 Test12= 1.23D-13 1.00D-09 XBig12= 4.76D-13 3.81D-08.
      4 vectors produced by pass 29 Test12= 1.23D-13 1.00D-09 XBig12= 1.64D-13 1.77D-08.
      4 vectors produced by pass 30 Test12= 1.23D-13 1.00D-09 XBig12= 4.33D-13 2.89D-08.
      4 vectors produced by pass 31 Test12= 1.23D-13 1.00D-09 XBig12= 2.00D-13 2.04D-08.
      4 vectors produced by pass 32 Test12= 1.23D-13 1.00D-09 XBig12= 4.73D-13 3.02D-08.
      4 vectors produced by pass 33 Test12= 1.23D-13 1.00D-09 XBig12= 2.85D-13 2.65D-08.
      4 vectors produced by pass 34 Test12= 1.23D-13 1.00D-09 XBig12= 2.26D-13 2.28D-08.
      4 vectors produced by pass 35 Test12= 1.23D-13 1.00D-09 XBig12= 2.21D-13 2.01D-08.
      4 vectors produced by pass 36 Test12= 1.23D-13 1.00D-09 XBig12= 2.81D-13 2.45D-08.
      4 vectors produced by pass 37 Test12= 1.23D-13 1.00D-09 XBig12= 4.00D-13 3.24D-08.
      4 vectors produced by pass 38 Test12= 1.23D-13 1.00D-09 XBig12= 1.82D-13 2.25D-08.
      4 vectors produced by pass 39 Test12= 1.23D-13 1.00D-09 XBig12= 1.98D-13 1.80D-08.
      4 vectors produced by pass 40 Test12= 1.23D-13 1.00D-09 XBig12= 3.36D-13 2.66D-08.
      4 vectors produced by pass 41 Test12= 1.23D-13 1.00D-09 XBig12= 1.97D-13 1.99D-08.
      4 vectors produced by pass 42 Test12= 1.23D-13 1.00D-09 XBig12= 2.19D-13 1.96D-08.
      4 vectors produced by pass 43 Test12= 1.23D-13 1.00D-09 XBig12= 3.89D-13 2.98D-08.
      3 vectors produced by pass 44 Test12= 1.23D-13 1.00D-09 XBig12= 1.59D-13 1.70D-08.
      3 vectors produced by pass 45 Test12= 1.23D-13 1.00D-09 XBig12= 2.42D-13 1.95D-08.
      3 vectors produced by pass 46 Test12= 1.23D-13 1.00D-09 XBig12= 4.78D-13 2.85D-08.
      3 vectors produced by pass 47 Test12= 1.23D-13 1.00D-09 XBig12= 1.96D-13 2.01D-08.
      3 vectors produced by pass 48 Test12= 1.23D-13 1.00D-09 XBig12= 3.20D-13 3.02D-08.
      3 vectors produced by pass 49 Test12= 1.23D-13 1.00D-09 XBig12= 1.72D-13 2.08D-08.
      3 vectors produced by pass 50 Test12= 1.23D-13 1.00D-09 XBig12= 2.28D-13 2.26D-08.
      3 vectors produced by pass 51 Test12= 1.23D-13 1.00D-09 XBig12= 3.17D-13 2.25D-08.
      1 vectors produced by pass 52 Test12= 1.23D-13 1.00D-09 XBig12= 1.39D-13 1.46D-08.
 InvSVY:  IOpt=1 It=  1 EMax= 9.99D-16
 Solved reduced A of dimension  1271 with   138 vectors.
 End of Minotr F.D. properties file   721 does not exist.
 End of Minotr F.D. properties file   722 does not exist.
 End of Minotr F.D. properties file   788 does not exist.

 **********************************************************************

            Population analysis using the SCF density.

 **********************************************************************

 Orbital symmetries:
 Alpha Orbitals:
       Occupied  (A) (A) (A) (A) (A) (A) (A) (A) (A) (A) (A) (A)
                 (A) (A) (A) (A) (A) (A) (A) (A) (A) (A) (A) (A)
                 (A) (A) (A) (A) (A) (A) (A) (A) (A) (A) (A) (A)
                 (A) (A) (A) (A) (A) (A) (A) (A) (A) (A) (A) (A)
                 (A) (A) (A) (A) (A) (A) (A) (A) (A) (A) (A) (A)
                 (A) (A) (A) (A) (A) (A) (A) (A) (A) (A) (A) (A)
                 (A) (A) (A) (A) (A) (A) (A) (A) (A) (A) (A) (A)
                 (A) (A) (A) (A) (A) (A) (A) (A) (A) (A) (A) (A)
                 (A) (A)
       Virtual   (A) (A) (A) (A) (A) (A) (A) (A) (A) (A) (A) (A)
                 (A) (A) (A) (A) (A) (A) (A) (A) (A) (A) (A) (A)
                 (A) (A) (A) (A) (A) (A) (A) (A) (A) (A) (A) (A)
                 (A) (A) (A) (A) (A) (A) (A) (A) (A) (A) (A) (A)
                 (A) (A) (A) (A) (A) (A) (A) (A) (A) (A) (A) (A)
                 (A) (A) (A) (A) (A) (A) (A) (A) (A) (A) (A) (A)
                 (A) (A) (A) (A) (A) (A) (A) (A) (A) (A) (A) (A)
                 (A) (A) (A) (A) (A) (A) (A) (A) (A) (A) (A) (A)
                 (A) (A) (A) (A) (A) (A) (A) (A) (A) (A) (A) (A)
                 (A) (A) (A) (A) (A) (A) (A) (A) (A) (A) (A) (A)
                 (A) (A) (A) (A) (A) (A) (A) (A) (A) (A) (A) (A)
                 (A) (A) (A) (A) (A) (A) (A) (A) (A) (A) (A) (A)
                 (A) (A) (A) (A) (A) (A) (A) (A) (A) (A) (A) (A)
                 (A) (A) (A) (A) (A) (A) (A) (A) (A) (A) (A) (A)
                 (A) (A) (A) (A) (A) (A) (A) (A) (A) (A) (A) (A)
                 (A) (A) (A) (A) (A) (A) (A) (A) (A) (A) (A) (A)
                 (A) (A) (A) (A) (A) (A) (A) (A) (A) (A) (A) (A)
                 (A) (A) (A) (A) (A) (A) (A) (A) (A) (A) (A) (A)
                 (A) (A) (A) (A) (A) (A) (A) (A) (A) (A) (A) (A)
                 (A) (A) (A) (A) (A) (A) (A) (A) (A) (A) (A) (A)
                 (A) (A) (A) (A) (A) (A) (A) (A) (A) (A) (A) (A)
                 (A) (A) (A) (A) (A) (A) (A) (A) (A) (A) (A) (A)
                 (A) (A) (A) (A) (A) (A) (A) (A) (A) (A) (A) (A)
                 (A) (A) (A) (A) (A) (A) (A) (A) (A) (A) (A) (A)
                 (A) (A) (A) (A) (A) (A) (A) (A) (A) (A) (A) (A)
                 (A) (A) (A) (A) (A) (A) (A) (A) (A) (A) (A) (A)
                 (A) (A) (A) (A) (A) (A) (A) (A) (A) (A) (A) (A)
                 (A) (A) (A) (A) (A) (A) (A) (A) (A) (A) (A) (A)
                 (A) (A) (A) (A) (A) (A) (A) (A) (A) (A) (A) (A)
                 (A) (A) (A) (A) (A) (A) (A) (A) (A) (A) (A) (A)
                 (A) (A) (A) (A) (A) (A) (A) (A) (A) (A) (A) (A)
                 (A) (A) (A) (A) (A) (A) (A) (A) (A) (A) (A) (A)
                 (A) (A) (A) (A) (A) (A) (A) (A) (A) (A) (A) (A)
                 (A) (A) (A) (A) (A) (A) (A) (A) (A) (A) (A) (A)
                 (A) (A) (A) (A) (A) (A) (A) (A) (A) (A) (A) (A)
                 (A) (A) (A) (A) (A) (A) (A) (A) (A) (A) (A) (A)
                 (A) (A) (A) (A) (A) (A) (A) (A) (A) (A) (A) (A)
                 (A) (A) (A) (A) (A) (A) (A) (A) (A) (A) (A) (A)
                 (A) (A) (A) (A) (A) (A) (A) (A) (A) (A) (A) (A)
                 (A) (A) (A) (A) (A) (A) (A) (A) (A) (A) (A) (A)
                 (A) (A) (A) (A) (A) (A) (A) (A) (A) (A) (A) (A)
                 (A) (A) (A) (A) (A) (A) (A) (A) (A) (A) (A) (A)
                 (A) (A) (A) (A) (A) (A) (A) (A) (A) (A) (A) (A)
                 (A) (A) (A) (A) (A) (A) (A) (A) (A) (A) (A) (A)
                 (A) (A) (A) (A) (A) (A) (A) (A) (A) (A) (A) (A)
                 (A) (A) (A) (A) (A) (A) (A) (A) (A) (A) (A) (A)
                 (A) (A) (A) (A) (A) (A) (A) (A) (A) (A) (A) (A)
                 (A) (A) (A) (A) (A) (A) (A) (A) (A) (A) (A) (A)
                 (A) (A) (A) (A) (A) (A) (A) (A) (A) (A) (A) (A)
                 (A) (A) (A) (A) (A) (A) (A) (A) (A) (A) (A) (A)
                 (A) (A) (A) (A) (A) (A) (A) (A) (A) (A) (A) (A)
                 (A) (A) (A) (A) (A) (A) (A) (A) (A) (A) (A) (A)
                 (A) (A) (A) (A) (A) (A) (A)
 Beta  Orbitals:
       Occupied  (A) (A) (A) (A) (A) (A) (A) (A) (A) (A) (A) (A)
                 (A) (A) (A) (A) (A) (A) (A) (A) (A) (A) (A) (A)
                 (A) (A) (A) (A) (A) (A) (A) (A) (A) (A) (A) (A)
                 (A) (A) (A) (A) (A) (A) (A) (A) (A) (A) (A) (A)
                 (A) (A) (A) (A) (A) (A) (A) (A) (A) (A) (A) (A)
                 (A) (A) (A) (A) (A) (A) (A) (A) (A) (A) (A) (A)
                 (A) (A) (A) (A) (A) (A) (A) (A) (A) (A) (A) (A)
                 (A) (A) (A) (A) (A) (A) (A) (A) (A) (A) (A) (A)
                 (A)
       Virtual   (A) (A) (A) (A) (A) (A) (A) (A) (A) (A) (A) (A)
                 (A) (A) (A) (A) (A) (A) (A) (A) (A) (A) (A) (A)
                 (A) (A) (A) (A) (A) (A) (A) (A) (A) (A) (A) (A)
                 (A) (A) (A) (A) (A) (A) (A) (A) (A) (A) (A) (A)
                 (A) (A) (A) (A) (A) (A) (A) (A) (A) (A) (A) (A)
                 (A) (A) (A) (A) (A) (A) (A) (A) (A) (A) (A) (A)
                 (A) (A) (A) (A) (A) (A) (A) (A) (A) (A) (A) (A)
                 (A) (A) (A) (A) (A) (A) (A) (A) (A) (A) (A) (A)
                 (A) (A) (A) (A) (A) (A) (A) (A) (A) (A) (A) (A)
                 (A) (A) (A) (A) (A) (A) (A) (A) (A) (A) (A) (A)
                 (A) (A) (A) (A) (A) (A) (A) (A) (A) (A) (A) (A)
                 (A) (A) (A) (A) (A) (A) (A) (A) (A) (A) (A) (A)
                 (A) (A) (A) (A) (A) (A) (A) (A) (A) (A) (A) (A)
                 (A) (A) (A) (A) (A) (A) (A) (A) (A) (A) (A) (A)
                 (A) (A) (A) (A) (A) (A) (A) (A) (A) (A) (A) (A)
                 (A) (A) (A) (A) (A) (A) (A) (A) (A) (A) (A) (A)
                 (A) (A) (A) (A) (A) (A) (A) (A) (A) (A) (A) (A)
                 (A) (A) (A) (A) (A) (A) (A) (A) (A) (A) (A) (A)
                 (A) (A) (A) (A) (A) (A) (A) (A) (A) (A) (A) (A)
                 (A) (A) (A) (A) (A) (A) (A) (A) (A) (A) (A) (A)
                 (A) (A) (A) (A) (A) (A) (A) (A) (A) (A) (A) (A)
                 (A) (A) (A) (A) (A) (A) (A) (A) (A) (A) (A) (A)
                 (A) (A) (A) (A) (A) (A) (A) (A) (A) (A) (A) (A)
                 (A) (A) (A) (A) (A) (A) (A) (A) (A) (A) (A) (A)
                 (A) (A) (A) (A) (A) (A) (A) (A) (A) (A) (A) (A)
                 (A) (A) (A) (A) (A) (A) (A) (A) (A) (A) (A) (A)
                 (A) (A) (A) (A) (A) (A) (A) (A) (A) (A) (A) (A)
                 (A) (A) (A) (A) (A) (A) (A) (A) (A) (A) (A) (A)
                 (A) (A) (A) (A) (A) (A) (A) (A) (A) (A) (A) (A)
                 (A) (A) (A) (A) (A) (A) (A) (A) (A) (A) (A) (A)
                 (A) (A) (A) (A) (A) (A) (A) (A) (A) (A) (A) (A)
                 (A) (A) (A) (A) (A) (A) (A) (A) (A) (A) (A) (A)
                 (A) (A) (A) (A) (A) (A) (A) (A) (A) (A) (A) (A)
                 (A) (A) (A) (A) (A) (A) (A) (A) (A) (A) (A) (A)
                 (A) (A) (A) (A) (A) (A) (A) (A) (A) (A) (A) (A)
                 (A) (A) (A) (A) (A) (A) (A) (A) (A) (A) (A) (A)
                 (A) (A) (A) (A) (A) (A) (A) (A) (A) (A) (A) (A)
                 (A) (A) (A) (A) (A) (A) (A) (A) (A) (A) (A) (A)
                 (A) (A) (A) (A) (A) (A) (A) (A) (A) (A) (A) (A)
                 (A) (A) (A) (A) (A) (A) (A) (A) (A) (A) (A) (A)
                 (A) (A) (A) (A) (A) (A) (A) (A) (A) (A) (A) (A)
                 (A) (A) (A) (A) (A) (A) (A) (A) (A) (A) (A) (A)
                 (A) (A) (A) (A) (A) (A) (A) (A) (A) (A) (A) (A)
                 (A) (A) (A) (A) (A) (A) (A) (A) (A) (A) (A) (A)
                 (A) (A) (A) (A) (A) (A) (A) (A) (A) (A) (A) (A)
                 (A) (A) (A) (A) (A) (A) (A) (A) (A) (A) (A) (A)
                 (A) (A) (A) (A) (A) (A) (A) (A) (A) (A) (A) (A)
                 (A) (A) (A) (A) (A) (A) (A) (A) (A) (A) (A) (A)
                 (A) (A) (A) (A) (A) (A) (A) (A) (A) (A) (A) (A)
                 (A) (A) (A) (A) (A) (A) (A) (A) (A) (A) (A) (A)
                 (A) (A) (A) (A) (A) (A) (A) (A) (A) (A) (A) (A)
                 (A) (A) (A) (A) (A) (A) (A) (A) (A) (A) (A) (A)
                 (A) (A) (A) (A) (A) (A) (A) (A)
 The electronic state is 2-A.
 Alpha  occ. eigenvalues --  -10.20650 -10.19948 -10.19892 -10.19841 -10.19792
 Alpha  occ. eigenvalues --  -10.19767 -10.19640 -10.19491 -10.19387 -10.19322
 Alpha  occ. eigenvalues --  -10.19274 -10.19260 -10.19230 -10.19214 -10.19142
 Alpha  occ. eigenvalues --  -10.19140 -10.19112 -10.18973 -10.18805 -10.18669
 Alpha  occ. eigenvalues --  -10.18655 -10.18390 -10.18358 -10.18262 -10.18087
 Alpha  occ. eigenvalues --  -10.17906 -10.17849 -10.16966 -10.16920 -10.16668
 Alpha  occ. eigenvalues --   -0.92139  -0.88793  -0.87885  -0.85599  -0.83966
 Alpha  occ. eigenvalues --   -0.83161  -0.80549  -0.79349  -0.77971  -0.77417
 Alpha  occ. eigenvalues --   -0.75375  -0.74570  -0.72708  -0.71547  -0.71411
 Alpha  occ. eigenvalues --   -0.66767  -0.64950  -0.63997  -0.63268  -0.62176
 Alpha  occ. eigenvalues --   -0.60061  -0.59452  -0.58966  -0.56529  -0.55754
 Alpha  occ. eigenvalues --   -0.53148  -0.52325  -0.51399  -0.50850  -0.49841
 Alpha  occ. eigenvalues --   -0.48978  -0.47867  -0.47578  -0.46019  -0.45372
 Alpha  occ. eigenvalues --   -0.44860  -0.44286  -0.44115  -0.43400  -0.43084
 Alpha  occ. eigenvalues --   -0.42578  -0.41886  -0.40839  -0.40713  -0.40597
 Alpha  occ. eigenvalues --   -0.40225  -0.39918  -0.39308  -0.38518  -0.37162
 Alpha  occ. eigenvalues --   -0.36908  -0.35881  -0.35229  -0.34995  -0.34273
 Alpha  occ. eigenvalues --   -0.33790  -0.33541  -0.33104  -0.31472  -0.30027
 Alpha  occ. eigenvalues --   -0.28901  -0.28278  -0.26043  -0.24777  -0.23106
 Alpha  occ. eigenvalues --   -0.22276  -0.21080  -0.19052
 Alpha virt. eigenvalues --   -0.09971  -0.05554  -0.05030  -0.03099  -0.01586
 Alpha virt. eigenvalues --   -0.00099   0.00112   0.00464   0.00564   0.00663
 Alpha virt. eigenvalues --    0.01433   0.01613   0.01659   0.02505   0.02785
 Alpha virt. eigenvalues --    0.03096   0.03604   0.03854   0.04101   0.04592
 Alpha virt. eigenvalues --    0.04722   0.05056   0.05474   0.05846   0.06142
 Alpha virt. eigenvalues --    0.06605   0.06816   0.07144   0.07307   0.07699
 Alpha virt. eigenvalues --    0.08146   0.08685   0.08924   0.09318   0.09426
 Alpha virt. eigenvalues --    0.09800   0.10165   0.10352   0.10650   0.11160
 Alpha virt. eigenvalues --    0.11630   0.11858   0.12187   0.12581   0.12688
 Alpha virt. eigenvalues --    0.13253   0.13432   0.13887   0.14370   0.14653
 Alpha virt. eigenvalues --    0.14807   0.15039   0.15341   0.15603   0.15809
 Alpha virt. eigenvalues --    0.16076   0.16401   0.16491   0.16754   0.16886
 Alpha virt. eigenvalues --    0.17105   0.17343   0.17679   0.17763   0.18141
 Alpha virt. eigenvalues --    0.18436   0.18681   0.18835   0.19155   0.19325
 Alpha virt. eigenvalues --    0.19468   0.19544   0.19731   0.19863   0.20085
 Alpha virt. eigenvalues --    0.20254   0.20652   0.20865   0.21000   0.21330
 Alpha virt. eigenvalues --    0.21392   0.21595   0.21961   0.22126   0.22335
 Alpha virt. eigenvalues --    0.22407   0.22821   0.23030   0.23169   0.23333
 Alpha virt. eigenvalues --    0.23558   0.24063   0.24118   0.24454   0.24573
 Alpha virt. eigenvalues --    0.24936   0.25153   0.25348   0.25680   0.25789
 Alpha virt. eigenvalues --    0.26109   0.26239   0.26542   0.26814   0.26948
 Alpha virt. eigenvalues --    0.27141   0.27601   0.28025   0.28111   0.28403
 Alpha virt. eigenvalues --    0.28582   0.28747   0.29167   0.29330   0.29444
 Alpha virt. eigenvalues --    0.29674   0.30040   0.30456   0.30830   0.31014
 Alpha virt. eigenvalues --    0.31148   0.31540   0.31839   0.32042   0.32263
 Alpha virt. eigenvalues --    0.33132   0.33349   0.33859   0.34040   0.34411
 Alpha virt. eigenvalues --    0.34776   0.35069   0.35438   0.35794   0.36416
 Alpha virt. eigenvalues --    0.36798   0.36968   0.37254   0.38081   0.38998
 Alpha virt. eigenvalues --    0.39274   0.39695   0.39875   0.40305   0.41143
 Alpha virt. eigenvalues --    0.41275   0.42087   0.42134   0.43040   0.43480
 Alpha virt. eigenvalues --    0.44273   0.44757   0.45434   0.46225   0.47134
 Alpha virt. eigenvalues --    0.47546   0.48060   0.49064   0.50225   0.50693
 Alpha virt. eigenvalues --    0.51124   0.51559   0.51875   0.52391   0.53010
 Alpha virt. eigenvalues --    0.53493   0.53604   0.53846   0.54267   0.54593
 Alpha virt. eigenvalues --    0.54941   0.55270   0.55554   0.56145   0.56414
 Alpha virt. eigenvalues --    0.56901   0.57041   0.57362   0.58134   0.58504
 Alpha virt. eigenvalues --    0.58855   0.59007   0.59531   0.59861   0.60131
 Alpha virt. eigenvalues --    0.60223   0.60751   0.60932   0.61258   0.62178
 Alpha virt. eigenvalues --    0.62481   0.62992   0.63602   0.63759   0.64670
 Alpha virt. eigenvalues --    0.65063   0.65216   0.65540   0.66400   0.66571
 Alpha virt. eigenvalues --    0.67054   0.67391   0.67644   0.68243   0.68634
 Alpha virt. eigenvalues --    0.68879   0.69246   0.69694   0.69775   0.69988
 Alpha virt. eigenvalues --    0.70390   0.71048   0.71418   0.71496   0.71967
 Alpha virt. eigenvalues --    0.72258   0.72544   0.73216   0.73520   0.73770
 Alpha virt. eigenvalues --    0.74093   0.74472   0.74815   0.75008   0.75361
 Alpha virt. eigenvalues --    0.76148   0.76353   0.76580   0.76811   0.77534
 Alpha virt. eigenvalues --    0.78300   0.78652   0.79346   0.79877   0.80915
 Alpha virt. eigenvalues --    0.81764   0.82453   0.83097   0.84121   0.84268
 Alpha virt. eigenvalues --    0.84661   0.85007   0.85259   0.86476   0.87120
 Alpha virt. eigenvalues --    0.87730   0.87972   0.88729   0.89306   0.89465
 Alpha virt. eigenvalues --    0.90088   0.90499   0.90745   0.91104   0.91648
 Alpha virt. eigenvalues --    0.92140   0.92577   0.93207   0.93750   0.93916
 Alpha virt. eigenvalues --    0.94244   0.95136   0.95330   0.95521   0.95921
 Alpha virt. eigenvalues --    0.96265   0.96434   0.96996   0.97388   0.97465
 Alpha virt. eigenvalues --    0.98058   0.98270   0.99220   0.99998   1.00732
 Alpha virt. eigenvalues --    1.00905   1.01363   1.01995   1.02351   1.02687
 Alpha virt. eigenvalues --    1.03473   1.03948   1.04587   1.05268   1.05691
 Alpha virt. eigenvalues --    1.05962   1.06674   1.07020   1.07416   1.08043
 Alpha virt. eigenvalues --    1.08657   1.08793   1.09986   1.10818   1.11418
 Alpha virt. eigenvalues --    1.12272   1.12910   1.13803   1.14244   1.15272
 Alpha virt. eigenvalues --    1.16419   1.16817   1.17225   1.17317   1.19609
 Alpha virt. eigenvalues --    1.20367   1.21478   1.22645   1.23835   1.25158
 Alpha virt. eigenvalues --    1.26931   1.27673   1.28573   1.31319   1.32400
 Alpha virt. eigenvalues --    1.34037   1.34659   1.35428   1.36341   1.38439
 Alpha virt. eigenvalues --    1.39726   1.40822   1.41462   1.42059   1.44072
 Alpha virt. eigenvalues --    1.44923   1.45196   1.46277   1.46768   1.47747
 Alpha virt. eigenvalues --    1.48237   1.49194   1.49471   1.49753   1.50354
 Alpha virt. eigenvalues --    1.50841   1.51234   1.51647   1.52039   1.52172
 Alpha virt. eigenvalues --    1.52574   1.54327   1.54992   1.55284   1.56399
 Alpha virt. eigenvalues --    1.56610   1.56913   1.57870   1.58289   1.58473
 Alpha virt. eigenvalues --    1.59969   1.60076   1.60908   1.61754   1.62717
 Alpha virt. eigenvalues --    1.63993   1.64512   1.65435   1.65991   1.67135
 Alpha virt. eigenvalues --    1.67840   1.68796   1.69615   1.70084   1.70337
 Alpha virt. eigenvalues --    1.71775   1.72298   1.72568   1.73144   1.73472
 Alpha virt. eigenvalues --    1.74495   1.75169   1.75377   1.76180   1.76374
 Alpha virt. eigenvalues --    1.76583   1.78049   1.80086   1.80418   1.80895
 Alpha virt. eigenvalues --    1.81903   1.82648   1.83386   1.83843   1.84150
 Alpha virt. eigenvalues --    1.84786   1.85302   1.86021   1.86407   1.87784
 Alpha virt. eigenvalues --    1.87974   1.88373   1.88702   1.89108   1.89623
 Alpha virt. eigenvalues --    1.90106   1.90884   1.91798   1.92467   1.93114
 Alpha virt. eigenvalues --    1.93569   1.93977   1.94543   1.94993   1.95390
 Alpha virt. eigenvalues --    1.95965   1.96730   1.97227   1.98384   1.98754
 Alpha virt. eigenvalues --    1.99582   2.00038   2.00697   2.01350   2.02452
 Alpha virt. eigenvalues --    2.03215   2.04347   2.04619   2.05701   2.06046
 Alpha virt. eigenvalues --    2.06906   2.07449   2.08633   2.09188   2.10093
 Alpha virt. eigenvalues --    2.11215   2.11658   2.12548   2.13726   2.14511
 Alpha virt. eigenvalues --    2.16097   2.16667   2.18199   2.18780   2.19280
 Alpha virt. eigenvalues --    2.20253   2.20680   2.22130   2.23090   2.23582
 Alpha virt. eigenvalues --    2.24859   2.25860   2.26579   2.26645   2.27574
 Alpha virt. eigenvalues --    2.30904   2.32402   2.33563   2.34587   2.35843
 Alpha virt. eigenvalues --    2.38012   2.38996   2.39887   2.40729   2.41876
 Alpha virt. eigenvalues --    2.42958   2.43881   2.44387   2.45270   2.46077
 Alpha virt. eigenvalues --    2.47292   2.48326   2.48591   2.51035   2.54132
 Alpha virt. eigenvalues --    2.54719   2.55784   2.57601   2.58762   2.59236
 Alpha virt. eigenvalues --    2.61256   2.62228   2.63442   2.63679   2.64921
 Alpha virt. eigenvalues --    2.65791   2.67235   2.68510   2.69053   2.70159
 Alpha virt. eigenvalues --    2.70728   2.71774   2.72343   2.72559   2.72766
 Alpha virt. eigenvalues --    2.73037   2.73832   2.73948   2.74421   2.75625
 Alpha virt. eigenvalues --    2.75860   2.75982   2.76258   2.76544   2.77036
 Alpha virt. eigenvalues --    2.77383   2.77578   2.78206   2.78738   2.79016
 Alpha virt. eigenvalues --    2.79665   2.80420   2.81497   2.81759   2.82497
 Alpha virt. eigenvalues --    2.83950   2.84287   2.84545   2.85216   2.85665
 Alpha virt. eigenvalues --    2.87055   2.88046   2.88191   2.89428   2.89870
 Alpha virt. eigenvalues --    2.90526   2.91777   2.92482   2.93428   2.93717
 Alpha virt. eigenvalues --    2.94135   2.97529   2.99391   3.00427   3.01965
 Alpha virt. eigenvalues --    3.03578   3.05373   3.05718   3.07693   3.10037
 Alpha virt. eigenvalues --    3.12418   3.13053   3.13319   3.15487   3.16744
 Alpha virt. eigenvalues --    3.18519   3.18951   3.19911   3.21432   3.22777
[...]
 002224,-0.00000587,-0.00000658,0.00003167,-0.00000275,0.00000328,-0.00
 052356,-0.00134393,0.00016243,0.00010772,-0.00010894,0.00004873,0.0000
 7403,0.00008679,-0.00000575,-0.00232758,0.00338495,0.00214235,0.000118
 69,0.00048721,-0.00006713,-0.01846883,-0.01673537,0.00332276,0.0005493
 3,-0.00209476,-0.00124053,-0.00007601,-0.00013944,0.00002080,0.0000159
 8,-0.00001894,0.00000047,-0.00003527,-0.00000805,-0.00001676,-0.000037
 87,0.00004637,0.00002989,0.00021348,0.00123106,-0.00013808,0.00228822,
 0.00041750,0.00129934,-0.23868840,-0.12672248,0.03594101,0.00447230,0.
 00273926,0.00022027,-0.00000597,0.00000019,-0.00000162,-0.00000455,0.0
 0000157,0.00000057,-0.00000530,0.00000845,-0.00000082,-0.00002131,0.00
 002684,0.00000270,-0.00000379,-0.00000331,-0.00000087,-0.00000225,-0.0
 0000348,-0.00000058,-0.00000328,-0.00000353,0.00000086,0.00000124,-0.0
 0000635,-0.00000382,0.00000435,0.00000121,-0.00000341,0.00003895,0.000
 19858,0.00001095,0.00041119,-0.00020798,-0.00129750,0.25190774,-0.0000
 2759,-0.00000805,-0.00002030,0.00002032,-0.00000172,0.00000683,-0.0000
 1330,0.00001314,0.00000006,-0.00001348,0.00001304,0.00000263,-0.000031
 02,-0.00000156,-0.00002300,0.00006584,-0.00001635,0.00004614,0.0000442
 2,-0.00017004,-0.00003206,0.00000078,-0.00004015,-0.00000124,0.0000902
 1,0.00000348,0.00001781,0.00002504,-0.00000757,0.00000504,-0.00001043,
 -0.00001153,0.00000124,0.00000182,0.00002118,0.00000109,0.00004190,0.0
 0005926,0.00000806,0.00001109,0.00001015,0.00000225,-0.00001672,0.0000
 0014,-0.00000358,0.00062347,0.00041852,-0.00014195,0.00019852,0.000158
 62,-0.00003315,-0.00011564,-0.00002132,0.00000203,0.00230119,-0.000479
 26,-0.00134045,-0.00035245,0.00015372,0.00007832,0.01125915,0.00932136
 ,-0.00201203,0.00191055,0.00073580,0.00014590,-0.00004026,-0.00004128,
 0.00004929,0.00001788,-0.00003926,-0.00000794,-0.00003063,0.00004132,0
 .00000610,-0.00001370,0.00004340,0.00004531,0.00111067,-0.00062173,-0.
 00022364,0.00108795,-0.00502579,-0.00206053,-0.12733543,-0.14509909,0.
 01803271,-0.02708058,-0.01257604,0.00493916,-0.00000348,0.00000291,-0.
 00000089,-0.00000418,0.00000205,-0.00000113,0.00000084,0.00000358,0.00
 000058,0.00000930,-0.00000165,-0.00000443,-0.00000298,-0.00000314,-0.0
 0000137,-0.00000181,-0.00000296,-0.00000095,-0.00000593,-0.00000009,-0
 .00000280,0.00000201,-0.00000591,-0.00000305,-0.00000708,0.00001694,-0
 .00003593,-0.00119389,-0.00068782,0.00028361,0.00055598,0.00083904,0.0
 0057792,0.13717340,0.15305357,0.00004183,-0.00002002,-0.00001516,-0.00
 003107,0.00001508,-0.00001592,-0.00002135,-0.00004092,-0.00000699,0.00
 010825,-0.00001534,0.00002189,-0.00009543,0.00004147,0.00004293,0.0000
 9974,-0.00012392,0.00003817,0.00012243,-0.00016436,0.00006569,0.000053
 34,0.00006575,-0.00003379,-0.00006595,0.00006488,-0.00001806,-0.000000
 35,-0.00001400,-0.00000494,-0.00000021,-0.00000708,0.00000294,0.000002
 58,0.00000375,0.00000692,0.00002326,-0.00003030,-0.00002384,-0.0000002
 1,0.00001243,-0.00000600,-0.00001209,-0.00001350,-0.00000221,0.0003362
 8,0.00027570,0.00009443,-0.00000829,0.00013065,0.00003826,-0.00002629,
 -0.00001235,0.00003855,0.00226068,-0.00111561,0.00447152,-0.00018443,-
 0.00009543,-0.00008634,0.00660622,0.00528172,0.00157303,-0.00067902,0.
 00097389,-0.00313353,-0.00042779,-0.00040231,0.00008538,-0.00000131,0.
 00003542,0.00001272,-0.00002833,-0.00002578,-0.00002427,-0.00014013,0.
 00014274,0.00003839,0.00034058,0.00008753,-0.00119613,0.00190613,-0.00
 196463,0.00631338,0.03621982,0.01799563,-0.04151993,-0.00432205,-0.003
 12327,0.00418411,0.00000054,-0.00000037,0.00000105,-0.00000055,-0.0000
 0094,0.00000281,0.00000006,-0.00000052,0.00000012,0.00000669,-0.000005
 90,0.00001241,0.00000068,0.00000012,0.00000147,-0.00000202,-0.00000006
 ,-0.00000063,-0.00000198,-0.00000268,0.00000471,-0.00000094,0.00000007
 ,-0.00000094,0.00000518,0.00001166,-0.00001804,-0.00021721,-0.00012318
 ,0.00018302,-0.00120364,0.00080326,-0.00394135,-0.04062298,-0.01823564
 ,0.03246290,0.00000924,0.00000452,0.00000493,-0.00002641,0.00001056,-0
 .00000404,0.00002453,-0.00004148,-0.00000445,-0.00003045,-0.00001700,0
 .00000406,0.00000471,0.00003362,-0.00000039,-0.00003381,-0.00002661,0.
 00000261,0.00008158,-0.00005201,-0.00005327,-0.00001312,-0.00001187,-0
 .00000738,0.00004955,0.00008405,0.00001973,-0.00001927,0.00002270,-0.0
 0000159,0.00000572,0.00008059,0.00000452,0.00000069,-0.00003673,-0.000
 00355,-0.00044324,0.00030324,-0.00020821,-0.00009085,-0.00002431,-0.00
 000829,0.00004411,-0.00013638,-0.00000651,0.00012615,0.00020299,-0.000
 09535,-0.00154183,0.00406842,0.00213401,-0.00056801,-0.00103657,0.0000
 8307,0.00128855,0.00082695,0.00041151,-0.01979353,-0.01628757,0.002771
 60,0.00204679,0.00191484,0.00041043,-0.25490466,-0.12094577,0.02724088
 ,0.00001110,-0.00003664,-0.00000681,0.00001597,-0.00001086,0.00000218,
 -0.00003043,-0.00000396,-0.00001589,0.00000465,0.00004830,0.00001787,-
 0.00006352,0.00011849,-0.00000198,0.00016145,0.00009681,-0.00002400,0.
 00059992,0.00164268,-0.00021506,0.00014396,-0.00030921,-0.00011376,-0.
 00000785,0.00000074,-0.00000069,-0.00002052,-0.00000885,-0.00000078,-0
 .00000254,0.00001593,-0.00000181,-0.00000336,0.00006231,0.00006950,-0.
 00000448,-0.00000491,-0.00000179,-0.00000211,-0.00000447,-0.00000227,-
 0.00000352,-0.00000408,-0.00000111,0.00000229,-0.00000677,-0.00000193,
 0.00000298,-0.00000012,0.00000053,0.00002770,-0.00002979,0.00001219,0.
 00001279,-0.00005845,-0.00000455,0.00037882,-0.00022239,-0.00010094,0.
 27181363,-0.00004915,0.00002145,-0.00002030,0.00006425,-0.00002663,0.0
 0001173,-0.00004553,0.00005469,-0.00000411,-0.00000298,0.00005060,-0.0
 0000363,0.00000598,0.00000803,-0.00000446,0.00004779,-0.00002245,0.000
 03184,-0.00016358,0.00010624,0.00009926,-0.00002538,-0.00004777,-0.000
 00793,0.00004696,-0.00010683,-0.00003969,0.00008765,-0.00003689,0.0000
 1846,-0.00003940,-0.00008526,-0.00001135,-0.00000370,0.00009710,0.0000
 0904,0.00029422,-0.00003580,0.00012600,0.00006440,0.00006214,0.0000068
 1,-0.00005423,0.00008829,-0.00000238,0.00070679,-0.00025315,-0.0001114
 9,0.00276017,-0.00120748,-0.00124185,0.00015167,0.00058955,-0.00003043
 ,0.00157367,-0.00453853,-0.00130661,0.01500543,0.01135583,-0.00202112,
 -0.02660977,-0.01280030,0.00338598,-0.12194222,-0.13038858,0.01194696,
 0.00011043,-0.00001586,-0.00002307,0.00005018,-0.00012805,-0.00002384,
 -0.00007997,0.00002356,-0.00001939,-0.00001528,-0.00003314,0.00005078,
 -0.00108332,-0.00045339,0.00040828,0.00013453,0.00014656,-0.00005629,-
 0.00192861,0.00114199,0.00088919,0.00042743,-0.00005003,-0.00003409,-0
 .00000032,0.00000414,-0.00000083,0.00000774,0.00000781,0.00000003,-0.0
 0000199,-0.00000175,0.00000189,-0.00000526,-0.00003132,-0.00003791,-0.
 00000290,-0.00000145,-0.00000091,-0.00000113,-0.00000154,0.00000281,-0
 .00000394,0.00000190,0.00000123,0.00000014,-0.00001013,-0.00000824,0.0
 0000072,-0.00000099,0.00000539,0.00005384,0.00001017,-0.00004485,0.000
 01919,-0.00002311,-0.00001142,0.00118994,-0.00007852,-0.00039128,0.129
 42990,0.13570093,0.00001569,0.00002876,0.00000221,-0.00000117,0.000003
 80,-0.00000084,0.00003137,-0.00000992,0.00002576,-0.00002639,0.0000057
 2,0.00000478,0.00004532,0.00005520,0.00002702,-0.00001273,-0.00004962,
 0.00001190,-0.00010777,-0.00002345,-0.00049794,-0.00017999,-0.00004028
 ,-0.00005512,0.00013906,0.00000148,0.00015598,-0.00001757,0.00005513,-
 0.00000392,0.00012864,-0.00004057,0.00001707,-0.00003871,-0.00006027,-
 0.00001975,0.00016073,-0.00003602,-0.00082776,0.00002526,0.00004575,0.
 00006876,-0.00002121,0.00002774,-0.00009739,0.00022206,-0.00042604,-0.
 00068377,0.00202138,-0.00138599,0.00911658,0.00031677,0.00047183,0.000
 21110,0.00051000,-0.00098825,0.00326570,0.00420152,0.00388151,0.004044
 96,-0.00246937,-0.00081919,0.00312924,0.02816508,0.01114900,-0.0396354
 4,0.00004176,-0.00013542,0.00003944,0.00003607,-0.00004370,-0.00000103
 ,-0.00007123,-0.00001609,-0.00004615,-0.00002438,0.00010997,0.00003619
 ,-0.00022665,-0.00007096,-0.00003060,-0.00009584,-0.00001358,0.0000937
 9,-0.00073712,-0.00021710,-0.00171997,0.00003510,0.00025492,-0.0003191
 5,0.00000120,-0.00000067,0.00000417,0.00000165,0.00000347,0.00001760,-
 0.00000004,-0.00000276,-0.00000065,-0.00001086,-0.00000532,0.00026203,
 -0.00000015,0.00000269,-0.00000466,-0.00000130,0.00000113,0.00000137,-
 0.00000148,-0.00000079,0.00000488,-0.00000200,-0.00000195,-0.00000205,
 -0.00000795,0.00000300,0.00001114,0.00004196,-0.00001385,0.00013511,0.
 00001899,0.00000283,0.00004238,0.00013026,-0.00003699,0.00028860,-0.03
 123800,-0.01206609,0.02851066,0.00001798,-0.00001217,0.00000141,-0.000
 00178,-0.00000214,0.00000101,-0.00001781,0.00003036,-0.00002777,-0.000
 00439,-0.00017537,-0.00002107,-0.00028357,0.00002485,0.00014436,-0.000
 05399,0.00002155,-0.00002449,0.00031568,-0.00134436,0.00004308,-0.0000
 1481,0.00014682,0.00001470,0.00008601,-0.00015639,-0.00001398,-0.00002
 505,-0.00001532,-0.00000794,-0.00002166,-0.00002980,0.00000005,0.00000
 139,0.00000125,-0.00000301,0.00010955,0.00042751,-0.00003018,0.0000133
 3,-0.00002060,0.00000136,-0.00001488,-0.00001434,0.00000863,-0.0043997
 4,-0.00108554,0.00066357,0.00290852,-0.02620879,-0.00159166,0.00081774
 ,-0.00206837,-0.00016923,-0.00056833,0.00011674,-0.00005505,-0.0572482
 4,0.00301752,0.00233713,-0.00438527,0.00122146,0.00236031,0.00354161,0
 .02926053,0.00222117,-0.00000895,-0.00001109,0.00000138,-0.00001167,0.
 00001869,0.00000071,0.00000926,-0.00001316,-0.00000134,0.00000853,0.00
 001751,-0.00000571,0.00011245,-0.00008477,-0.00010880,-0.00009266,-0.0
 0004033,0.00003327,0.00069908,0.00108919,-0.00000596,-0.00036479,0.000
 23788,0.00006241,-0.00000250,-0.00000263,-0.00000045,0.00000395,0.0000
 0627,0.00000043,-0.00002326,0.00000298,-0.00000322,-0.00059291,0.00070
 115,0.00002043,-0.00000414,0.00000193,0.00000182,-0.00000103,-0.000001
 85,0.00000181,0.00000204,-0.00000360,-0.00000036,-0.00000036,0.0000008
 8,0.00000178,0.00000134,-0.00000633,0.00000502,0.00000757,0.00000482,-
 0.00000892,-0.00000826,0.00014528,0.00002215,-0.00004131,-0.00003781,0
 .00002112,0.00073751,-0.00016656,-0.00102395,0.05879926,0.00000991,-0.
 00000953,-0.00000112,-0.00000105,0.00001070,0.00000335,-0.00000525,0.0
 0000791,-0.00000459,0.00001841,-0.00012316,-0.00000862,-0.00016767,0.0
 0004648,0.00006408,-0.00004004,-0.00000931,-0.00001006,0.00053424,-0.0
 0078136,-0.00003513,0.00001213,0.00015212,-0.00003685,0.00006029,0.000
 25870,0.00002704,-0.00003835,0.00000722,-0.00001050,-0.00005348,0.0000
 8173,0.00000197,0.00000622,-0.00003435,0.00000129,-0.00057225,0.000223
 63,0.00005323,-0.00007016,-0.00012122,-0.00002127,0.00014120,-0.000070
 43,0.00000879,-0.00275556,0.00081832,-0.00007612,0.00216059,-0.0130599
 4,-0.00104892,0.00237452,0.00055672,0.00026195,-0.00014395,0.00035790,
 0.00011746,0.00340129,-0.33106238,-0.02059467,0.00252535,0.00138683,-0
 .00096073,-0.00215332,-0.01171116,-0.00075081,0.00000544,-0.00001257,0
 .00000183,0.00000291,-0.00001103,-0.00000522,-0.00001257,0.00000211,-0
 .00000352,0.00000685,0.00000944,0.00001418,0.00006232,0.00004710,0.000
 06663,0.00001137,0.00002506,-0.00001308,-0.00039048,-0.00068557,-0.000
 00618,0.00033047,-0.00006449,-0.00006202,-0.00001025,-0.00000111,-0.00
 000241,-0.00001273,0.00000124,0.00000009,-0.00001722,0.00002151,-0.000
 00119,-0.00057612,0.00084058,-0.00015583,-0.00000622,-0.00000368,-0.00
 000105,-0.00000291,-0.00000506,-0.00000145,-0.00000256,-0.00000518,-0.
 00000203,0.00000255,-0.00000673,-0.00000171,0.00000429,-0.00000167,0.0
 0000034,-0.00000103,-0.00001677,-0.00000943,-0.00000011,-0.00008264,-0
 .00000798,0.00003142,0.00001631,-0.00000891,0.00033089,0.00089256,0.00
 038199,-0.00500099,0.35210428,0.00000145,0.00000462,-0.00000313,-0.000
 00535,-0.00000257,-0.00000519,0.00000718,0.00000288,-0.00000107,-0.000
 01658,0.00000696,-0.00001234,0.00003500,0.00004428,0.00005057,-0.00000
 078,-0.00000874,-0.00001588,-0.00005946,0.00006486,0.00015796,-0.00001
 789,-0.00001446,0.00002246,0.00007792,-0.00011761,-0.00002971,0.000004
 56,-0.00001186,-0.00000597,0.00001165,-0.00005437,-0.00000120,0.000001
 54,0.00001677,0.00000311,0.00020256,0.00021078,-0.00013067,0.00002407,
 0.00005970,0.00000567,-0.00008739,-0.00000514,0.00004751,0.00096021,-0
 .00038418,0.00351214,0.00174171,0.00340944,0.00262123,-0.00058925,0.00
 011386,-0.00189126,-0.00057835,0.00019579,-0.00056671,0.00059848,-0.01
 985458,-0.03788835,0.00241502,-0.00035887,0.00923808,0.00136350,-0.006
 63328,0.00417386,-0.00000746,-0.00000994,0.00002769,0.00000728,-0.0000
 0731,0.00000274,-0.00001613,-0.00000113,-0.00000810,0.00000475,0.00002
 463,-0.00000384,-0.00011091,-0.00006537,-0.00070163,-0.00009640,-0.000
 03177,0.00018289,0.00012698,-0.00015535,0.00007915,-0.00010790,0.00023
 008,-0.00068715,-0.00000143,-0.00000007,0.00000339,0.00000091,0.000000
 53,-0.00000809,-0.00000324,0.00000178,0.00001780,-0.00001896,-0.000037
 50,0.00031732,-0.00000002,0.00000011,-0.00000114,-0.00000118,-0.000001
 36,0.00000390,-0.00000071,-0.00000079,0.00000003,-0.00000061,-0.000000
 80,0.00000098,-0.00000316,0.00000067,0.00000133,0.00001275,-0.00000517
 ,0.00005271,-0.00000478,-0.00000489,-0.00001305,0.00005794,-0.00002719
 ,0.00018378,-0.00105606,0.00055622,-0.00556414,-0.00487353,0.02285201,
 0.02683402,-0.00377016,0.00423950,-0.00223326,0.00040078,-0.00191157,0
 .00007669,-0.00031130,0.00120543,0.00011550,-0.00204349,0.00005454,0.0
 0000857,0.00248019,-0.00342242,0.00141478,-0.01538434,-0.01601306,-0.0
 2015171,0.00021175,0.00026210,-0.00021508,0.00030486,-0.00071360,-0.00
 010231,0.00002276,-0.00013854,0.00002833,0.00041239,-0.00026085,0.0000
 3820,-0.00070845,-0.00022197,-0.00016766,0.00004599,0.00058865,0.00008
 474,0.00017317,0.00012539,0.00003061,0.00001023,0.00002079,0.00001491,
 -0.00008720,-0.00006253,-0.00000098,0.00035866,0.00024953,0.00024218,0
 .00007515,-0.00010161,-0.00004681,-0.00011383,-0.00006139,0.00001159,-
 0.00030037,-0.00046806,-0.00004010,0.00002472,0.00005314,0.00000145,-0
 .00012216,-0.00001291,-0.00040714,-0.00009116,-0.00003215,-0.00004268,
 -0.07247853,-0.03900470,-0.08343118,-0.00240448,0.00022487,-0.00051923
 ,0.00495400,0.00434314,-0.00049983,0.00894199,-0.00237212,0.00665768,-
 0.00588266,-0.01015669,0.01248725,-0.00034992,0.00073768,-0.00050628,-
 0.00009635,-0.00018469,0.00006353,-0.00008030,0.00002942,-0.00071571,0
 .00000882,0.00001763,-0.00000729,0.00000100,-0.00000287,-0.00000438,0.
 00000589,0.00000179,-0.00000825,-0.00000348,0.00000141,0.00000293,0.00
 000161,-0.00000995,-0.00001322,-0.00038573,0.00002878,-0.00012727,-0.0
 0004559,-0.00014532,0.00030429,0.00047572,0.00053206,-0.00006968,-0.00
 040913,-0.00083223,0.00174420,0.00005955,-0.00002563,0.00039707,0.0000
 7288,0.00000526,0.00018380,0.00001802,0.00000868,0.00003915,0.00000909
 ,-0.00000780,0.00002600,-0.00000143,0.00000163,0.00000210,0.08600080,0
 .00051124,0.00141437,-0.00005688,0.00119828,-0.00055476,-0.00009566,-0
 .00010355,0.00144078,0.00022494,-0.00251251,0.00024978,-0.00058380,0.0
 0268167,-0.00187391,0.00170713,-0.00280247,0.00752192,0.00366997,0.000
 07724,0.00059855,-0.00031418,0.00002539,-0.00083253,0.00001911,0.00064
 168,-0.00015662,-0.00015723,0.00021064,-0.00027927,0.00002575,-0.00054
 181,-0.00015982,-0.00011442,0.00019766,0.00043114,0.00011164,0.0001298
 8,0.00012828,0.00006039,-0.00001788,0.00008903,-0.00001108,-0.00011086
 ,-0.00008880,0.00000522,-0.00002110,-0.00001358,0.00016578,-0.00006563
 ,-0.00032924,-0.00011718,-0.00009858,-0.00000044,0.00001123,-0.0006829
 2,-0.00086050,0.00052024,0.00007780,0.00004979,-0.00001846,0.00001668,
 0.00004370,-0.00013974,-0.00004668,0.00006905,0.00003951,-0.04860043,-
 0.14717776,-0.13242377,-0.00100826,-0.00013971,-0.00016182,0.00752658,
 -0.00219890,-0.00024467,-0.01250177,-0.02333717,-0.02060766,-0.0059200
 9,-0.00650735,0.01054709,-0.00006198,0.00059307,-0.00061219,-0.0002040
 2,-0.00011036,0.00001714,0.00012977,-0.00009126,-0.00052488,-0.0000019
 7,0.00000296,-0.00000379,-0.00000172,-0.00000510,-0.00000144,-0.000008
 03,0.00000478,-0.00000117,-0.00001515,0.00001166,0.00001446,-0.0000005
 2,-0.00000874,-0.00000662,0.00010664,0.00000961,-0.00015748,-0.0001624
 7,-0.00002620,0.00018733,-0.00091392,-0.00102447,-0.00014695,-0.000776
 83,0.00055949,0.00182160,0.00009199,-0.00003578,0.00023151,0.00007830,
 0.00001243,0.00012643,0.00002301,0.00001330,-0.00000347,0.00001829,0.0
 0001541,0.00001894,0.00000715,0.00001087,-0.00000170,0.06343125,0.1725
 4231,-0.00006673,-0.00056357,0.00057310,-0.00098550,0.00018732,-0.0000
 2780,0.00017558,-0.00132788,-0.00020593,0.00225637,-0.00000438,0.00067
 390,-0.00186906,0.00289263,-0.00031344,0.00528066,-0.00907539,-0.00121
 745,-0.00024947,-0.00010642,-0.00039424,-0.00002761,0.00084316,0.00002
 545,-0.00051000,0.00022789,0.00000610,-0.00017799,0.00025445,-0.000050
 95,0.00054274,0.00007892,0.00008064,-0.00016920,-0.00038331,-0.0000799
 5,0.00002046,-0.00011769,0.00001849,0.00004587,0.00001666,0.00001875,-
 0.00000308,0.00008616,-0.00001438,-0.00067026,0.00058330,-0.00045106,0
 .00004740,-0.00001524,0.00006481,-0.00002101,0.00010191,-0.00000785,-0
 .00026520,-0.00025905,0.00022142,-0.00005486,-0.00010604,-0.00002056,0
 .00083211,0.00014163,0.00075571,0.00005151,0.00003197,0.00008315,-0.09
 640032,-0.15546181,-0.16901471,0.00200991,0.00098606,0.00057438,-0.004
 63555,-0.00191742,0.00129224,-0.00234569,0.01167605,0.00472612,0.01152
 443,0.01480652,-0.01668302,-0.00029343,-0.00119882,0.00068061,-0.00034
 744,0.00004061,-0.00012587,0.00030735,0.00012748,0.00100198,-0.0000015
 0,-0.00000149,0.00000489,0.00000074,0.00000827,0.00000202,0.00000188,-
 0.00000259,0.00000034,0.00001209,-0.00000964,-0.00000477,0.00000057,0.
 00000211,0.00000474,-0.00015677,0.00002754,0.00014657,0.00008270,0.000
 00851,-0.00037086,-0.00014683,0.00010633,-0.00011213,0.00109789,0.0003
 1808,-0.00128410,-0.00007035,0.00011406,-0.00062068,-0.00009765,-0.000
 05267,-0.00005456,-0.00005761,-0.00000185,-0.00012113,-0.00000915,-0.0
 0002835,-0.00001808,0.00000750,-0.00001485,-0.00000170,0.08533450,0.13
 698084,0.18023976\\-0.00000092,0.00000211,0.00000418,0.00000344,-0.000
 00352,0.00000156,-0.00000043,0.00000077,-0.00000045,-0.00000101,-0.000
 00001,-0.00000118,0.00000147,-0.00000085,0.00000062,-0.00000297,0.0000
 0046,0.00000074,-0.00000216,0.00000207,-0.00000108,-0.00000107,-0.0000
 0089,-0.00000191,-0.00000022,0.00000078,-0.00000284,0.00000147,-0.0000
 0141,-0.00000112,-0.00000085,0.00000079,-0.00000425,0.00000018,0.00000
 026,-0.00000373,0.00000055,-0.00000057,-0.00000429,-0.00000015,-0.0000
 0013,-0.00000579,-0.00000071,0.,-0.00000666,-0.00000175,-0.00000199,0.
 00000066,0.00000100,0.00000061,-0.00000212,-0.00000085,0.00000104,-0.0
 0000447,0.00000072,0.00000159,0.00000214,-0.00000062,-0.00000030,-0.00
 000339,0.00000067,-0.00000035,0.00000026,-0.00000014,0.00000189,-0.000
 00075,0.00000794,0.00001498,-0.00000341,-0.00000454,0.00000004,0.00000
 279,0.00000504,0.00000220,0.00000883,0.00000109,-0.00000959,0.00000500
 ,-0.00000471,-0.00000849,0.00000313,0.00000049,-0.00000049,0.00000431,
 -0.00000036,0.00000048,0.00000181,0.00000125,-0.00000050,0.00000392,0.
 00000050,-0.00000177,-0.00000479,-0.00000026,-0.00000094,-0.00000653,-
 0.00000040,-0.00000026,-0.00000711,-0.00000113,0.00000008,-0.00000531,
 0.00000086,-0.00000152,-0.00000135,0.00000038,-0.00000099,0.00000236,0
 .00000094,-0.00000048,0.00000481,0.00000069,0.00000045,0.00000736,-0.0
 0000049,0.00000244,0.00000523,-0.00000011,0.00000019,0.00000574,0.0000
 0071,-0.00000063,0.00000497,-0.00000001,-0.00000042,0.00000206,-0.0000
 0042,0.00000004,-0.00000096,-0.00000042,0.00000049,-0.00000381,-0.0000
 0271,0.00000233,0.00000481\\\@


 Once you get people laughing, they're
 listening and you can tell them almost anything.
                                 -- Herb Gardner
 Job cpu time:       1 days 15 hours 50 minutes 51.6 seconds.
 Elapsed time:       0 days  1 hours 59 minutes 30.0 seconds.
 File lengths (MBytes):  RWF=   4303 Int=      0 D2E=      0 Chk=     63 Scr=      1
 Normal termination of Gaussian 16 at Fri May  3 04:34:05 2019.
