 Entering Gaussian System, Link 0=/share/apps/gaussian16/g16/g16
 Initial command:
 /share/apps/gaussian16/g16/l1.exe "/home/amen01//scratch/982/Gau-46240.inp" -scrdir="/home/amen01//scratch/982/"
 Entering Link 1 = /share/apps/gaussian16/g16/l1.exe PID=     46241.
  
 Copyright (c) 1988-2017, Gaussian, Inc.  All Rights Reserved.
  
 This is part of the Gaussian(R) 16 program.  It is based on
 the Gaussian(R) 09 system (copyright 2009, Gaussian, Inc.),
 the Gaussian(R) 03 system (copyright 2003, Gaussian, Inc.),
 the Gaussian(R) 98 system (copyright 1998, Gaussian, Inc.),
 the Gaussian(R) 94 system (copyright 1995, Gaussian, Inc.),
 the Gaussian 92(TM) system (copyright 1992, Gaussian, Inc.),
 the Gaussian 90(TM) system (copyright 1990, Gaussian, Inc.),
 the Gaussian 88(TM) system (copyright 1988, Gaussian, Inc.),
 the Gaussian 86(TM) system (copyright 1986, Carnegie Mellon
 University), and the Gaussian 82(TM) system (copyright 1983,
 Carnegie Mellon University). Gaussian is a federally registered
 trademark of Gaussian, Inc.
  
 This software contains proprietary and confidential information,
 including trade secrets, belonging to Gaussian, Inc.
  
 This software is provided under written license and may be
 used, copied, transmitted, or stored only in accord with that
 written license.
  
 The following legend is applicable only to US Government
 contracts under FAR:
  
                    RESTRICTED RIGHTS LEGEND
  
 Use, reproduction and disclosure by the US Government is
 subject to restrictions as set forth in subparagraphs (a)
 and (c) of the Commercial Computer Software - Restricted
 Rights clause in FAR 52.227-19.
  
 Gaussian, Inc.
 340 Quinnipiac St., Bldg. 40, Wallingford CT 06492
  
  
 ---------------------------------------------------------------
 Warning -- This program may not be used in any manner that
 competes with the business of Gaussian, Inc. or will provide
 assistance to any competitor of Gaussian, Inc.  The licensee
 of this program is prohibited from giving any competitor of
 Gaussian, Inc. access to this program.  By using this program,
 the user acknowledges that Gaussian, Inc. is engaged in the
 business of creating and licensing software in the field of
 computational chemistry and represents and warrants to the
 licensee that it is not a competitor of Gaussian, Inc. and that
 it will not use this program in any manner prohibited above.
 ---------------------------------------------------------------
  

 Cite this work as:
 Gaussian 16, Revision B.01,
 M. J. Frisch, G. W. Trucks, H. B. Schlegel, G. E. Scuseria, 
 M. A. Robb, J. R. Cheeseman, G. Scalmani, V. Barone, 
 G. A. Petersson, H. Nakatsuji, X. Li, M. Caricato, A. V. Marenich, 
 J. Bloino, B. G. Janesko, R. Gomperts, B. Mennucci, H. P. Hratchian, 
 J. V. Ortiz, A. F. Izmaylov, J. L. Sonnenberg, D. Williams-Young, 
 F. Ding, F. Lipparini, F. Egidi, J. Goings, B. Peng, A. Petrone, 
 T. Henderson, D. Ranasinghe, V. G. Zakrzewski, J. Gao, N. Rega, 
 G. Zheng, W. Liang, M. Hada, M. Ehara, K. Toyota, R. Fukuda, 
 J. Hasegawa, M. Ishida, T. Nakajima, Y. Honda, O. Kitao, H. Nakai, 
 T. Vreven, K. Throssell, J. A. Montgomery, Jr., J. E. Peralta, 
 F. Ogliaro, M. J. Bearpark, J. J. Heyd, E. N. Brothers, K. N. Kudin, 
 V. N. Staroverov, T. A. Keith, R. Kobayashi, J. Normand, 
 K. Raghavachari, A. P. Rendell, J. C. Burant, S. S. Iyengar, 
 J. Tomasi, M. Cossi, J. M. Millam, M. Klene, C. Adamo, R. Cammi, 
 J. W. Ochterski, R. L. Martin, K. Morokuma, O. Farkas, 
 J. B. Foresman, and D. J. Fox, Gaussian, Inc., Wallingford CT, 2016.
 
 ******************************************
 Gaussian 16:  ES64L-G16RevB.01 20-Dec-2017
                30-Aug-2019 
 ******************************************
 %nprocshared=20
 Will use up to   20 processors via shared memory.
 %mem=180GB
 %chk=7-memb-dirTSguess-2bcis.chk
 ---------------------------------------------------------------
 # opt=(ts,calcfc,noeigen) freq b3lyp/6-311+g(d,p) int=grid=fine
 ---------------------------------------------------------------
 1/5=1,10=4,11=1,18=20,26=3,38=1/1,3;
 2/9=110,12=2,17=6,18=5,40=1/2;
 3/5=4,6=6,7=111,11=2,25=1,30=1,71=2,74=-5,75=-4,140=1/1,2,3;
 4//1;
 5/5=2,38=5/2;
 8/6=4,10=90,11=11/1;
 11/6=1,8=1,9=11,15=111,16=1/1,2,10;
 10/6=1,13=1/2;
 6/7=2,8=2,9=2,10=2,28=1/1;
 7/10=1,18=20,25=1/1,2,3,16;
 1/5=1,10=4,11=1,18=20,26=3/3(2);
 2/9=110/2;
 99//99;
 2/9=110/2;
 3/5=4,6=6,7=111,11=2,25=1,30=1,71=1,74=-5,75=-4/1,2,3;
 4/5=5,16=3,69=1/1;
 5/5=2,38=5/2;
 7//1,2,3,16;
 1/5=1,11=1,18=20,26=3/3(-5);
 2/9=110/2;
 6/7=2,8=2,9=2,10=2,19=2,28=1/1;
 99/9=1/99;
 -----------------------
 7-memb-dirTSguess-2bcis
 -----------------------
 Symbolic Z-matrix:
 Charge =  0 Multiplicity = 1
 C                    -1.66325  -2.72895  -0.00267 
 C                    -1.47647  -1.407    -0.43941 
 C                    -2.55437  -0.4973   -0.51622 
 C                    -3.85662  -0.80564  -0.16361 
 C                    -3.03479  -3.10801   0.21371 
 C                    -4.07868  -2.19293   0.14204 
 C                    -2.02943   0.79689  -0.5786 
 C                    -2.79114   1.91429  -0.21194 
 C                    -4.20084   1.63344  -0.00581 
 C                    -4.70885   0.34875   0.01544 
 C                    -0.61552   0.71966  -0.57359 
 C                     0.10331   1.85819  -0.257 
 C                    -0.64054   3.03438   0.1796 
 C                    -2.05818   3.06284   0.14348 
 C                    -0.4761   -3.42284   0.32761 
 C                     0.77522  -2.78526   0.27586 
 C                     0.92214  -1.39372  -0.14637 
 C                    -0.264    -0.7086   -0.48429 
 C                     0.11969   4.04603   0.82969 
 C                     1.5603    1.84031  -0.18467 
 C                     2.18071   2.75066   0.69573 
 C                     1.45422   3.85456   1.15637 
 C                     1.96701  -3.46132   0.70384 
 C                     3.17692  -2.84121   0.70227 
 C                     3.33171  -1.49094   0.22385 
 C                     2.18473  -0.77109  -0.17152 
 C                     2.32105   0.61647  -0.79838 
 C                     3.73423   1.04413  -1.03271 
 C                     4.61297  -0.92863   0.05326 
 C                     4.79916   0.30238  -0.61034 
 H                     5.80857   0.66008  -0.78303 
 H                     3.87155   1.99875  -1.52714 
 H                     1.83724   0.4953   -1.77118 
 H                     5.47821  -1.48895   0.39048 
 H                     4.0642   -3.37438   1.02676 
 H                     1.88425  -4.48993   1.03902 
 H                    -0.52008  -4.4439    0.69404 
 H                    -3.25819  -4.12727   0.51169 
 H                    -5.07955  -2.53199   0.39071 
 H                    -5.76117   0.20802   0.24124 
 H                    -4.87109   2.45938   0.21061 
 H                    -2.56407   3.93818   0.53789 
 H                    -0.39468   4.93351   1.1829 
 H                     1.95695   4.59705   1.7666 
 H                     3.23444   2.64888   0.92336 
 H                     1.54585   2.8401   -1.74774 
 
 Add virtual bond connecting atoms H46        and C20        Dist= 3.51D+00.

 GradGradGradGradGradGradGradGradGradGradGradGradGradGradGradGradGradGrad
 Berny optimization.
 Initialization pass.
                           ----------------------------
                           !    Initial Parameters    !
                           ! (Angstroms and Degrees)  !
 --------------------------                            --------------------------
 ! Name  Definition              Value          Derivative Info.                !
 --------------------------------------------------------------------------------
 ! R1    R(1,2)                  1.4047         calculate D2E/DX2 analytically  !
 ! R2    R(1,5)                  1.4393         calculate D2E/DX2 analytically  !
 ! R3    R(1,15)                 1.4142         calculate D2E/DX2 analytically  !
 ! R4    R(2,3)                  1.4126         calculate D2E/DX2 analytically  !
 ! R5    R(2,18)                 1.4            calculate D2E/DX2 analytically  !
 ! R6    R(3,4)                  1.3839         calculate D2E/DX2 analytically  !
 ! R7    R(3,7)                  1.398          calculate D2E/DX2 analytically  !
 ! R8    R(4,6)                  1.4378         calculate D2E/DX2 analytically  !
 ! R9    R(4,10)                 1.446          calculate D2E/DX2 analytically  !
 ! R10   R(5,6)                  1.39           calculate D2E/DX2 analytically  !
 ! R11   R(5,38)                 1.0852         calculate D2E/DX2 analytically  !
 ! R12   R(6,39)                 1.0856         calculate D2E/DX2 analytically  !
 ! R13   R(7,8)                  1.4011         calculate D2E/DX2 analytically  !
 ! R14   R(7,11)                 1.416          calculate D2E/DX2 analytically  !
 ! R15   R(8,9)                  1.4521         calculate D2E/DX2 analytically  !
 ! R16   R(8,14)                 1.4081         calculate D2E/DX2 analytically  !
 ! R17   R(9,10)                 1.3816         calculate D2E/DX2 analytically  !
 ! R18   R(9,41)                 1.0855         calculate D2E/DX2 analytically  !
 ! R19   R(10,40)                1.0854         calculate D2E/DX2 analytically  !
 ! R20   R(11,12)                1.3832         calculate D2E/DX2 analytically  !
 ! R21   R(11,18)                1.4736         calculate D2E/DX2 analytically  !
 ! R22   R(12,13)                1.4585         calculate D2E/DX2 analytically  !
 ! R23   R(12,20)                1.4589         calculate D2E/DX2 analytically  !
 ! R24   R(13,14)                1.4184         calculate D2E/DX2 analytically  !
 ! R25   R(13,19)                1.4227         calculate D2E/DX2 analytically  !
 ! R26   R(14,42)                1.0852         calculate D2E/DX2 analytically  !
 ! R27   R(15,16)                1.4053         calculate D2E/DX2 analytically  !
 ! R28   R(15,37)                1.0857         calculate D2E/DX2 analytically  !
 ! R29   R(16,17)                1.4616         calculate D2E/DX2 analytically  !
 ! R30   R(16,23)                1.4355         calculate D2E/DX2 analytically  !
 ! R31   R(17,18)                1.4108         calculate D2E/DX2 analytically  !
 ! R32   R(17,26)                1.408          calculate D2E/DX2 analytically  !
 ! R33   R(19,22)                1.3872         calculate D2E/DX2 analytically  !
 ! R34   R(19,43)                1.0849         calculate D2E/DX2 analytically  !
 ! R35   R(20,21)                1.4102         calculate D2E/DX2 analytically  !
 ! R36   R(20,27)                1.5663         calculate D2E/DX2 analytically  !
 ! R37   R(20,46)                1.8555         calculate D2E/DX2 analytically  !
 ! R38   R(21,22)                1.3995         calculate D2E/DX2 analytically  !
 ! R39   R(21,45)                1.0828         calculate D2E/DX2 analytically  !
 ! R40   R(22,44)                1.0846         calculate D2E/DX2 analytically  !
 ! R41   R(23,24)                1.3596         calculate D2E/DX2 analytically  !
 ! R42   R(23,36)                1.085          calculate D2E/DX2 analytically  !
 ! R43   R(24,25)                1.4409         calculate D2E/DX2 analytically  !
 ! R44   R(24,35)                1.0848         calculate D2E/DX2 analytically  !
 ! R45   R(25,26)                1.4107         calculate D2E/DX2 analytically  !
 ! R46   R(25,29)                1.4096         calculate D2E/DX2 analytically  !
 ! R47   R(26,27)                1.5287         calculate D2E/DX2 analytically  !
 ! R48   R(27,28)                1.495          calculate D2E/DX2 analytically  !
 ! R49   R(27,33)                1.0932         calculate D2E/DX2 analytically  !
 ! R50   R(28,30)                1.3648         calculate D2E/DX2 analytically  !
 ! R51   R(28,32)                1.0838         calculate D2E/DX2 analytically  !
 ! R52   R(29,30)                1.4108         calculate D2E/DX2 analytically  !
 ! R53   R(29,34)                1.0846         calculate D2E/DX2 analytically  !
 ! R54   R(30,31)                1.0847         calculate D2E/DX2 analytically  !
 ! A1    A(2,1,5)              114.9165         calculate D2E/DX2 analytically  !
 ! A2    A(2,1,15)             115.0082         calculate D2E/DX2 analytically  !
 ! A3    A(5,1,15)             129.4649         calculate D2E/DX2 analytically  !
 ! A4    A(1,2,3)              121.4334         calculate D2E/DX2 analytically  !
 ! A5    A(1,2,18)             126.4854         calculate D2E/DX2 analytically  !
 ! A6    A(3,2,18)             109.7472         calculate D2E/DX2 analytically  !
 ! A7    A(2,3,4)              124.1048         calculate D2E/DX2 analytically  !
 ! A8    A(2,3,7)              108.1845         calculate D2E/DX2 analytically  !
 ! A9    A(4,3,7)              124.8174         calculate D2E/DX2 analytically  !
 ! A10   A(3,4,6)              114.4853         calculate D2E/DX2 analytically  !
 ! A11   A(3,4,10)             114.0954         calculate D2E/DX2 analytically  !
 ! A12   A(6,4,10)             130.7628         calculate D2E/DX2 analytically  !
 ! A13   A(1,5,6)              122.3091         calculate D2E/DX2 analytically  !
 ! A14   A(1,5,38)             119.0006         calculate D2E/DX2 analytically  !
 ! A15   A(6,5,38)             118.5476         calculate D2E/DX2 analytically  !
 ! A16   A(4,6,5)              122.0164         calculate D2E/DX2 analytically  !
 ! A17   A(4,6,39)             119.5006         calculate D2E/DX2 analytically  !
 ! A18   A(5,6,39)             118.3553         calculate D2E/DX2 analytically  !
 ! A19   A(3,7,8)              121.4977         calculate D2E/DX2 analytically  !
 ! A20   A(3,7,11)             108.9223         calculate D2E/DX2 analytically  !
 ! A21   A(8,7,11)             125.8306         calculate D2E/DX2 analytically  !
 ! A22   A(7,8,9)              114.2463         calculate D2E/DX2 analytically  !
 ! A23   A(7,8,14)             115.6941         calculate D2E/DX2 analytically  !
 ! A24   A(9,8,14)             128.8484         calculate D2E/DX2 analytically  !
 ! A25   A(8,9,10)             122.6132         calculate D2E/DX2 analytically  !
 ! A26   A(8,9,41)             118.7231         calculate D2E/DX2 analytically  !
 ! A27   A(10,9,41)            118.5162         calculate D2E/DX2 analytically  !
 ! A28   A(4,10,9)             121.5807         calculate D2E/DX2 analytically  !
 ! A29   A(4,10,40)            119.5799         calculate D2E/DX2 analytically  !
 ! A30   A(9,10,40)            118.6995         calculate D2E/DX2 analytically  !
 ! A31   A(7,11,12)            118.3479         calculate D2E/DX2 analytically  !
 ! A32   A(7,11,18)            106.9341         calculate D2E/DX2 analytically  !
 ! A33   A(12,11,18)           131.2974         calculate D2E/DX2 analytically  !
 ! A34   A(11,12,13)           117.8565         calculate D2E/DX2 analytically  !
 ! A35   A(11,12,20)           121.3505         calculate D2E/DX2 analytically  !
 ! A36   A(13,12,20)           120.2891         calculate D2E/DX2 analytically  !
 ! A37   A(12,13,14)           121.2169         calculate D2E/DX2 analytically  !
 ! A38   A(12,13,19)           115.9572         calculate D2E/DX2 analytically  !
 ! A39   A(14,13,19)           122.1036         calculate D2E/DX2 analytically  !
 ! A40   A(8,14,13)            120.6854         calculate D2E/DX2 analytically  !
 ! A41   A(8,14,42)            120.4649         calculate D2E/DX2 analytically  !
 ! A42   A(13,14,42)           118.2191         calculate D2E/DX2 analytically  !
 ! A43   A(1,15,16)            121.0818         calculate D2E/DX2 analytically  !
 ! A44   A(1,15,37)            120.4152         calculate D2E/DX2 analytically  !
 ! A45   A(16,15,37)           118.3698         calculate D2E/DX2 analytically  !
 ! A46   A(15,16,17)           122.1456         calculate D2E/DX2 analytically  !
 ! A47   A(15,16,23)           120.971          calculate D2E/DX2 analytically  !
 ! A48   A(17,16,23)           116.8125         calculate D2E/DX2 analytically  !
 ! A49   A(16,17,18)           116.5525         calculate D2E/DX2 analytically  !
 ! A50   A(16,17,26)           121.0852         calculate D2E/DX2 analytically  !
 ! A51   A(18,17,26)           122.3363         calculate D2E/DX2 analytically  !
 ! A52   A(2,18,11)            106.1928         calculate D2E/DX2 analytically  !
 ! A53   A(2,18,17)            118.5679         calculate D2E/DX2 analytically  !
 ! A54   A(11,18,17)           133.2936         calculate D2E/DX2 analytically  !
 ! A55   A(13,19,22)           121.5697         calculate D2E/DX2 analytically  !
 ! A56   A(13,19,43)           118.4982         calculate D2E/DX2 analytically  !
 ! A57   A(22,19,43)           119.4952         calculate D2E/DX2 analytically  !
 ! A58   A(12,20,21)           117.5426         calculate D2E/DX2 analytically  !
 ! A59   A(12,20,27)           118.3741         calculate D2E/DX2 analytically  !
 ! A60   A(12,20,46)            86.7814         calculate D2E/DX2 analytically  !
 ! A61   A(21,20,27)           122.3668         calculate D2E/DX2 analytically  !
 ! A62   A(21,20,46)           100.4569         calculate D2E/DX2 analytically  !
 ! A63   A(27,20,46)            95.4358         calculate D2E/DX2 analytically  !
 ! A64   A(20,21,22)           119.0978         calculate D2E/DX2 analytically  !
 ! A65   A(20,21,45)           119.9124         calculate D2E/DX2 analytically  !
 ! A66   A(22,21,45)           120.6708         calculate D2E/DX2 analytically  !
 ! A67   A(19,22,21)           122.056          calculate D2E/DX2 analytically  !
 ! A68   A(19,22,44)           118.9413         calculate D2E/DX2 analytically  !
 ! A69   A(21,22,44)           118.9832         calculate D2E/DX2 analytically  !
 ! A70   A(16,23,24)           121.5804         calculate D2E/DX2 analytically  !
 ! A71   A(16,23,36)           118.3768         calculate D2E/DX2 analytically  !
 ! A72   A(24,23,36)           120.042          calculate D2E/DX2 analytically  !
 ! A73   A(23,24,25)           121.5619         calculate D2E/DX2 analytically  !
 ! A74   A(23,24,35)           120.2228         calculate D2E/DX2 analytically  !
 ! A75   A(25,24,35)           118.1661         calculate D2E/DX2 analytically  !
 ! A76   A(24,25,26)           118.9409         calculate D2E/DX2 analytically  !
 ! A77   A(24,25,29)           120.7755         calculate D2E/DX2 analytically  !
 ! A78   A(26,25,29)           120.1035         calculate D2E/DX2 analytically  !
 ! A79   A(17,26,25)           119.8971         calculate D2E/DX2 analytically  !
 ! A80   A(17,26,27)           119.2539         calculate D2E/DX2 analytically  !
 ! A81   A(25,26,27)           120.3706         calculate D2E/DX2 analytically  !
 ! A82   A(20,27,26)           120.3484         calculate D2E/DX2 analytically  !
 ! A83   A(20,27,28)           107.2798         calculate D2E/DX2 analytically  !
 ! A84   A(20,27,33)           102.7278         calculate D2E/DX2 analytically  !
 ! A85   A(26,27,28)           114.0941         calculate D2E/DX2 analytically  !
 ! A86   A(26,27,33)           102.9928         calculate D2E/DX2 analytically  !
 ! A87   A(28,27,33)           108.0939         calculate D2E/DX2 analytically  !
 ! A88   A(27,28,30)           122.2506         calculate D2E/DX2 analytically  !
 ! A89   A(27,28,32)           116.3114         calculate D2E/DX2 analytically  !
 ! A90   A(30,28,32)           121.4013         calculate D2E/DX2 analytically  !
 ! A91   A(25,29,30)           121.6655         calculate D2E/DX2 analytically  !
 ! A92   A(25,29,34)           118.7778         calculate D2E/DX2 analytically  !
 ! A93   A(30,29,34)           119.4556         calculate D2E/DX2 analytically  !
 ! A94   A(28,30,29)           121.1184         calculate D2E/DX2 analytically  !
 ! A95   A(28,30,31)           119.8423         calculate D2E/DX2 analytically  !
 ! A96   A(29,30,31)           119.0392         calculate D2E/DX2 analytically  !
 ! D1    D(5,1,2,3)              6.3505         calculate D2E/DX2 analytically  !
 ! D2    D(5,1,2,18)           167.1782         calculate D2E/DX2 analytically  !
 ! D3    D(15,1,2,3)          -165.5551         calculate D2E/DX2 analytically  !
 ! D4    D(15,1,2,18)           -4.7274         calculate D2E/DX2 analytically  !
 ! D5    D(2,1,5,6)             -6.9459         calculate D2E/DX2 analytically  !
 ! D6    D(2,1,5,38)           177.4607         calculate D2E/DX2 analytically  !
 ! D7    D(15,1,5,6)           163.5402         calculate D2E/DX2 analytically  !
 ! D8    D(15,1,5,38)          -12.0532         calculate D2E/DX2 analytically  !
 ! D9    D(2,1,15,16)            3.0386         calculate D2E/DX2 analytically  !
 ! D10   D(2,1,15,37)          178.7751         calculate D2E/DX2 analytically  !
 ! D11   D(5,1,15,16)         -167.4404         calculate D2E/DX2 analytically  !
 ! D12   D(5,1,15,37)            8.2961         calculate D2E/DX2 analytically  !
 ! D13   D(1,2,3,4)              0.8155         calculate D2E/DX2 analytically  !
 ! D14   D(1,2,3,7)            162.3016         calculate D2E/DX2 analytically  !
 ! D15   D(18,2,3,4)          -162.8919         calculate D2E/DX2 analytically  !
 ! D16   D(18,2,3,7)            -1.4058         calculate D2E/DX2 analytically  !
 ! D17   D(1,2,18,11)         -161.7893         calculate D2E/DX2 analytically  !
 ! D18   D(1,2,18,17)            4.4185         calculate D2E/DX2 analytically  !
 ! D19   D(3,2,18,11)            0.8897         calculate D2E/DX2 analytically  !
 ! D20   D(3,2,18,17)          167.0976         calculate D2E/DX2 analytically  !
 ! D21   D(2,3,4,6)             -7.2779         calculate D2E/DX2 analytically  !
 ! D22   D(2,3,4,10)           164.4537         calculate D2E/DX2 analytically  !
 ! D23   D(7,3,4,6)           -165.7188         calculate D2E/DX2 analytically  !
 ! D24   D(7,3,4,10)             6.0128         calculate D2E/DX2 analytically  !
 ! D25   D(2,3,7,8)           -158.0105         calculate D2E/DX2 analytically  !
 ! D26   D(2,3,7,11)             1.3508         calculate D2E/DX2 analytically  !
 ! D27   D(4,3,7,8)              3.311          calculate D2E/DX2 analytically  !
 ! D28   D(4,3,7,11)           162.6723         calculate D2E/DX2 analytically  !
 ! D29   D(3,4,6,5)              6.5707         calculate D2E/DX2 analytically  !
 ! D30   D(3,4,6,39)          -177.6063         calculate D2E/DX2 analytically  !
 ! D31   D(10,4,6,5)          -163.4481         calculate D2E/DX2 analytically  !
 ! D32   D(10,4,6,39)           12.3748         calculate D2E/DX2 analytically  !
 ! D33   D(3,4,10,9)            -7.5845         calculate D2E/DX2 analytically  !
 ! D34   D(3,4,10,40)          176.7711         calculate D2E/DX2 analytically  !
 ! D35   D(6,4,10,9)           162.4652         calculate D2E/DX2 analytically  !
 ! D36   D(6,4,10,40)          -13.1792         calculate D2E/DX2 analytically  !
 ! D37   D(1,5,6,4)              0.4701         calculate D2E/DX2 analytically  !
 ! D38   D(1,5,6,39)          -175.3988         calculate D2E/DX2 analytically  !
 ! D39   D(38,5,6,4)           176.0826         calculate D2E/DX2 analytically  !
 ! D40   D(38,5,6,39)            0.2136         calculate D2E/DX2 analytically  !
 ! D41   D(3,7,8,9)            -10.4837         calculate D2E/DX2 analytically  !
 ! D42   D(3,7,8,14)           158.0769         calculate D2E/DX2 analytically  !
 ! D43   D(11,7,8,9)          -166.2            calculate D2E/DX2 analytically  !
 ! D44   D(11,7,8,14)            2.3606         calculate D2E/DX2 analytically  !
 ! D45   D(3,7,11,12)         -162.266          calculate D2E/DX2 analytically  !
 ! D46   D(3,7,11,18)           -0.7968         calculate D2E/DX2 analytically  !
 ! D47   D(8,7,11,12)           -4.0244         calculate D2E/DX2 analytically  !
 ! D48   D(8,7,11,18)          157.4448         calculate D2E/DX2 analytically  !
 ! D49   D(7,8,9,10)             8.8189         calculate D2E/DX2 analytically  !
 ! D50   D(7,8,9,41)          -175.6663         calculate D2E/DX2 analytically  !
 ! D51   D(14,8,9,10)         -157.9147         calculate D2E/DX2 analytically  !
 ! D52   D(14,8,9,41)           17.6002         calculate D2E/DX2 analytically  !
 ! D53   D(7,8,14,13)           -2.922          calculate D2E/DX2 analytically  !
 ! D54   D(7,8,14,42)         -173.6572         calculate D2E/DX2 analytically  !
 ! D55   D(9,8,14,13)          163.6517         calculate D2E/DX2 analytically  !
 ! D56   D(9,8,14,42)           -7.0836         calculate D2E/DX2 analytically  !
 ! D57   D(8,9,10,4)             0.2253         calculate D2E/DX2 analytically  !
 ! D58   D(8,9,10,40)          175.907          calculate D2E/DX2 analytically  !
 ! D59   D(41,9,10,4)         -175.2984         calculate D2E/DX2 analytically  !
 ! D60   D(41,9,10,40)           0.3833         calculate D2E/DX2 analytically  !
 ! D61   D(7,11,12,13)           5.8681         calculate D2E/DX2 analytically  !
 ! D62   D(7,11,12,20)         177.7461         calculate D2E/DX2 analytically  !
 ! D63   D(18,11,12,13)       -150.2608         calculate D2E/DX2 analytically  !
 ! D64   D(18,11,12,20)         21.6172         calculate D2E/DX2 analytically  !
 ! D65   D(7,11,18,2)           -0.0594         calculate D2E/DX2 analytically  !
 ! D66   D(7,11,18,17)        -163.3414         calculate D2E/DX2 analytically  !
 ! D67   D(12,11,18,2)         158.0834         calculate D2E/DX2 analytically  !
 ! D68   D(12,11,18,17)         -5.1985         calculate D2E/DX2 analytically  !
 ! D69   D(11,12,13,14)         -6.7308         calculate D2E/DX2 analytically  !
 ! D70   D(11,12,13,19)        163.7282         calculate D2E/DX2 analytically  !
 ! D71   D(20,12,13,14)       -178.6987         calculate D2E/DX2 analytically  !
 ! D72   D(20,12,13,19)         -8.2396         calculate D2E/DX2 analytically  !
 ! D73   D(11,12,20,21)       -151.0034         calculate D2E/DX2 analytically  !
 ! D74   D(11,12,20,27)         14.4349         calculate D2E/DX2 analytically  !
 ! D75   D(11,12,20,46)        108.8777         calculate D2E/DX2 analytically  !
 ! D76   D(13,12,20,21)         20.6792         calculate D2E/DX2 analytically  !
 ! D77   D(13,12,20,27)       -173.8825         calculate D2E/DX2 analytically  !
 ! D78   D(13,12,20,46)        -79.4398         calculate D2E/DX2 analytically  !
 ! D79   D(12,13,14,8)           5.2733         calculate D2E/DX2 analytically  !
 ! D80   D(12,13,14,42)        176.2122         calculate D2E/DX2 analytically  !
 ! D81   D(19,13,14,8)        -164.5937         calculate D2E/DX2 analytically  !
 ! D82   D(19,13,14,42)          6.3452         calculate D2E/DX2 analytically  !
 ! D83   D(12,13,19,22)         -6.8527         calculate D2E/DX2 analytically  !
 ! D84   D(12,13,19,43)       -179.2267         calculate D2E/DX2 analytically  !
 ! D85   D(14,13,19,22)        163.514          calculate D2E/DX2 analytically  !
 ! D86   D(14,13,19,43)         -8.86           calculate D2E/DX2 analytically  !
 ! D87   D(1,15,16,17)          -1.3951         calculate D2E/DX2 analytically  !
 ! D88   D(1,15,16,23)         175.4433         calculate D2E/DX2 analytically  !
 ! D89   D(37,15,16,17)       -177.2167         calculate D2E/DX2 analytically  !
 ! D90   D(37,15,16,23)         -0.3782         calculate D2E/DX2 analytically  !
 ! D91   D(15,16,17,18)          0.8858         calculate D2E/DX2 analytically  !
 ! D92   D(15,16,17,26)        179.0757         calculate D2E/DX2 analytically  !
 ! D93   D(23,16,17,18)       -176.0769         calculate D2E/DX2 analytically  !
 ! D94   D(23,16,17,26)          2.1129         calculate D2E/DX2 analytically  !
 ! D95   D(15,16,23,24)       -177.7116         calculate D2E/DX2 analytically  !
 ! D96   D(15,16,23,36)          1.9562         calculate D2E/DX2 analytically  !
 ! D97   D(17,16,23,24)         -0.7107         calculate D2E/DX2 analytically  !
 ! D98   D(17,16,23,36)        178.957          calculate D2E/DX2 analytically  !
 ! D99   D(16,17,18,2)          -2.185          calculate D2E/DX2 analytically  !
 ! D100  D(16,17,18,11)        159.4816         calculate D2E/DX2 analytically  !
 ! D101  D(26,17,18,2)         179.6497         calculate D2E/DX2 analytically  !
 ! D102  D(26,17,18,11)        -18.6837         calculate D2E/DX2 analytically  !
 ! D103  D(16,17,26,25)         -0.4243         calculate D2E/DX2 analytically  !
 ! D104  D(16,17,26,27)        171.6712         calculate D2E/DX2 analytically  !
 ! D105  D(18,17,26,25)        177.6592         calculate D2E/DX2 analytically  !
 ! D106  D(18,17,26,27)        -10.2453         calculate D2E/DX2 analytically  !
 ! D107  D(13,19,22,21)          9.6969         calculate D2E/DX2 analytically  !
 ! D108  D(13,19,22,44)       -171.9247         calculate D2E/DX2 analytically  !
 ! D109  D(43,19,22,21)       -178.0034         calculate D2E/DX2 analytically  !
 ! D110  D(43,19,22,44)          0.375          calculate D2E/DX2 analytically  !
 ! D111  D(12,20,21,22)        -18.0474         calculate D2E/DX2 analytically  !
 ! D112  D(12,20,21,45)        168.3936         calculate D2E/DX2 analytically  !
 ! D113  D(27,20,21,22)        177.1359         calculate D2E/DX2 analytically  !
 ! D114  D(27,20,21,45)          3.5769         calculate D2E/DX2 analytically  !
 ! D115  D(46,20,21,22)         73.7784         calculate D2E/DX2 analytically  !
 ! D116  D(46,20,21,45)        -99.7806         calculate D2E/DX2 analytically  !
 ! D117  D(12,20,27,26)        -66.9148         calculate D2E/DX2 analytically  !
 ! D118  D(12,20,27,28)        160.4324         calculate D2E/DX2 analytically  !
 ! D119  D(12,20,27,33)         46.6219         calculate D2E/DX2 analytically  !
 ! D120  D(21,20,27,26)         97.7817         calculate D2E/DX2 analytically  !
 ! D121  D(21,20,27,28)        -34.8712         calculate D2E/DX2 analytically  !
 ! D122  D(21,20,27,33)       -148.6816         calculate D2E/DX2 analytically  !
 ! D123  D(46,20,27,26)       -156.187          calculate D2E/DX2 analytically  !
 ! D124  D(46,20,27,28)         71.1602         calculate D2E/DX2 analytically  !
 ! D125  D(46,20,27,33)        -42.6502         calculate D2E/DX2 analytically  !
 ! D126  D(20,21,22,19)          3.404          calculate D2E/DX2 analytically  !
 ! D127  D(20,21,22,44)       -174.9737         calculate D2E/DX2 analytically  !
 ! D128  D(45,21,22,19)        176.9128         calculate D2E/DX2 analytically  !
 ! D129  D(45,21,22,44)         -1.4649         calculate D2E/DX2 analytically  !
 ! D130  D(16,23,24,25)         -2.3614         calculate D2E/DX2 analytically  !
 ! D131  D(16,23,24,35)       -179.7655         calculate D2E/DX2 analytically  !
 ! D132  D(36,23,24,25)        177.9763         calculate D2E/DX2 analytically  !
 ! D133  D(36,23,24,35)          0.5722         calculate D2E/DX2 analytically  !
 ! D134  D(23,24,25,26)          4.0736         calculate D2E/DX2 analytically  !
 ! D135  D(23,24,25,29)       -171.0538         calculate D2E/DX2 analytically  !
 ! D136  D(35,24,25,26)       -178.4706         calculate D2E/DX2 analytically  !
 ! D137  D(35,24,25,29)          6.4019         calculate D2E/DX2 analytically  !
 ! D138  D(24,25,26,17)         -2.6083         calculate D2E/DX2 analytically  !
 ! D139  D(24,25,26,27)       -174.6145         calculate D2E/DX2 analytically  !
 ! D140  D(29,25,26,17)        172.5527         calculate D2E/DX2 analytically  !
 ! D141  D(29,25,26,27)          0.5465         calculate D2E/DX2 analytically  !
 ! D142  D(24,25,29,30)        169.6784         calculate D2E/DX2 analytically  !
 ! D143  D(24,25,29,34)         -6.6431         calculate D2E/DX2 analytically  !
 ! D144  D(26,25,29,30)         -5.3926         calculate D2E/DX2 analytically  !
 ! D145  D(26,25,29,34)        178.2859         calculate D2E/DX2 analytically  !
 ! D146  D(17,26,27,20)         62.8193         calculate D2E/DX2 analytically  !
 ! D147  D(17,26,27,28)       -167.472          calculate D2E/DX2 analytically  !
 ! D148  D(17,26,27,33)        -50.578          calculate D2E/DX2 analytically  !
 ! D149  D(25,26,27,20)       -125.1234         calculate D2E/DX2 analytically  !
 ! D150  D(25,26,27,28)          4.5853         calculate D2E/DX2 analytically  !
 ! D151  D(25,26,27,33)        121.4792         calculate D2E/DX2 analytically  !
 ! D152  D(20,27,28,30)        130.4473         calculate D2E/DX2 analytically  !
 ! D153  D(20,27,28,32)        -47.3769         calculate D2E/DX2 analytically  !
 ! D154  D(26,27,28,30)         -5.5043         calculate D2E/DX2 analytically  !
 ! D155  D(26,27,28,32)        176.6714         calculate D2E/DX2 analytically  !
 ! D156  D(33,27,28,30)       -119.4089         calculate D2E/DX2 analytically  !
 ! D157  D(33,27,28,32)         62.7669         calculate D2E/DX2 analytically  !
 ! D158  D(27,28,30,29)          1.1786         calculate D2E/DX2 analytically  !
 ! D159  D(27,28,30,31)       -178.7211         calculate D2E/DX2 analytically  !
 ! D160  D(32,28,30,29)        178.8935         calculate D2E/DX2 analytically  !
 ! D161  D(32,28,30,31)         -1.0061         calculate D2E/DX2 analytically  !
 ! D162  D(25,29,30,28)          4.6089         calculate D2E/DX2 analytically  !
 ! D163  D(25,29,30,31)       -175.4907         calculate D2E/DX2 analytically  !
 ! D164  D(34,29,30,28)       -179.094          calculate D2E/DX2 analytically  !
 ! D165  D(34,29,30,31)          0.8065         calculate D2E/DX2 analytically  !
 --------------------------------------------------------------------------------
 Trust Radius=3.00D-01 FncErr=1.00D-07 GrdErr=1.00D-06 EigMax=2.50D+02 EigMin=1.00D-04
 Number of steps in this run=    276 maximum allowed number of steps=    276.
 Search for a saddle point of order  1.
 GradGradGradGradGradGradGradGradGradGradGradGradGradGradGradGradGradGrad

                          Input orientation:                          
 ---------------------------------------------------------------------
 Center     Atomic      Atomic             Coordinates (Angstroms)
 Number     Number       Type             X           Y           Z
 ---------------------------------------------------------------------
      1          6           0       -1.663251   -2.728953   -0.002666
      2          6           0       -1.476466   -1.407000   -0.439408
      3          6           0       -2.554374   -0.497297   -0.516217
      4          6           0       -3.856624   -0.805638   -0.163612
      5          6           0       -3.034790   -3.108013    0.213712
      6          6           0       -4.078679   -2.192926    0.142043
      7          6           0       -2.029430    0.796892   -0.578595
      8          6           0       -2.791135    1.914286   -0.211938
      9          6           0       -4.200838    1.633435   -0.005805
     10          6           0       -4.708846    0.348750    0.015440
     11          6           0       -0.615516    0.719656   -0.573585
     12          6           0        0.103305    1.858189   -0.257004
     13          6           0       -0.640537    3.034377    0.179598
     14          6           0       -2.058176    3.062836    0.143475
     15          6           0       -0.476102   -3.422836    0.327610
     16          6           0        0.775224   -2.785261    0.275863
     17          6           0        0.922140   -1.393720   -0.146374
     18          6           0       -0.263996   -0.708600   -0.484290
     19          6           0        0.119685    4.046026    0.829686
     20          6           0        1.560296    1.840314   -0.184669
     21          6           0        2.180708    2.750663    0.695725
     22          6           0        1.454223    3.854562    1.156371
     23          6           0        1.967007   -3.461320    0.703839
     24          6           0        3.176915   -2.841214    0.702269
     25          6           0        3.331708   -1.490942    0.223851
     26          6           0        2.184726   -0.771094   -0.171516
     27          6           0        2.321051    0.616470   -0.798375
     28          6           0        3.734233    1.044127   -1.032710
     29          6           0        4.612974   -0.928625    0.053262
     30          6           0        4.799161    0.302383   -0.610344
     31          1           0        5.808567    0.660079   -0.783026
     32          1           0        3.871549    1.998753   -1.527139
     33          1           0        1.837236    0.495302   -1.771184
     34          1           0        5.478209   -1.488952    0.390475
     35          1           0        4.064198   -3.374380    1.026760
     36          1           0        1.884251   -4.489926    1.039020
     37          1           0       -0.520084   -4.443905    0.694040
     38          1           0       -3.258189   -4.127269    0.511687
     39          1           0       -5.079549   -2.531992    0.390710
     40          1           0       -5.761174    0.208024    0.241242
     41          1           0       -4.871091    2.459379    0.210606
     42          1           0       -2.564066    3.938180    0.537885
     43          1           0       -0.394676    4.933509    1.182897
     44          1           0        1.956948    4.597052    1.766596
     45          1           0        3.234441    2.648882    0.923357
     46          1           0        1.545849    2.840102   -1.747737
 ---------------------------------------------------------------------
                    Distance matrix (angstroms):
                    1          2          3          4          5
     1  C    0.000000
     2  C    1.404704   0.000000
     3  C    2.457259   1.412567   0.000000
     4  C    2.921631   2.470395   1.383929   0.000000
     5  C    1.439314   2.397579   2.753077   2.473604   0.000000
     6  C    2.478418   2.779798   2.373177   1.437811   1.390045
     7  C    3.591290   2.276463   1.397992   2.465553   4.109353
     8  C    4.782843   3.579251   2.442207   2.921573   5.046190
     9  C    5.046760   4.105418   2.740690   2.468292   4.887656
    10  C    4.329923   3.706457   2.374911   1.446013   3.845905
    11  C    3.649192   2.298239   2.289855   3.605465   4.596061
    12  C    4.922121   3.631860   3.560725   4.773440   5.893418
    13  C    5.856205   4.561554   4.076721   5.020630   6.592615
    14  C    5.807077   4.545060   3.654580   4.277126   6.248047
    15  C    1.414171   2.377528   3.686467   4.303365   2.580498
    16  C    2.454976   2.735201   4.116843   5.056289   3.824165
    17  C    2.913374   2.416476   3.609225   4.814844   4.327327
    18  C    2.504337   1.399950   2.300326   3.608217   3.731178
    19  C    7.054928   5.821837   5.440940   6.351088   7.842857
    20  C    5.594871   4.453298   4.743929   6.028642   6.764574
    21  C    6.729782   5.652399   5.868479   7.059399   7.858616
    22  C    7.375953   6.230528   6.148583   7.187831   8.337703
    23  C    3.770184   4.169502   5.542279   6.459086   5.038157
    24  C    4.892519   5.001435   6.310810   7.373194   6.236598
    25  C    5.151077   4.854431   6.015064   7.231313   6.568662
    26  C    4.320723   3.725650   4.759501   6.041454   5.731748
    27  C    5.263048   4.317919   5.008978   6.370948   6.601600
    28  C    6.665580   5.788904   6.495331   7.861175   8.038253
    29  C    6.529572   6.128038   7.202862   8.473267   7.953853
    30  C    7.163870   6.506512   7.397488   8.737843   8.583744
    31  H    8.241515   7.580409   8.446863   9.795301   9.664211
    32  H    7.437018   6.433007   6.967404   8.333575   8.763968
    33  H    5.077094   4.046357   4.674017   6.057786   6.376545
    34  H    7.258968   7.004493   8.144192   9.376195   8.667396
    35  H    5.854910   6.059636   7.379965   8.411590   7.150359
    36  H    4.095230   4.794226   6.169379   6.926612   5.175691
    37  H    2.175613   3.379669   4.602040   5.010494   2.887745
    38  H    2.182584   3.388065   3.837791   3.442003   1.085163
    39  H    3.444507   3.864830   3.367345   2.187034   2.131705
    40  H    5.047603   4.629288   3.369687   2.195160   4.293021
    41  H    6.103647   5.186028   3.825883   3.439407   5.862411
    42  H    6.749394   5.541563   4.559022   4.966549   7.069336
    43  H    7.856727   6.633566   6.086455   6.836372   8.519131
    44  H    8.361009   7.259713   7.177441   8.167765   9.311118
    45  H    7.332531   6.363957   6.743975   7.962312   8.541001
    46  H    6.660178   5.374383   5.428324   6.707279   7.759485
                    6          7          8          9         10
     6  C    0.000000
     7  C    3.695640   0.000000
     8  C    4.318827   1.401143   0.000000
     9  C    3.831164   2.396436   1.452112   0.000000
    10  C    2.621689   2.780823   2.486005   1.381644   0.000000
    11  C    4.581349   1.416031   2.508236   3.743247   4.152093
    12  C    5.836074   2.403816   2.895334   4.317321   5.050686
    13  C    6.256751   2.740478   2.456212   3.830503   4.877569
    14  C    5.630761   2.378385   1.408089   2.580014   3.795880
    15  C    3.811256   4.586953   5.842547   6.288935   5.677890
    16  C    4.891742   4.629039   5.919680   6.660736   6.321777
    17  C    5.072485   3.700995   4.973491   5.952170   5.896642
    18  C    4.140933   2.322102   3.652415   4.605736   4.596130
    19  C    7.551400   4.142321   3.755285   5.018522   6.135761
    20  C    6.940591   3.758995   4.352145   5.767621   6.447243
    21  C    7.995346   4.813146   5.122753   6.516477   7.327887
    22  C    8.259175   4.949272   4.864155   6.185772   7.181634
    23  C    6.202802   5.979006   7.237106   8.031341   7.717353
    24  C    7.306009   6.479387   7.685582   8.657661   8.534215
    25  C    7.444012   5.883868   7.019594   8.158047   8.250964
    26  C    6.430410   4.514798   5.654387   6.825295   6.986440
    27  C    7.052208   4.359764   5.306852   6.648114   7.081908
    28  C    8.538159   5.786809   6.634099   8.022915   8.536261
    29  C    8.783574   6.891893   7.935572   9.178830   9.409009
    30  C    9.252497   6.846547   7.769785   9.117957   9.528691
    31  H   10.332135   7.841856   8.709423  10.086609  10.552272
    32  H    9.141251   6.096373   6.791778   8.222612   8.872724
    33  H    6.773851   4.057626   5.085920   6.392984   6.787097
    34  H    9.586001   7.907517   8.962532  10.177931  10.358276
    35  H    8.275567   7.557048   8.746425   9.718808   9.583881
    36  H    6.452698   6.773775   8.027332   8.695718   8.241931
    37  H    4.246788   5.600328   6.812126   7.139453   6.401232
    38  H    2.133430   5.190946   6.102635   5.860213   4.731323
    39  H    1.085607   4.617818   5.036806   4.275528   2.928638
    40  H    2.933461   3.865852   3.455117   2.127787   1.085442
    41  H    4.719805   3.385519   2.191321   1.085475   2.125833
    42  H    6.327812   3.376397   2.170240   2.878623   4.213910
    43  H    8.089582   4.784023   4.099303   5.175941   6.402736
    44  H    9.228855   5.986013   5.801390   7.059940   8.096137
    45  H    8.805412   5.778760   6.175443   7.561604   8.319299
    46  H    7.780614   4.280680   4.693106   6.124931   6.959658
                   11         12         13         14         15
    11  C    0.000000
    12  C    1.383179   0.000000
    13  C    2.434306   1.458541   0.000000
    14  C    2.843578   2.506703   1.418385   0.000000
    15  C    4.241678   5.344784   6.461002   6.678383   0.000000
    16  C    3.865251   4.721975   5.990145   6.499686   1.405346
    17  C    2.648255   3.355241   4.707044   5.369096   2.509393
    18  C    1.473586   2.602878   3.820001   4.223375   2.840994
    19  C    3.684349   2.442907   1.422668   2.486087   7.509390
    20  C    2.478162   1.458895   2.530246   3.833481   5.666577
    21  C    3.681712   2.453529   2.882066   4.286090   6.730991
    22  C    4.135723   2.794300   2.452511   3.740285   7.574531
    23  C    5.077578   5.717848   7.019131   7.686398   2.472208
    24  C    5.356317   5.696637   7.026286   7.910514   3.717955
    25  C    4.593825   4.676589   6.021561   7.056501   4.271112
    26  C    3.197710   3.354512   4.752578   5.727168   3.789574
    27  C    2.946965   2.598720   3.946354   5.103863   5.040625
    28  C    4.385931   3.801060   4.956753   6.245847   6.287380
    29  C    5.517869   5.310340   6.581848   7.774583   5.674068
    30  C    5.430856   4.959480   6.138250   7.430438   6.525750
    31  H    6.427772   5.853391   6.939372   8.277517   7.576330
    32  H    4.762259   3.979028   4.934003   6.251789   7.192760
    33  H    2.738717   2.675204   4.048680   5.043053   5.010816
    34  H    6.552926   6.364918   7.612097   8.807774   6.260805
    35  H    6.420433   6.687040   7.995272   8.927564   4.594070
    36  H    5.999089   6.719376   7.983000   8.566735   2.686271
    37  H    5.317738   6.403865   7.496923   7.682448   1.085720
    38  H    5.626208   6.907694   7.632271   7.298851   2.875781
    39  H    5.606306   6.823137   7.122771   6.363326   4.689276
    40  H    5.234836   6.112561   5.849188   4.676719   6.412690
    41  H    4.663851   5.032366   4.269563   2.877700   7.343710
    42  H    3.923150   3.474634   2.155271   1.085224   7.654304
    43  H    4.570619   3.432039   2.161888   2.710544   8.400396
    44  H    5.208476   3.877154   3.421614   4.594514   8.503471
    45  H    4.559048   3.438380   3.964497   5.365759   7.140644
    46  H    3.247526   2.295075   2.921069   4.076186   6.900706
                   16         17         18         19         20
    16  C    0.000000
    17  C    1.461593   0.000000
    18  C    2.443426   1.410849   0.000000
    19  C    6.884979   5.584574   4.947748   0.000000
    20  C    4.714273   3.296617   3.148774   2.823020   0.000000
    21  C    5.726965   4.412373   4.397217   2.437976   1.410227
    22  C    6.732279   5.433666   5.144560   1.387218   2.422155
    23  C    1.435467   2.467707   3.737177   7.732314   5.390935
    24  C    2.439892   2.810595   4.218511   7.536376   5.031582
    25  C    2.865934   2.439782   3.747347   6.429786   3.795004
    26  C    2.498742   1.407984   2.469407   5.335864   2.685058
    27  C    3.887845   2.534348   2.921802   4.388445   1.566262
    28  C    5.013214   3.825775   4.399847   5.054194   2.465581
    29  C    4.269072   3.725376   4.911437   6.748306   4.128254
    30  C    5.148881   4.257150   5.164643   6.163282   3.610634
    31  H    6.190812   5.338594   6.232058   6.813872   4.449583
    32  H    5.977026   4.702595   5.051735   4.880823   2.677540
    33  H    4.010033   2.654395   2.742381   4.724632   2.098281
    34  H    4.879715   4.588577   5.860638   7.716390   5.173475
    35  H    3.424654   3.895098   5.303105   8.405977   5.910171
    36  H    2.172149   3.452145   4.608022   8.718944   6.455563
    37  H    2.145646   3.477058   3.925117   8.515083   6.677688
    38  H    4.257349   5.037905   4.652361   8.849515   7.701607
    39  H    5.861374   6.132242   5.223020   8.396133   7.970926
    40  H    7.189260   6.883496   5.620103   7.047058   7.513301
    41  H    7.706580   6.966730   5.634208   5.273382   6.473193
    42  H    7.511602   6.407105   5.284669   2.701721   4.683320
    43  H    7.859439   6.598090   5.884725   1.084874   3.906406
    44  H    7.623470   6.373353   6.176490   2.134705   3.400643
    45  H    5.999742   4.778461   5.049081   3.415039   2.164316
    46  H    6.027730   4.569313   4.179129   3.182971   1.855523
                   21         22         23         24         25
    21  C    0.000000
    22  C    1.399489   0.000000
    23  C    6.215663   7.347779   0.000000
    24  C    5.679926   6.928730   1.359563   0.000000
    25  C    4.420258   5.741860   2.444420   1.440861   0.000000
    26  C    3.626968   4.867608   2.837422   2.456285   1.410696
    27  C    2.608987   3.880420   4.360088   3.865231   2.550992
    28  C    2.883261   4.229547   5.141765   4.291460   2.857892
    29  C    4.457111   5.837246   3.720072   2.478199   1.409590
    30  C    3.815257   5.189207   4.890157   3.773173   2.462786
    31  H    4.440564   5.738144   5.827030   4.625013   3.431548
    32  H    2.892306   4.060630   6.198140   5.373831   3.941493
    33  H    3.360099   4.472349   4.668773   4.364063   3.187284
    34  H    5.379686   6.732919   4.039427   2.687337   2.152959
    35  H    6.416640   7.686766   2.123687   1.084819   2.174521
    36  H    7.254782   8.356385   1.085000   2.121941   3.428343
    37  H    7.684796   8.542610   2.674171   4.029453   4.876204
    38  H    8.770486   9.291505   5.270966   6.565122   7.103507
    39  H    8.983920   9.168669   7.114468   8.268125   8.477079
    40  H    8.351351   8.136133   8.567547   9.455149   9.250259
    41  H    7.074465   6.546037   9.058562   9.649270   9.104456
    42  H    4.893668   4.066468   8.678177   8.885160   8.020856
    43  H    3.410976   2.140854   8.733854   8.569340   7.488610
    44  H    2.146156   1.084619   8.128156   7.612418   6.429129
    45  H    1.082834   2.162669   6.244129   5.494847   4.199632
    46  H    2.526173   3.077559   6.774623   6.398457   5.082755
                   26         27         28         29         30
    26  C    0.000000
    27  C    1.528683   0.000000
    28  C    2.537253   1.494954   0.000000
    29  C    2.443712   2.892320   2.417286   0.000000
    30  C    2.860104   2.505002   1.364789   1.410822   0.000000
    31  H    3.943910   3.487822   2.124311   2.157035   1.084742
    32  H    3.514988   2.201329   1.083802   3.408360   2.139778
    33  H    2.069649   1.093214   2.108353   3.613986   3.187125
    34  H    3.417336   3.976658   3.388716   1.084579   2.161394
    35  H    3.427153   4.721924   4.886051   2.688972   4.091316
    36  H    3.922422   5.444455   6.191950   4.593529   5.846651
    37  H    4.642707   5.992224   7.155374   6.254284   7.247278
    38  H    6.430863   7.439573   8.833033   8.508624   9.262919
    39  H    7.495769   8.129921   9.617562   9.830039  10.325924
    40  H    8.016631   8.159044   9.616901  10.437924  10.595036
    41  H    7.769590   7.492747   8.809107  10.072280   9.941849
    42  H    6.725440   6.056708   7.107101   8.685076   8.291837
    43  H    6.405486   5.471511   6.089671   7.792127   7.186027
    44  H    5.711843   4.749387   4.859849   6.365775   5.672054
    45  H    3.741241   2.815909   2.578998   3.931409   3.210396
    46  H    3.991663   2.539048   2.919900   5.182100   4.279921
                   31         32         33         34         35
    31  H    0.000000
    32  H    2.469371   0.000000
    33  H    4.095739   2.541329   0.000000
    34  H    2.470744   4.292166   4.676186   0.000000
    35  H    4.753421   5.952317   5.268993   2.441132   0.000000
    36  H    6.726266   7.255169   5.722932   4.726837   2.448829
    37  H    8.263425   8.107276   6.002504   6.693536   4.719134
    38  H   10.334459   9.618634   7.248656   9.126887   7.378990
    39  H   11.406930  10.214105   7.853675  10.609156   9.204471
    40  H   11.623785   9.956065   7.865635  11.367749  10.487545
    41  H   10.875655   8.925564   7.265448  11.078343  10.702254
    42  H    9.088000   7.031560   6.046211   9.703282   9.881620
    43  H    7.785068   5.844464   5.779767   8.738805   9.430109
    44  H    6.069209   4.611458   5.417986   7.164666   8.278381
    45  H    3.673310   2.614097   3.721645   4.737101   6.081026
    46  H    4.884049   2.483025   2.362952   6.227047   7.256700
                   36         37         38         39         40
    36  H    0.000000
    37  H    2.429394   0.000000
    38  H    5.182112   2.762378   0.000000
    39  H    7.262804   4.953397   2.424231   0.000000
    40  H    9.008868   7.022428   5.013266   2.827480   0.000000
    41  H    9.726960   8.174368   6.787933   4.998968   2.421112
    42  H    9.543146   8.629113   8.095305   6.943518   4.921744
    43  H    9.696151   9.390985   9.526171   8.849254   7.212227
    44  H    9.116349   9.435304  10.241398  10.110817   9.008867
    45  H    7.266290   8.028491   9.393612   9.810586   9.345810
    46  H    7.849194   7.955320   8.759454   8.793648   8.017260
                   41         42         43         44         45
    41  H    0.000000
    42  H    2.759770   0.000000
    43  H    5.206242   2.472443   0.000000
    44  H    7.322081   4.731111   2.446230   0.000000
    45  H    8.139016   5.952610   4.296204   2.477581   0.000000
    46  H    6.719909   4.829207   4.091040   3.950495   3.165857
                   46
    46  H    0.000000
 Stoichiometry    C30H16
 Framework group  C1[X(C30H16)]
 Deg. of freedom   132
 Full point group                 C1      NOp   1
 Largest Abelian subgroup         C1      NOp   1
 Largest concise Abelian subgroup C1      NOp   1
                         Standard orientation:                         
 ---------------------------------------------------------------------
 Center     Atomic      Atomic             Coordinates (Angstroms)
 Number     Number       Type             X           Y           Z
 ---------------------------------------------------------------------
      1          6           0        1.663251   -2.728953    0.002666
      2          6           0        1.476466   -1.407000    0.439408
      3          6           0        2.554374   -0.497297    0.516217
      4          6           0        3.856624   -0.805637    0.163612
      5          6           0        3.034790   -3.108013   -0.213712
      6          6           0        4.078679   -2.192925   -0.142043
      7          6           0        2.029430    0.796892    0.578595
      8          6           0        2.791135    1.914286    0.211938
      9          6           0        4.200838    1.633436    0.005805
     10          6           0        4.708846    0.348751   -0.015440
     11          6           0        0.615516    0.719656    0.573585
     12          6           0       -0.103305    1.858189    0.257004
     13          6           0        0.640537    3.034377   -0.179598
     14          6           0        2.058176    3.062836   -0.143475
     15          6           0        0.476102   -3.422836   -0.327610
     16          6           0       -0.775224   -2.785261   -0.275863
     17          6           0       -0.922140   -1.393720    0.146374
     18          6           0        0.263996   -0.708600    0.484290
     19          6           0       -0.119686    4.046026   -0.829686
     20          6           0       -1.560296    1.840314    0.184669
     21          6           0       -2.180708    2.750663   -0.695725
     22          6           0       -1.454224    3.854562   -1.156371
     23          6           0       -1.967007   -3.461320   -0.703839
     24          6           0       -3.176915   -2.841214   -0.702269
     25          6           0       -3.331708   -1.490942   -0.223851
     26          6           0       -2.184726   -0.771094    0.171516
     27          6           0       -2.321051    0.616470    0.798375
     28          6           0       -3.734233    1.044126    1.032710
     29          6           0       -4.612974   -0.928626   -0.053262
     30          6           0       -4.799161    0.302382    0.610344
     31          1           0       -5.808567    0.660078    0.783026
     32          1           0       -3.871549    1.998752    1.527139
     33          1           0       -1.837236    0.495302    1.771184
     34          1           0       -5.478209   -1.488953   -0.390475
     35          1           0       -4.064198   -3.374381   -1.026760
     36          1           0       -1.884250   -4.489926   -1.039020
     37          1           0        0.520085   -4.443905   -0.694040
     38          1           0        3.258190   -4.127269   -0.511687
     39          1           0        5.079549   -2.531991   -0.390710
     40          1           0        5.761174    0.208025   -0.241242
     41          1           0        4.871091    2.459380   -0.210606
     42          1           0        2.564065    3.938180   -0.537885
     43          1           0        0.394675    4.933509   -1.182897
     44          1           0       -1.956949    4.597052   -1.766596
     45          1           0       -3.234441    2.648882   -0.923357
     46          1           0       -1.545849    2.840102    1.747737
 ---------------------------------------------------------------------
 Rotational constants (GHZ):           0.2527835           0.1748013           0.1081286
 Standard basis: 6-311+G(d,p) (5D, 7F)
 There are   786 symmetry adapted cartesian basis functions of A   symmetry.
 There are   756 symmetry adapted basis functions of A   symmetry.
   756 basis functions,  1208 primitive gaussians,   786 cartesian basis functions
    98 alpha electrons       98 beta electrons
       nuclear repulsion energy      2647.5606641214 Hartrees.
 NAtoms=   46 NActive=   46 NUniq=   46 SFac= 1.00D+00 NAtFMM=   60 NAOKFM=F Big=F
 Integral buffers will be    131072 words long.
 Raffenetti 2 integral format.
 Two-electron integral symmetry is turned on.
 One-electron integrals computed using PRISM.
 NBasis=   756 RedAO= T EigKep=  1.38D-06  NBF=   756
 NBsUse=   735 1.00D-06 EigRej=  9.96D-07 NBFU=   735
 ExpMin= 4.38D-02 ExpMax= 4.56D+03 ExpMxC= 6.82D+02 IAcc=2 IRadAn=         4 AccDes= 0.00D+00
 Harris functional with IExCor=  402 and IRadAn=       4 diagonalized for initial guess.
 HarFok:  IExCor=  402 AccDes= 0.00D+00 IRadAn=         4 IDoV= 1 UseB2=F ITyADJ=14
 ICtDFT=  3500011 ScaDFX=  1.000000  1.000000  1.000000  1.000000
 FoFCou: FMM=F IPFlag=           0 FMFlag=      100000 FMFlg1=           0
         NFxFlg=           0 DoJE=T BraDBF=F KetDBF=T FulRan=T
         wScrn=  0.000000 ICntrl=       500 IOpCl=  0 I1Cent=   200000004 NGrid=           0
         NMat0=    1 NMatS0=      1 NMatT0=    0 NMatD0=    1 NMtDS0=    0 NMtDT0=    0
 Petite list used in FoFCou.
 Requested convergence on RMS density matrix=1.00D-08 within 128 cycles.
 Requested convergence on MAX density matrix=1.00D-06.
 Requested convergence on             energy=1.00D-06.
 No special actions if energy rises.
 Restarting incremental Fock formation.
 SCF Done:  E(RB3LYP) =  -1152.95027336     A.U. after   22 cycles
            NFock= 22  Conv=0.69D-08     -V/T= 2.0046
 DoSCS=F DFT=T ScalE2(SS,OS)=  1.000000  1.000000
 Range of M.O.s used for correlation:     1   735
 NBasis=   756 NAE=    98 NBE=    98 NFC=     0 NFV=     0
 NROrb=    735 NOA=    98 NOB=    98 NVA=   637 NVB=   637

 **** Warning!!: The largest alpha MO coefficient is  0.12250538D+03


 **** Warning!!: The smallest alpha delta epsilon is  0.30492927D-01

 Symmetrizing basis deriv contribution to polar:
 IMax=3 JMax=2 DiffMx= 0.00D+00
 G2DrvN: will do    47 centers at a time, making    1 passes.
 Calling FoFCou, ICntrl=  3107 FMM=F I1Cent=   0 AccDes= 0.00D+00.
 End of G2Drv F.D. properties file   721 does not exist.
 End of G2Drv F.D. properties file   722 does not exist.
 End of G2Drv F.D. properties file   788 does not exist.
          IDoAtm=1111111111111111111111111111111111111111111111
          Differentiating once with respect to nuclear coordinates.
 CalDSu exits because no D1Ps are significant.
          There are   141 degrees of freedom in the 1st order CPHF.  IDoFFX=6 NUNeed=     0.
    135 vectors produced by pass  0 Test12= 6.24D-14 1.00D-09 XBig12= 3.37D-01 1.64D-01.
 AX will form   135 AO Fock derivatives at one time.
    135 vectors produced by pass  1 Test12= 6.24D-14 1.00D-09 XBig12= 7.82D-02 5.51D-02.
    135 vectors produced by pass  2 Test12= 6.24D-14 1.00D-09 XBig12= 1.04D-03 5.97D-03.
    135 vectors produced by pass  3 Test12= 6.24D-14 1.00D-09 XBig12= 8.85D-06 2.94D-04.
    135 vectors produced by pass  4 Test12= 6.24D-14 1.00D-09 XBig12= 3.11D-08 1.61D-05.
    135 vectors produced by pass  5 Test12= 6.24D-14 1.00D-09 XBig12= 1.18D-10 1.09D-06.
    107 vectors produced by pass  6 Test12= 6.24D-14 1.00D-09 XBig12= 1.51D-11 2.80D-07.
     82 vectors produced by pass  7 Test12= 6.24D-14 1.00D-09 XBig12= 1.91D-12 7.97D-08.
     43 vectors produced by pass  8 Test12= 6.24D-14 1.00D-09 XBig12= 7.46D-14 1.49D-08.
      5 vectors produced by pass  9 Test12= 6.24D-14 1.00D-09 XBig12= 7.64D-16 1.75D-09.
      1 vectors produced by pass 10 Test12= 6.24D-14 1.00D-09 XBig12= 5.65D-16 1.56D-09.
 InvSVY:  IOpt=1 It=  1 EMax= 8.33D-16
 Solved reduced A of dimension  1048 with   141 vectors.
 End of Minotr F.D. properties file   721 does not exist.
 End of Minotr F.D. properties file   722 does not exist.
 End of Minotr F.D. properties file   788 does not exist.

 **********************************************************************

            Population analysis using the SCF Density.

 **********************************************************************

 Orbital symmetries:
       Occupied  (A) (A) (A) (A) (A) (A) (A) (A) (A) (A) (A) (A)
                 (A) (A) (A) (A) (A) (A) (A) (A) (A) (A) (A) (A)
                 (A) (A) (A) (A) (A) (A) (A) (A) (A) (A) (A) (A)
                 (A) (A) (A) (A) (A) (A) (A) (A) (A) (A) (A) (A)
                 (A) (A) (A) (A) (A) (A) (A) (A) (A) (A) (A) (A)
                 (A) (A) (A) (A) (A) (A) (A) (A) (A) (A) (A) (A)
                 (A) (A) (A) (A) (A) (A) (A) (A) (A) (A) (A) (A)
                 (A) (A) (A) (A) (A) (A) (A) (A) (A) (A) (A) (A)
                 (A) (A)
       Virtual   (A) (A) (A) (A) (A) (A) (A) (A) (A) (A) (A) (A)
                 (A) (A) (A) (A) (A) (A) (A) (A) (A) (A) (A) (A)
                 (A) (A) (A) (A) (A) (A) (A) (A) (A) (A) (A) (A)
                 (A) (A) (A) (A) (A) (A) (A) (A) (A) (A) (A) (A)
                 (A) (A) (A) (A) (A) (A) (A) (A) (A) (A) (A) (A)
                 (A) (A) (A) (A) (A) (A) (A) (A) (A) (A) (A) (A)
                 (A) (A) (A) (A) (A) (A) (A) (A) (A) (A) (A) (A)
                 (A) (A) (A) (A) (A) (A) (A) (A) (A) (A) (A) (A)
                 (A) (A) (A) (A) (A) (A) (A) (A) (A) (A) (A) (A)
                 (A) (A) (A) (A) (A) (A) (A) (A) (A) (A) (A) (A)
                 (A) (A) (A) (A) (A) (A) (A) (A) (A) (A) (A) (A)
                 (A) (A) (A) (A) (A) (A) (A) (A) (A) (A) (A) (A)
                 (A) (A) (A) (A) (A) (A) (A) (A) (A) (A) (A) (A)
                 (A) (A) (A) (A) (A) (A) (A) (A) (A) (A) (A) (A)
                 (A) (A) (A) (A) (A) (A) (A) (A) (A) (A) (A) (A)
                 (A) (A) (A) (A) (A) (A) (A) (A) (A) (A) (A) (A)
                 (A) (A) (A) (A) (A) (A) (A) (A) (A) (A) (A) (A)
                 (A) (A) (A) (A) (A) (A) (A) (A) (A) (A) (A) (A)
                 (A) (A) (A) (A) (A) (A) (A) (A) (A) (A) (A) (A)
                 (A) (A) (A) (A) (A) (A) (A) (A) (A) (A) (A) (A)
                 (A) (A) (A) (A) (A) (A) (A) (A) (A) (A) (A) (A)
                 (A) (A) (A) (A) (A) (A) (A) (A) (A) (A) (A) (A)
                 (A) (A) (A) (A) (A) (A) (A) (A) (A) (A) (A) (A)
                 (A) (A) (A) (A) (A) (A) (A) (A) (A) (A) (A) (A)
                 (A) (A) (A) (A) (A) (A) (A) (A) (A) (A) (A) (A)
                 (A) (A) (A) (A) (A) (A) (A) (A) (A) (A) (A) (A)
                 (A) (A) (A) (A) (A) (A) (A) (A) (A) (A) (A) (A)
                 (A) (A) (A) (A) (A) (A) (A) (A) (A) (A) (A) (A)
                 (A) (A) (A) (A) (A) (A) (A) (A) (A) (A) (A) (A)
                 (A) (A) (A) (A) (A) (A) (A) (A) (A) (A) (A) (A)
                 (A) (A) (A) (A) (A) (A) (A) (A) (A) (A) (A) (A)
                 (A) (A) (A) (A) (A) (A) (A) (A) (A) (A) (A) (A)
                 (A) (A) (A) (A) (A) (A) (A) (A) (A) (A) (A) (A)
                 (A) (A) (A) (A) (A) (A) (A) (A) (A) (A) (A) (A)
                 (A) (A) (A) (A) (A) (A) (A) (A) (A) (A) (A) (A)
                 (A) (A) (A) (A) (A) (A) (A) (A) (A) (A) (A) (A)
                 (A) (A) (A) (A) (A) (A) (A) (A) (A) (A) (A) (A)
                 (A) (A) (A) (A) (A) (A) (A) (A) (A) (A) (A) (A)
                 (A) (A) (A) (A) (A) (A) (A) (A) (A) (A) (A) (A)
                 (A) (A) (A) (A) (A) (A) (A) (A) (A) (A) (A) (A)
                 (A) (A) (A) (A) (A) (A) (A) (A) (A) (A) (A) (A)
                 (A) (A) (A) (A) (A) (A) (A) (A) (A) (A) (A) (A)
                 (A) (A) (A) (A) (A) (A) (A) (A) (A) (A) (A) (A)
                 (A) (A) (A) (A) (A) (A) (A) (A) (A) (A) (A) (A)
                 (A) (A) (A) (A) (A) (A) (A) (A) (A) (A) (A) (A)
                 (A) (A) (A) (A) (A) (A) (A) (A) (A) (A) (A) (A)
                 (A) (A) (A) (A) (A) (A) (A) (A) (A) (A) (A) (A)
                 (A) (A) (A) (A) (A) (A) (A) (A) (A) (A) (A) (A)
                 (A) (A) (A) (A) (A) (A) (A) (A) (A) (A) (A) (A)
                 (A) (A) (A) (A) (A) (A) (A) (A) (A) (A) (A) (A)
                 (A) (A) (A) (A) (A) (A) (A) (A) (A) (A) (A) (A)
                 (A) (A) (A) (A) (A) (A) (A) (A) (A) (A) (A) (A)
                 (A) (A) (A) (A) (A) (A) (A) (A) (A) (A) (A) (A)
                 (A)
 The electronic state is 1-A.
 Alpha  occ. eigenvalues --  -10.22978 -10.21229 -10.20958 -10.20563 -10.20390
 Alpha  occ. eigenvalues --  -10.20364 -10.20340 -10.20031 -10.19955 -10.19754
 Alpha  occ. eigenvalues --  -10.19697 -10.19399 -10.19239 -10.19220 -10.19182
 Alpha  occ. eigenvalues --  -10.19119 -10.19043 -10.19015 -10.18980 -10.18946
 Alpha  occ. eigenvalues --  -10.18770 -10.18698 -10.18505 -10.18400 -10.18237
 Alpha  occ. eigenvalues --  -10.18104 -10.17848 -10.17237 -10.16841 -10.16434
 Alpha  occ. eigenvalues --   -0.92312  -0.89434  -0.88330  -0.85502  -0.84292
 Alpha  occ. eigenvalues --   -0.83544  -0.80831  -0.80147  -0.78628  -0.77771
 Alpha  occ. eigenvalues --   -0.75660  -0.75029  -0.72832  -0.71855  -0.70663
 Alpha  occ. eigenvalues --   -0.67161  -0.66056  -0.64226  -0.63602  -0.62839
 Alpha  occ. eigenvalues --   -0.60604  -0.59340  -0.58493  -0.57159  -0.56268
 Alpha  occ. eigenvalues --   -0.53270  -0.52305  -0.51903  -0.51395  -0.50284
 Alpha  occ. eigenvalues --   -0.49182  -0.48172  -0.47257  -0.46883  -0.46075
 Alpha  occ. eigenvalues --   -0.45107  -0.44634  -0.44150  -0.43808  -0.43307
 Alpha  occ. eigenvalues --   -0.42811  -0.42563  -0.41690  -0.40880  -0.40348
 Alpha  occ. eigenvalues --   -0.40329  -0.40053  -0.39565  -0.38733  -0.38145
 Alpha  occ. eigenvalues --   -0.36635  -0.36157  -0.35755  -0.34948  -0.34801
 Alpha  occ. eigenvalues --   -0.34278  -0.33672  -0.33291  -0.32613  -0.31404
 Alpha  occ. eigenvalues --   -0.28894  -0.28683  -0.27647  -0.26440  -0.23118
 Alpha  occ. eigenvalues --   -0.22379  -0.21216  -0.16582
 Alpha virt. eigenvalues --   -0.13533  -0.09318  -0.05108  -0.03684  -0.02859
 Alpha virt. eigenvalues --   -0.02134  -0.00285   0.00096   0.00552   0.00783
 Alpha virt. eigenvalues --    0.01187   0.01486   0.01773   0.02432   0.02768
 Alpha virt. eigenvalues --    0.03031   0.03061   0.03756   0.03820   0.04539
 Alpha virt. eigenvalues --    0.04618   0.04888   0.05366   0.05493   0.06205
 Alpha virt. eigenvalues --    0.06575   0.06824   0.07107   0.07251   0.07463
 Alpha virt. eigenvalues --    0.07868   0.08439   0.08496   0.08892   0.09467
 Alpha virt. eigenvalues --    0.09893   0.10148   0.10231   0.10444   0.10843
 Alpha virt. eigenvalues --    0.11018   0.11419   0.11794   0.12461   0.12975
 Alpha virt. eigenvalues --    0.13162   0.13547   0.13965   0.14332   0.14374
 Alpha virt. eigenvalues --    0.14571   0.14822   0.15056   0.15143   0.15412
 Alpha virt. eigenvalues --    0.15994   0.16400   0.16431   0.16501   0.16759
 Alpha virt. eigenvalues --    0.16926   0.17053   0.17216   0.17693   0.17885
 Alpha virt. eigenvalues --    0.18158   0.18249   0.18360   0.18614   0.19018
 Alpha virt. eigenvalues --    0.19183   0.19421   0.19551   0.19681   0.19752
 Alpha virt. eigenvalues --    0.20174   0.20312   0.20545   0.20817   0.20986
 Alpha virt. eigenvalues --    0.21144   0.21206   0.21430   0.21617   0.21934
 Alpha virt. eigenvalues --    0.22341   0.22583   0.22657   0.23306   0.23309
 Alpha virt. eigenvalues --    0.23520   0.23661   0.23837   0.24148   0.24548
 Alpha virt. eigenvalues --    0.24850   0.25265   0.25385   0.25565   0.25736
 Alpha virt. eigenvalues --    0.25879   0.26068   0.26197   0.26524   0.26651
 Alpha virt. eigenvalues --    0.26737   0.26979   0.27190   0.27650   0.27928
 Alpha virt. eigenvalues --    0.28100   0.28291   0.28661   0.28855   0.29339
 Alpha virt. eigenvalues --    0.29459   0.29601   0.30115   0.30194   0.30461
 Alpha virt. eigenvalues --    0.30976   0.31131   0.31268   0.31651   0.31758
 Alpha virt. eigenvalues --    0.32464   0.32668   0.33005   0.33241   0.33787
 Alpha virt. eigenvalues --    0.34035   0.34232   0.34393   0.34891   0.35344
 Alpha virt. eigenvalues --    0.35941   0.36141   0.36565   0.37176   0.37392
 Alpha virt. eigenvalues --    0.37687   0.38409   0.38762   0.39308   0.39832
 Alpha virt. eigenvalues --    0.39944   0.40210   0.40727   0.41779   0.42238
 Alpha virt. eigenvalues --    0.43078   0.43766   0.44147   0.44597   0.45323
 Alpha virt. eigenvalues --    0.45978   0.47236   0.47642   0.48040   0.48971
 Alpha virt. eigenvalues --    0.49944   0.50871   0.50982   0.51522   0.51885
 Alpha virt. eigenvalues --    0.52330   0.52391   0.52756   0.53414   0.53841
 Alpha virt. eigenvalues --    0.54061   0.54843   0.54918   0.55225   0.55525
 Alpha virt. eigenvalues --    0.55998   0.56710   0.56967   0.57670   0.57829
 Alpha virt. eigenvalues --    0.58197   0.58667   0.58834   0.59282   0.59447
 Alpha virt. eigenvalues --    0.59638   0.59977   0.60313   0.60478   0.60862
 Alpha virt. eigenvalues --    0.61212   0.61578   0.61905   0.62584   0.63097
 Alpha virt. eigenvalues --    0.63677   0.64261   0.64894   0.65255   0.65517
 Alpha virt. eigenvalues --    0.66078   0.66502   0.66682   0.67556   0.67922
 Alpha virt. eigenvalues --    0.68207   0.69150   0.69283   0.69566   0.69900
 Alpha virt. eigenvalues --    0.70468   0.70657   0.71081   0.71481   0.71674
 Alpha virt. eigenvalues --    0.72066   0.72373   0.72631   0.73152   0.73313
 Alpha virt. eigenvalues --    0.73481   0.73540   0.73927   0.74528   0.74744
 Alpha virt. eigenvalues --    0.75489   0.75640   0.75995   0.76326   0.77029
 Alpha virt. eigenvalues --    0.77198   0.77349   0.77986   0.78531   0.79218
 Alpha virt. eigenvalues --    0.79411   0.81047   0.81230   0.81877   0.82057
 Alpha virt. eigenvalues --    0.82909   0.83169   0.83703   0.84341   0.84576
 Alpha virt. eigenvalues --    0.85050   0.85744   0.86137   0.86613   0.87136
 Alpha virt. eigenvalues --    0.87563   0.87987   0.88736   0.89008   0.89293
 Alpha virt. eigenvalues --    0.89404   0.90036   0.90380   0.91025   0.91706
 Alpha virt. eigenvalues --    0.92054   0.92117   0.92515   0.92874   0.93378
 Alpha virt. eigenvalues --    0.93918   0.94364   0.94828   0.95054   0.95379
 Alpha virt. eigenvalues --    0.96034   0.96902   0.97129   0.97523   0.98216
 Alpha virt. eigenvalues --    0.98700   0.99358   1.00236   1.00706   1.01533
 Alpha virt. eigenvalues --    1.01765   1.02583   1.03502   1.03965   1.04818
 Alpha virt. eigenvalues --    1.05323   1.05944   1.06850   1.06984   1.07279
 Alpha virt. eigenvalues --    1.07829   1.08338   1.08915   1.09725   1.10638
 Alpha virt. eigenvalues --    1.10854   1.11243   1.11705   1.12095   1.14016
 Alpha virt. eigenvalues --    1.14647   1.15727   1.16947   1.17490   1.19133
 Alpha virt. eigenvalues --    1.19533   1.21226   1.22720   1.23473   1.24343
 Alpha virt. eigenvalues --    1.25362   1.27397   1.27870   1.28420   1.29291
 Alpha virt. eigenvalues --    1.31044   1.32688   1.33400   1.35442   1.35865
 Alpha virt. eigenvalues --    1.37010   1.37713   1.38834   1.40654   1.40901
 Alpha virt. eigenvalues --    1.42449   1.42971   1.44244   1.45049   1.45449
 Alpha virt. eigenvalues --    1.45983   1.46409   1.48180   1.48382   1.48893
 Alpha virt. eigenvalues --    1.50132   1.50721   1.50849   1.51100   1.51463
 Alpha virt. eigenvalues --    1.51964   1.52559   1.53178   1.54267   1.54773
 Alpha virt. eigenvalues --    1.54921   1.55065   1.56026   1.56673   1.57813
 Alpha virt. eigenvalues --    1.58058   1.58298   1.58467   1.59497   1.60190
 Alpha virt. eigenvalues --    1.61496   1.61911   1.62237   1.63046   1.63510
 Alpha virt. eigenvalues --    1.65286   1.66460   1.67074   1.67360   1.67936
 Alpha virt. eigenvalues --    1.69460   1.69955   1.70106   1.71279   1.71801
 Alpha virt. eigenvalues --    1.72409   1.72850   1.73633   1.74029   1.74308
 Alpha virt. eigenvalues --    1.75240   1.75834   1.76293   1.76634   1.77106
 Alpha virt. eigenvalues --    1.77971   1.78161   1.79199   1.80508   1.81417
 Alpha virt. eigenvalues --    1.82132   1.82404   1.83328   1.84289   1.84775
 Alpha virt. eigenvalues --    1.86049   1.86371   1.86769   1.87386   1.87801
 Alpha virt. eigenvalues --    1.88122   1.88502   1.89721   1.90270   1.90522
 Alpha virt. eigenvalues --    1.91126   1.91400   1.92187   1.92383   1.93991
 Alpha virt. eigenvalues --    1.94071   1.94623   1.94924   1.96389   1.96445
 Alpha virt. eigenvalues --    1.97435   1.97758   1.97905   1.98844   1.99119
 Alpha virt. eigenvalues --    1.99399   2.00613   2.01760   2.02699   2.03546
 Alpha virt. eigenvalues --    2.03955   2.04375   2.04776   2.05730   2.06823
 Alpha virt. eigenvalues --    2.07694   2.08408   2.09133   2.10571   2.11154
 Alpha virt. eigenvalues --    2.12385   2.12589   2.13620   2.14440   2.16385
 Alpha virt. eigenvalues --    2.17515   2.17848   2.19192   2.19920   2.20632
 Alpha virt. eigenvalues --    2.21070   2.21242   2.21857   2.22844   2.23345
 Alpha virt. eigenvalues --    2.25115   2.25326   2.27409   2.27969   2.28778
 Alpha virt. eigenvalues --    2.29633   2.31010   2.33584   2.34237   2.35309
 Alpha virt. eigenvalues --    2.36493   2.37900   2.39323   2.40383   2.41343
 Alpha virt. eigenvalues --    2.42168   2.42914   2.44030   2.45039   2.46673
 Alpha virt. eigenvalues --    2.48751   2.48959   2.50051   2.51211   2.53911
 Alpha virt. eigenvalues --    2.54293   2.55509   2.55902   2.56758   2.57916
 Alpha virt. eigenvalues --    2.58125   2.60223   2.61164   2.62660   2.64118
 Alpha virt. eigenvalues --    2.66389   2.67001   2.67625   2.69454   2.70177
 Alpha virt. eigenvalues --    2.71051   2.71501   2.71767   2.72012   2.72493
 Alpha virt. eigenvalues --    2.73019   2.73123   2.74027   2.74733   2.75113
 Alpha virt. eigenvalues --    2.75182   2.75778   2.76099   2.76132   2.76428
 Alpha virt. eigenvalues --    2.77115   2.77873   2.78145   2.78915   2.79697
 Alpha virt. eigenvalues --    2.79903   2.80704   2.80936   2.81091   2.83212
 Alpha virt. eigenvalues --    2.83949   2.84839   2.85163   2.86130   2.86357
 Alpha virt. eigenvalues --    2.87321   2.88317   2.89170   2.89788   2.90177
 Alpha virt. eigenvalues --    2.91485   2.91778   2.93779   2.94477   2.95335
 Alpha virt. eigenvalues --    2.96540   2.98626   2.99831   3.01695   3.02192
 Alpha virt. eigenvalues --    3.04248   3.05006   3.05691   3.07558   3.08248
 Alpha virt. eigenvalues --    3.11993   3.13204   3.13551   3.15424   3.16895
 Alpha virt. eigenvalues --    3.18479   3.18630   3.20217   3.20635   3.21648
 Alpha virt. eigenvalues --    3.22040   3.22342   3.23923   3.24902   3.27798
 Alpha virt. eigenvalues --    3.29163   3.32870   3.33574   3.34794   3.36106
 Alpha virt. eigenvalues --    3.37397   3.38032   3.38509   3.40562   3.41101
 Alpha virt. eigenvalues --    3.41856   3.42986   3.43912   3.45768   3.47519
 Alpha virt. eigenvalues --    3.48700   3.49344   3.51855   3.53682   3.54648
 Alpha virt. eigenvalues --    3.55974   3.57883   3.60603   3.61721   3.61912
 Alpha virt. eigenvalues --    3.67530   3.69325   3.74047   3.76876   3.83062
 Alpha virt. eigenvalues --    3.83919   3.88266   3.94935   3.98985   4.02563
 Alpha virt. eigenvalues --    4.03863   4.05732   4.06407   4.07705   4.08637
 Alpha virt. eigenvalues --    4.10452   4.14905   4.19883   4.23713   4.26212
 Alpha virt. eigenvalues --    4.30432   4.33398   4.45931   4.59511   4.66664
 Alpha virt. eigenvalues --    4.71034   4.73657   4.74205   4.76177   4.82054
 Alpha virt. eigenvalues --    4.85915   4.89356  23.40823  23.61050  23.67690
 Alpha virt. eigenvalues --   23.76832  23.81147  23.83320  23.84802  23.87626
 Alpha virt. eigenvalues --   23.87921  23.89483  23.92913  23.94441  23.96813
 Alpha virt. eigenvalues --   23.98641  24.00236  24.01111  24.03636  24.04591
 Alpha virt. eigenvalues --   24.05446  24.05633  24.06958  24.08345  24.10229
 Alpha virt. eigenvalues --   24.11441  24.12588  24.13807  24.15132  24.17633
 Alpha virt. eigenvalues --   24.17839  24.19708
          Condensed to atoms (all electrons):
               1          2          3          4          5          6
     1  C   12.997398   1.440475  -0.837640  -0.236179  -2.570698   0.521374
     2  C    1.440475   7.420640  -0.035691   0.168101  -0.749875   0.512202
     3  C   -0.837640  -0.035691   8.573475   1.972131   1.863901  -1.740317
     4  C   -0.236179   0.168101   1.972131  11.273227  -0.348716  -2.281754
     5  C   -2.570698  -0.749875   1.863901  -0.348716  11.444933   0.390689
     6  C    0.521374   0.512202  -1.740317  -2.281754   0.390689  10.472597
     7  C   -1.406363  -0.586701   0.968497  -0.119237   0.264732  -1.493404
     8  C   -0.337155  -0.423215   0.706938   0.153358   0.384912  -0.414854
     9  C    0.051856  -0.110589   0.701607  -0.603484  -0.167406  -0.189852
    10  C   -0.000873  -0.326785  -0.909792  -1.980885  -0.498374   0.144057
    11  C   -1.401052  -0.313434  -0.679865  -0.350846  -0.056664  -0.297926
    12  C    0.023358   0.129726  -0.112785  -0.071055  -0.253880  -0.053047
    13  C   -0.104802  -0.393858  -0.585721   0.083336   0.034748  -0.069094
    14  C   -0.096946  -0.134826  -0.518651  -0.319370  -0.004964  -0.006284
    15  C    1.129196   0.377169  -0.510460  -0.444099  -1.043976   0.061043
    16  C    0.436634  -0.347501  -0.439406  -0.168158  -0.495152   0.256373
    17  C   -0.872090   0.449835  -0.304320  -0.078262  -0.669519  -0.006263
    18  C    0.570436   0.711417  -0.918643  -0.177081  -1.488914   0.112529
    19  C    0.064328   0.027401  -0.071165  -0.061696  -0.018217  -0.004528
    20  C    0.333313   0.090536  -0.399011   0.115021   0.024687   0.048561
    21  C    0.101250  -0.018005   0.077974   0.000653   0.018613   0.005049
    22  C   -0.020055  -0.032883  -0.118655   0.003915   0.005814   0.004952
    23  C   -1.218416  -0.603254  -0.116030  -0.131505  -0.135987  -0.055556
    24  C    0.050855  -0.252864  -0.074409  -0.004862  -0.305560   0.008455
    25  C    0.281553  -0.448098  -0.027152  -0.069747   0.016429   0.034226
    26  C   -1.273218   0.029324  -0.262473  -0.041771  -0.012431  -0.119966
    27  C   -1.518445  -0.255365  -0.241383  -0.163114   0.100500  -0.267733
    28  C   -0.265771   0.071620  -0.037035  -0.014809   0.027666  -0.034426
    29  C   -0.119637  -0.301683  -0.025215  -0.026646   0.013804   0.000328
    30  C    0.034272   0.040926  -0.015428   0.012991  -0.012729   0.002505
    31  H    0.000036   0.000030   0.000010  -0.000000   0.000002  -0.000000
    32  H    0.000163   0.000486   0.000202   0.000002  -0.000006   0.000003
    33  H   -0.010374  -0.024598   0.001577  -0.005385  -0.001499  -0.000356
    34  H    0.000166  -0.000348   0.000043  -0.000004   0.000017   0.000001
    35  H    0.002188   0.000876   0.000202  -0.000026   0.000453  -0.000006
    36  H    0.045483   0.007299   0.001331   0.000412   0.004468   0.000365
    37  H   -0.041448   0.007674   0.000951   0.005059   0.041228   0.008906
    38  H   -0.061338   0.021673  -0.033899  -0.044466   0.341150   0.030672
    39  H   -0.027196  -0.012198   0.033252  -0.067194  -0.000918   0.366963
    40  H    0.010961   0.000408   0.015674  -0.101967   0.011008   0.050868
[...]
 0544,-0.00001168,0.00000702,-0.00003585,-0.00000647,-0.00001715,0.0000
 2302,-0.00002462,0.00005617,0.00000773,-0.00000157,0.00013615,-0.00002
 386,0.00017064,0.00009968,0.00004176,0.00002236,-0.00003052,0.00005985
 ,-0.00008968,0.00008018,-0.00000201,-0.00000213,-0.00000120,0.00000736
 ,-0.00000632,-0.00003409,-0.00002982,0.00003825,0.00003332,-0.00000181
 ,0.00000794,-0.00000276,-0.00000377,0.00000202,-0.00000108,0.00000272,
 0.00000291,-0.00000115,0.00000080,0.00000225,-0.00000222,-0.00000176,0
 .00000232,-0.00000164,0.00000321,0.00000081,0.00000258,0.00000520,0.00
 000799,0.00000021,-0.00001040,-0.00001109,-0.00000370,-0.00013409,0.00
 033104,0.00018420,0.12344914,-0.00002850,0.00004406,0.00001432,0.00003
 614,-0.00016396,-0.00006458,-0.00009569,0.00008002,0.00004482,-0.00001
 221,-0.00000939,-0.00001770,-0.00001850,-0.00006659,0.00003008,0.00003
 764,0.00001826,0.00000172,0.00013351,0.00013063,-0.00006194,-0.0003838
 2,-0.00005147,0.00035155,0.00005911,-0.00000138,-0.00010765,-0.0000130
 6,-0.00006635,0.00000194,0.00093278,-0.00076773,0.00005561,-0.00332320
 ,-0.00073990,-0.00333479,0.01223340,-0.01428697,-0.00856978,0.00150443
 ,0.00039362,0.00133458,0.00000428,-0.00001718,-0.00000437,0.00002879,-
 0.00000466,0.00001786,-0.00004084,-0.00001046,0.00002392,-0.00030565,0
 .00002158,-0.00007582,0.10531182,-0.23311644,-0.08845917,-0.00081694,-
 0.00007621,-0.00015408,0.00037623,0.00378805,-0.00188234,-0.00030644,0
 .00138773,-0.00167550,0.00000142,-0.00000608,-0.00000053,0.00002133,-0
 .00001482,0.00001831,-0.00002814,-0.00008997,0.00004369,0.00003854,0.0
 0000277,0.00002195,-0.00014774,-0.00000492,0.00029469,0.00007252,0.000
 01422,0.00017243,-0.00009426,0.00001416,-0.00008295,0.00006375,0.00002
 370,-0.00007830,-0.00000204,-0.00000267,0.00000814,0.00000114,0.000002
 49,0.00003240,0.00000504,-0.00000826,0.00000868,0.00000267,0.00000189,
 0.00001413,0.00000037,-0.00000475,0.00000293,0.00000209,-0.00000032,0.
 00000154,0.00000229,-0.00000248,-0.00000146,-0.00000259,-0.00000201,-0
 .00000179,-0.00000679,-0.00000937,-0.00000284,-0.00000581,-0.00000367,
 0.00000742,-0.00002012,0.00000538,0.00000474,-0.00096011,0.00034464,0.
 00004198,-0.11408776,0.24374494,-0.00012587,0.00012812,-0.00005954,-0.
 00005681,-0.00012543,0.00032926,-0.00007043,-0.00004433,-0.00000529,0.
 00002289,-0.00004378,-0.00002628,0.00000432,0.00001703,-0.00004314,-0.
 00004556,-0.00002294,0.00001372,0.00001225,0.00011227,0.00010003,-0.00
 003256,0.00020877,-0.00034894,-0.00004678,-0.00007138,0.00010797,0.000
 02800,0.00004689,0.00002806,0.00050378,-0.00039026,-0.00099855,-0.0011
 8014,-0.00347993,0.00404415,0.00730567,-0.01116419,-0.00068182,0.00070
 254,0.00132875,-0.00176250,0.00011857,0.00002739,0.00001792,-0.0000797
 1,0.00000038,-0.00001831,0.00004407,0.00000919,-0.00003087,0.00002310,
 0.00016208,-0.00028767,0.04479671,-0.08935715,-0.07819315,-0.00066949,
 0.00009260,0.00005446,-0.00177733,-0.00312468,0.00530714,-0.00362688,0
 .00325868,0.00536603,0.00004948,0.00000419,0.00002524,-0.00004818,-0.0
 0002723,-0.00001932,0.00034786,0.00016479,0.00002573,-0.00019246,0.000
 20778,-0.00005080,0.00051724,0.00003270,-0.00075164,0.00004947,-0.0003
 7279,-0.00022530,-0.00003887,-0.00025403,0.00023231,-0.00017657,0.0002
 2944,-0.00006641,0.00001796,0.00000076,-0.00001285,0.00001615,0.000039
 14,-0.00001562,-0.00005023,0.00002725,0.00001373,-0.00000178,-0.000009
 83,-0.00001701,0.00000485,0.00000566,-0.00000196,0.00000018,-0.0000073
 1,0.00000576,0.00000066,-0.00000971,0.00000033,-0.00000840,-0.00000694
 ,0.00000218,-0.00000118,0.00000284,0.00001008,-0.00000819,0.00000458,-
 0.00001281,-0.00001931,-0.00000006,-0.00000003,-0.00048931,-0.00005975
 ,0.00037757,-0.04580263,0.09979079,0.07031452,0.00005711,0.00007006,-0
 .00003660,-0.00009663,-0.00010281,0.00000346,-0.00009157,-0.00016934,-
 0.00002392,0.00009307,0.00010788,-0.00002086,-0.00010284,0.00005332,0.
 00001164,0.00001768,-0.00013256,0.00003007,0.00012255,0.00018865,0.000
 06949,-0.00055618,-0.00009108,0.00008370,0.00005640,-0.00009257,-0.000
 04806,-0.00006353,-0.00001445,0.00000362,0.00007762,-0.00030371,0.0000
 3461,-0.00016854,0.00080250,-0.00012693,-0.00502726,0.00231317,-0.0009
 3203,0.00035489,-0.00120438,-0.00043733,-0.00001296,0.00000503,0.00000
 591,0.00000842,-0.00002047,0.00000822,-0.00000253,0.00002894,-0.000051
 97,-0.00003301,0.00009321,0.00000028,-0.01182931,-0.02410801,-0.015702
 69,-0.00098006,0.00342201,0.00131037,0.01131503,0.01302924,0.00823340,
 -0.12393669,-0.09664180,-0.06696546,-0.00001532,-0.00000322,-0.0000008
 5,-0.00000931,0.00002279,-0.00001352,-0.00004752,0.00005274,-0.0000195
 8,0.00001185,-0.00010315,0.00005100,0.00054068,0.00030852,0.00040601,0
 .00005971,0.00001554,-0.00011175,0.00007189,0.00005253,-0.00001046,-0.
 00002646,-0.00008065,0.00003866,-0.00000891,0.00001109,0.00000776,-0.0
 0001549,-0.00001316,0.00000412,-0.00006576,0.00013297,0.00015852,0.000
 00092,0.00000097,-0.00000037,0.00000316,0.00000140,-0.00000115,-0.0000
 0163,-0.00000362,0.00000053,0.00000100,-0.00000370,0.00000105,-0.00000
 439,-0.00000473,-0.00000170,-0.00000283,-0.00000272,-0.00000615,-0.000
 00596,-0.00001578,0.00000864,-0.00000816,0.00000800,0.00000183,-0.0000
 4080,0.00007989,-0.00003209,0.00082221,-0.00013320,0.00077398,0.129399
 07,-0.00000050,-0.00005513,0.00000603,-0.00000575,0.00004296,-0.000004
 50,-0.00002771,-0.00010121,-0.00003837,0.00002851,-0.00002668,0.000012
 47,0.00006789,0.00001277,-0.00001096,-0.00004444,0.00004579,0.00000091
 ,0.00024716,-0.00002632,0.00003145,0.00010668,0.00015748,0.00034629,-0
 .00005798,-0.00002960,0.00000247,-0.00004333,0.00006575,-0.00001696,-0
 .00020542,-0.00015111,0.00007781,0.00058722,0.00009397,0.00055263,0.00
 217115,0.00227524,-0.00283299,-0.00035407,0.00006767,0.00011712,-0.000
 02851,-0.00005262,0.00001439,-0.00000598,0.00005962,-0.00000919,0.0000
 9005,-0.00009305,0.00005479,-0.00007803,0.00010659,0.00001358,0.003251
 20,0.00535906,0.00146368,0.00337064,-0.00149201,-0.00421740,-0.0136043
 1,-0.01323658,-0.01115119,-0.09743215,-0.20164942,-0.10477639,-0.00001
 619,-0.00001191,0.00000714,0.00001406,0.00000839,0.00000328,-0.0001128
 3,-0.00003547,-0.00002291,0.00000105,-0.00006919,-0.00008684,-0.000804
 24,-0.00002086,-0.00029576,-0.00012003,0.00000735,0.00003511,0.0000434
 1,0.00002492,0.00003765,0.00004955,0.00006473,-0.00000951,0.00002888,-
 0.00000954,-0.00000375,0.00000647,0.00000921,-0.00001856,0.00014360,-0
 .00028799,-0.00015670,0.00001165,-0.00001598,-0.00000651,0.00000786,-0
 .00001274,0.00000179,-0.00000037,-0.00000947,0.00000058,-0.00000370,-0
 .00000729,0.00000170,-0.00000191,-0.00000599,0.00000384,-0.00000515,0.
 00000075,0.00000055,-0.00000147,0.00000183,0.00000473,-0.00001066,0.00
 000322,0.00000008,-0.00002148,0.00003280,-0.00008405,-0.00055436,-0.00
 033413,0.00217522,0.10319479,0.20960016,-0.00007388,-0.00006603,0.0000
 5861,0.00024224,0.00007414,0.00002822,0.00010804,0.00042165,0.00003071
 ,-0.00021713,-0.00009671,0.00002849,0.00005771,-0.00005670,-0.00001431
 ,-0.00000221,0.00010809,-0.00003402,-0.00058041,-0.00019606,-0.0000262
 5,-0.00006124,0.00017265,-0.00057327,0.00004614,0.00000242,-0.00003821
 ,0.00006856,-0.00007921,0.00004458,0.00039777,0.00067322,-0.00016298,-
 0.00050616,-0.00027298,0.00016325,-0.00119811,-0.00166827,0.00699486,0
 .00003781,-0.00027727,-0.00028747,0.00003015,0.00005217,-0.00002487,-0
 .00001499,-0.00001169,-0.00000285,0.00003269,0.00004472,0.00004357,0.0
 0011777,-0.00030064,-0.00014182,-0.00171551,-0.00363134,0.00171623,0.0
 0168703,-0.00347304,0.00390083,-0.00542523,-0.00842995,-0.00191737,-0.
 06726818,-0.10422461,-0.10652359,0.00001098,0.00000392,-0.00000068,0.0
 0000479,-0.00000647,0.00000374,0.00004908,-0.00002978,0.00000285,0.000
 03477,0.00002062,0.00002665,-0.00082935,0.00016784,-0.00019232,0.00009
 233,-0.00012337,0.00010684,-0.00004048,-0.00009003,0.00004247,-0.00003
 875,0.00012269,-0.00009049,0.00001799,-0.00000956,-0.00000415,0.000026
 77,0.00001508,-0.00000111,0.00003676,-0.00010226,-0.00018522,0.0000002
 5,-0.00000027,0.00000280,0.00000066,-0.00000288,0.00000345,-0.00000116
 ,-0.00000075,0.00000185,-0.00000094,-0.00000158,0.00000227,0.00000511,
 -0.00000016,0.00000040,-0.00000272,0.00000131,0.00000852,-0.00000613,-
 0.00000771,-0.00000279,0.00000526,0.00000456,0.00000175,0.00001571,-0.
 00008688,0.00019072,0.00062822,0.00227464,-0.00320866,0.07326102,0.116
 75536,0.10158625,-0.00011280,0.00009188,-0.00001226,-0.00003594,-0.000
 09095,0.00002915,-0.00006641,0.00011251,-0.00008863,-0.00002241,-0.000
 06364,0.00003683,0.00003074,-0.00008188,0.00000949,0.00001870,0.000075
 72,0.00001495,-0.00004996,-0.00028560,-0.00027641,0.00002326,-0.000119
 76,0.00009172,0.00003808,-0.00001283,-0.00001992,-0.00000931,-0.000036
 86,-0.00000172,-0.00067505,0.00039013,-0.00034184,0.00115355,-0.001996
 77,-0.00024643,0.00005391,0.00005635,0.00019460,0.00018611,0.00008249,
 -0.00002520,0.00013372,-0.00001150,0.00001514,-0.00007078,-0.00001083,
 0.00000004,0.00012816,-0.00001277,0.00007928,-0.00003476,0.00022429,0.
 00002531,0.00090785,0.00218523,0.00102103,-0.01264522,-0.00191620,-0.0
 0199151,-0.33684788,0.01231217,-0.03132026,-0.00940817,-0.00212399,-0.
 00127369,0.00004818,0.00004186,0.00000051,0.00000643,-0.00009890,0.000
 06459,0.00032103,-0.00007094,-0.00007867,-0.00030919,-0.00017436,0.000
 04863,-0.00113645,0.00136059,0.00098137,0.00057990,0.00052840,0.000774
 49,-0.00028917,-0.00054508,0.00023490,-0.00035910,0.00114417,-0.000013
 36,-0.00006974,0.00006586,0.00013090,0.00005481,0.00040182,0.00009897,
 -0.00010531,-0.00012114,-0.00012220,-0.00000910,-0.00000352,0.00000160
 ,-0.00000054,0.00000240,-0.00000282,0.00000701,-0.00000164,-0.00000350
 ,0.00000395,-0.00000488,-0.00000451,0.00000195,-0.00000122,-0.00000112
 ,-0.00000488,-0.00000820,-0.00000344,-0.00000581,-0.00000329,-0.000002
 40,-0.00000077,0.00000260,0.00000071,0.00000895,0.00002414,-0.00002523
 ,-0.00041524,-0.00004269,-0.00036479,0.00070077,-0.00008792,0.00027282
 ,0.35781292,0.00015941,-0.00026891,0.00002430,0.00044187,0.00017216,0.
 00004318,-0.00034251,-0.00013896,0.00003440,0.00042195,-0.00006572,-0.
 00002439,-0.00003148,0.00005493,0.00003666,-0.00003934,-0.00015059,0.0
 0003212,0.00064949,-0.00025451,0.00034632,0.00024303,0.00064758,0.0001
 6314,-0.00026841,-0.00009119,-0.00003209,-0.00001836,0.00035520,0.0000
 2544,-0.00111259,0.00128980,-0.00075581,-0.00241653,-0.00096309,-0.003
 78399,0.00082485,-0.00066440,-0.00007659,-0.00085465,-0.00038458,0.000
 35417,-0.00036153,0.00004809,-0.00000561,0.00024606,0.00000905,0.00003
 392,-0.00025567,0.00004111,-0.00012807,-0.00001901,-0.00080936,-0.0002
 0486,0.00104171,-0.00259941,-0.00457569,-0.02308111,0.00164484,-0.0035
 4049,0.01049001,-0.04834492,-0.00977359,0.02533497,0.00280385,0.002326
 91,-0.00025199,-0.00002248,-0.00004552,0.00003499,0.00015776,-0.000024
 17,-0.00147430,0.00004636,-0.00037679,0.00076551,-0.00111372,0.0006360
 9,-0.00116560,0.00108335,0.00169284,-0.00037445,0.00204033,0.00005986,
 0.00145775,0.00100194,-0.00036540,0.00099660,-0.00214447,0.00123627,0.
 00002293,-0.00002712,-0.00006996,0.00008202,-0.00031713,-0.00040415,-0
 .00016780,0.00016142,0.00009670,0.00001699,0.00005171,-0.00005067,0.00
 000190,-0.00000387,-0.00000454,-0.00000060,-0.00000874,-0.00000635,-0.
 00000406,-0.00000622,0.00000403,-0.00000998,-0.00000235,-0.00000288,-0
 .00000058,-0.00000683,-0.00002849,0.00000737,0.00000871,0.00001253,-0.
 00001542,-0.00000537,-0.00001160,-0.00008777,0.00002223,-0.00000624,0.
 00110207,-0.00012171,0.00023275,-0.00069568,-0.00016626,0.00188888,-0.
 01121257,0.04785327,0.00000187,0.00066239,-0.00024348,-0.00072493,-0.0
 0064222,-0.00000638,-0.00045564,-0.00045023,0.00004616,0.00033560,0.00
 021671,-0.00016750,-0.00034409,0.00009024,0.00005954,0.00006503,-0.000
 36470,0.00006225,0.00006253,-0.00016637,0.00000526,-0.00017795,-0.0008
 7062,-0.00047821,0.00013973,0.00006367,0.00014755,-0.00007814,-0.00006
 648,0.00002092,-0.00173916,-0.00102064,0.00086844,0.00368138,-0.004147
 46,-0.00046971,-0.00137412,0.00002206,-0.00053127,0.00139857,0.0007872
 1,-0.00007544,0.00034216,-0.00003758,0.00007653,-0.00016005,0.00009008
 ,-0.00003007,-0.00013823,-0.00006363,0.00000349,0.00021372,0.00118496,
 0.00007627,0.00154861,-0.00351062,0.00368589,-0.01540878,0.00519813,0.
 00562181,-0.02948786,-0.01372207,-0.04079415,0.01023357,0.00142261,0.0
 0416835,0.00019866,0.00000431,0.00004097,-0.00003658,-0.00021589,0.000
 02053,0.00076193,0.00010916,0.00008066,-0.00028992,0.00126326,-0.00067
 896,0.00157712,-0.00000680,-0.00230320,-0.00038558,-0.00196966,-0.0013
 5731,-0.00049483,-0.00032694,0.00042177,0.00002915,0.00056052,-0.00020
 739,0.00007218,-0.00006887,0.00001390,0.00022646,-0.00023171,-0.000686
 23,0.00022514,0.00004420,0.00018575,-0.00002084,0.00004827,0.00000145,
 -0.00001750,0.00001557,0.00000687,0.00000963,0.00000863,0.00001575,0.0
 0000884,-0.00001021,-0.00001792,-0.00001342,0.00000059,-0.00000863,0.0
 0001189,-0.00000821,0.00001975,-0.00000194,0.00000550,-0.00002341,-0.0
 0000755,-0.00000362,0.00000274,-0.00004637,-0.00002530,0.00005674,0.00
 046031,-0.00003752,0.00022917,0.00014839,0.00199079,-0.00211735,0.0318
 2499,0.01426910,0.03404372,-0.00181229,0.00703058,-0.00252203,-0.00925
 421,-0.00548771,-0.00041966,-0.00085402,-0.00473558,-0.00079412,0.0001
 9965,0.00099737,-0.00034397,-0.00179563,0.00097063,0.00024812,-0.00030
 935,-0.00140922,0.00060927,0.00132590,0.00122023,0.00037448,-0.0039923
 8,-0.00948176,-0.00182391,0.00240017,0.00244755,0.00006004,0.00009821,
 -0.00286195,-0.00017512,-0.01345556,-0.04513339,-0.00271159,0.04403144
 ,0.04080805,-0.04287218,-0.02120807,0.00731723,0.01758970,0.01386394,0
 .00621836,0.00250402,0.00489919,-0.00054752,0.00080983,-0.00219974,-0.
 00169524,0.00083969,0.00883885,0.00149822,0.00161469,-0.00332916,0.020
 45967,-0.00020382,0.01133881,0.00542687,0.00349382,0.04282402,-0.01198
 092,0.07610063,-0.01138921,-0.03890563,-0.03650691,-0.02237716,0.01148
 742,0.00377177,0.00095121,-0.00000018,0.00028149,-0.00076611,-0.000348
 28,-0.00000907,0.00628593,0.00083002,-0.00086744,-0.00955291,-0.003268
 00,-0.00015820,-0.00563791,0.02180680,0.00224867,0.00359621,-0.0016212
 3,-0.00063346,-0.00318058,-0.00377949,0.00179922,-0.00171414,0.0026693
 4,-0.00238532,-0.00004916,0.00006349,-0.00009988,-0.00024719,0.0000006
 2,0.00060843,-0.00121105,0.00107628,-0.00264405,-0.00007234,-0.0000437
 1,0.00012315,0.00002783,0.00008593,-0.00010924,-0.00001285,0.00001528,
 0.00002229,0.00011257,-0.00006156,-0.00015082,-0.00007673,-0.00002925,
 -0.00003664,-0.00000189,-0.00002887,-0.00008308,-0.00002299,0.00004010
 ,-0.00001520,0.00012266,0.00001829,0.00011294,0.00033419,0.00049590,-0
 .00086183,0.00005754,0.00000678,-0.00042627,-0.00056036,0.00020666,0.0
 0069414,0.00046399,-0.00007949,-0.00217395,-0.02668930,0.00043945,0.00
 060196,-0.00028608,-0.00032226,-0.00078183,-0.00055661,-0.00053479,-0.
 00045532,0.00015130,0.00034872,0.00063405,-0.00004493,-0.00102350,0.00
 058435,0.00014737,0.00008711,-0.00113083,0.00019446,-0.00115055,0.0013
 4668,-0.00004643,-0.00044692,-0.00153721,-0.00095541,0.00027825,0.0003
 4041,0.00004519,0.00026055,-0.00034572,-0.00013468,-0.00158799,-0.0088
 2039,0.00496221,-0.01594028,-0.01966420,0.02408371,0.00379223,0.003018
 76,-0.00812174,0.00231297,-0.00011129,0.00033450,-0.00011057,0.0003347
 0,-0.00014045,-0.00015340,0.00030497,-0.00011453,-0.00138974,0.0008503
 3,0.00002284,0.00051868,-0.00123585,-0.00088504,-0.00163995,-0.0007619
 2,-0.00105057,0.01484400,-0.02528013,0.03323069,-0.00488287,0.00281369
 ,-0.01063318,0.00103481,-0.00082772,-0.00192723,0.00031411,-0.00006277
 ,0.00006634,-0.00020447,-0.00001449,0.00015242,0.00075312,0.00029509,0
 .00072095,0.00170401,0.00111592,-0.00094045,0.00454756,-0.01238561,0.0
 0076940,-0.00078993,0.00071430,-0.00008059,0.00005855,-0.00029751,-0.0
 0010148,-0.00044412,-0.00038329,0.00097044,-0.00004425,0.00006649,-0.0
 0004929,0.00009465,-0.00021506,-0.00032672,0.00096490,-0.00197247,-0.0
 0134230,0.00001445,-0.00005278,-0.00012560,0.00000036,-0.00001636,0.00
 004423,-0.00001577,-0.00001138,-0.00001132,-0.00000215,-0.00001144,-0.
 00000114,-0.00002143,-0.00000039,-0.00001816,0.00001566,0.00000825,-0.
 00005204,0.00001199,0.00000990,0.00001479,0.00002433,0.00000329,0.0000
 0544,0.00001499,-0.00025783,0.00053187,-0.00001474,-0.00003423,0.00026
 170,-0.00005444,-0.00013971,0.00044221,0.00003731,-0.00081178,-0.00009
 060,-0.00169864,0.06457641,0.00112302,0.00086004,-0.00022302,-0.001824
 66,-0.00120533,-0.00036095,-0.00053001,-0.00116045,-0.00008543,0.00031
 866,0.00158053,-0.00049792,-0.00137112,-0.00008247,0.00018424,0.000796
 66,-0.00123998,0.00019876,0.00104189,-0.00029187,-0.00021055,-0.001825
 15,-0.00219451,-0.00097613,0.00142469,0.00056909,0.00007962,-0.0003976
 3,-0.00115030,-0.00002471,-0.00583350,-0.00318914,0.00750087,0.0457777
 5,0.02597774,-0.07135928,-0.00438918,0.00216054,-0.00169807,0.00417270
 ,0.00075573,0.00123914,-0.00019256,-0.00039900,0.00011318,0.00048831,-
 0.00024168,0.00034810,0.00122641,-0.00093741,0.00023000,-0.00058864,0.
 00312679,0.00142208,0.00074031,0.00116160,-0.00032275,-0.02936017,0.03
 526619,-0.05887837,0.00243572,-0.00694648,-0.00511261,-0.00313769,-0.0
 0161254,-0.00043487,-0.00046501,0.00000679,-0.00016900,0.00051516,0.00
 012615,-0.00000999,-0.00217543,-0.00088789,0.00067200,0.00131454,-0.00
 206927,-0.00114301,0.00379016,-0.00779678,0.00151244,-0.00154493,-0.00
 043686,-0.00074124,-0.00007422,0.00147003,-0.00095520,0.00103993,-0.00
 019975,0.00023342,-0.00001274,-0.00000896,0.00016641,-0.00006363,0.000
 23446,0.00036761,0.00259716,-0.00297310,0.00352485,0.00001693,0.000048
 96,0.00010991,-0.00002031,-0.00003781,0.00003526,0.00001505,0.00002837
 ,-0.00000274,0.00001159,0.00002116,-0.00000148,-0.00000646,0.00000514,
 -0.00003652,0.00000908,-0.00004981,0.00005700,-0.00000912,-0.00003331,
 -0.00002715,-0.00002654,0.00001222,0.00007220,-0.00027191,0.00007096,-
 0.00001197,-0.00001159,-0.00000176,0.00023311,-0.00011282,0.00003111,0
 .00055990,0.00026790,0.00074833,0.00021439,-0.01487862,-0.03911546,0.1
 2420845\\0.00000263,0.00000077,-0.00000043,-0.00000300,-0.00000200,0.0
 0000154,0.00000113,-0.00000401,-0.00000108,0.00000027,-0.00000251,0.00
 000111,0.00000198,-0.00000231,-0.00000015,0.00000226,-0.00000340,-0.00
 000004,-0.00000148,-0.00000167,-0.00000511,-0.00000176,-0.00000294,-0.
 00000040,-0.00000070,-0.00000354,-0.00000044,0.00000017,-0.00000366,-0
 .00000097,-0.00000376,-0.00000733,-0.00000067,0.00000884,0.00000085,0.
 00000053,-0.00000749,0.00000273,0.00000409,0.00000184,-0.00000172,-0.0
 0000129,0.00000436,0.00000067,0.00000065,0.00000099,-0.00000061,0.0000
 0165,0.00000389,-0.00000032,-0.00000072,0.00000190,0.00000392,-0.00000
 174,0.00000012,0.00000153,0.00000260,0.00000390,0.00000379,-0.00000844
 ,-0.00000047,-0.00000312,-0.00000214,-0.00001016,0.00000249,0.00000136
 ,0.00000341,0.00000246,0.00000047,0.00000073,0.00000202,0.00000104,0.0
 0000431,0.00000088,0.00000175,-0.00000359,0.00000108,-0.00000034,0.000
 00120,0.00000230,0.00000041,0.00000284,0.00000190,0.00000492,-0.000002
 80,0.00000166,-0.00000040,-0.00000303,0.00000476,-0.00000297,-0.000000
 40,0.00000397,0.00000034,-0.00000153,0.00000316,0.00000064,0.00000175,
 -0.00000075,0.00000601,0.00000106,0.00000435,0.00000143,0.00000223,0.0
 0000272,0.00000082,0.00000338,0.00000136,0.00000039,0.00000325,-0.0000
 0064,-0.00000015,0.00000307,-0.00000247,0.00000003,0.00000189,-0.00000
 407,-0.00000064,-0.00000013,-0.00000435,-0.00000075,-0.00000191,-0.000
 00381,-0.00000068,-0.00000295,-0.00000193,-0.00000068,-0.00000353,-0.0
 0000025,0.00000025,-0.00000394,0.00000165,-0.00000004,-0.00000189,0.00
 000245,-0.00000054,-0.00000891,0.00000393,-0.00000123\\\@


 BLACK HOLES SUCK.
 Job cpu time:       1 days  2 hours 17 minutes 31.8 seconds.
 Elapsed time:       0 days  1 hours 19 minutes  6.1 seconds.
 File lengths (MBytes):  RWF=   2277 Int=      0 D2E=      0 Chk=     62 Scr=      1
 Normal termination of Gaussian 16 at Fri Aug 30 21:01:23 2019.
