 Entering Gaussian System, Link 0=/share/apps/gaussian16/g16/g16
 Initial command:
 /share/apps/gaussian16/g16/l1.exe "/home/amen01//scratch/970/Gau-39124.inp" -scrdir="/home/amen01//scratch/970/"
 Entering Link 1 = /share/apps/gaussian16/g16/l1.exe PID=     39125.
  
 Copyright (c) 1988-2017, Gaussian, Inc.  All Rights Reserved.
  
 This is part of the Gaussian(R) 16 program.  It is based on
 the Gaussian(R) 09 system (copyright 2009, Gaussian, Inc.),
 the Gaussian(R) 03 system (copyright 2003, Gaussian, Inc.),
 the Gaussian(R) 98 system (copyright 1998, Gaussian, Inc.),
 the Gaussian(R) 94 system (copyright 1995, Gaussian, Inc.),
 the Gaussian 92(TM) system (copyright 1992, Gaussian, Inc.),
 the Gaussian 90(TM) system (copyright 1990, Gaussian, Inc.),
 the Gaussian 88(TM) system (copyright 1988, Gaussian, Inc.),
 the Gaussian 86(TM) system (copyright 1986, Carnegie Mellon
 University), and the Gaussian 82(TM) system (copyright 1983,
 Carnegie Mellon University). Gaussian is a federally registered
 trademark of Gaussian, Inc.
  
 This software contains proprietary and confidential information,
 including trade secrets, belonging to Gaussian, Inc.
  
 This software is provided under written license and may be
 used, copied, transmitted, or stored only in accord with that
 written license.
  
 The following legend is applicable only to US Government
 contracts under FAR:
  
                    RESTRICTED RIGHTS LEGEND
  
 Use, reproduction and disclosure by the US Government is
 subject to restrictions as set forth in subparagraphs (a)
 and (c) of the Commercial Computer Software - Restricted
 Rights clause in FAR 52.227-19.
  
 Gaussian, Inc.
 340 Quinnipiac St., Bldg. 40, Wallingford CT 06492
  
  
 ---------------------------------------------------------------
 Warning -- This program may not be used in any manner that
 competes with the business of Gaussian, Inc. or will provide
 assistance to any competitor of Gaussian, Inc.  The licensee
 of this program is prohibited from giving any competitor of
 Gaussian, Inc. access to this program.  By using this program,
 the user acknowledges that Gaussian, Inc. is engaged in the
 business of creating and licensing software in the field of
 computational chemistry and represents and warrants to the
 licensee that it is not a competitor of Gaussian, Inc. and that
 it will not use this program in any manner prohibited above.
 ---------------------------------------------------------------
  

 Cite this work as:
 Gaussian 16, Revision B.01,
 M. J. Frisch, G. W. Trucks, H. B. Schlegel, G. E. Scuseria, 
 M. A. Robb, J. R. Cheeseman, G. Scalmani, V. Barone, 
 G. A. Petersson, H. Nakatsuji, X. Li, M. Caricato, A. V. Marenich, 
 J. Bloino, B. G. Janesko, R. Gomperts, B. Mennucci, H. P. Hratchian, 
 J. V. Ortiz, A. F. Izmaylov, J. L. Sonnenberg, D. Williams-Young, 
 F. Ding, F. Lipparini, F. Egidi, J. Goings, B. Peng, A. Petrone, 
 T. Henderson, D. Ranasinghe, V. G. Zakrzewski, J. Gao, N. Rega, 
 G. Zheng, W. Liang, M. Hada, M. Ehara, K. Toyota, R. Fukuda, 
 J. Hasegawa, M. Ishida, T. Nakajima, Y. Honda, O. Kitao, H. Nakai, 
 T. Vreven, K. Throssell, J. A. Montgomery, Jr., J. E. Peralta, 
 F. Ogliaro, M. J. Bearpark, J. J. Heyd, E. N. Brothers, K. N. Kudin, 
 V. N. Staroverov, T. A. Keith, R. Kobayashi, J. Normand, 
 K. Raghavachari, A. P. Rendell, J. C. Burant, S. S. Iyengar, 
 J. Tomasi, M. Cossi, J. M. Millam, M. Klene, C. Adamo, R. Cammi, 
 J. W. Ochterski, R. L. Martin, K. Morokuma, O. Farkas, 
 J. B. Foresman, and D. J. Fox, Gaussian, Inc., Wallingford CT, 2016.
 
 ******************************************
 Gaussian 16:  ES64L-G16RevB.01 20-Dec-2017
                27-Aug-2019 
 ******************************************
 %nprocshared=20
 Will use up to   20 processors via shared memory.
 %mem=180GB
 %chk=7-memb-dirTSguess-2cis.chk
 ---------------------------------------------------------------
 # opt=(ts,calcfc,noeigen) freq b3lyp/6-311+g(d,p) int=grid=fine
 ---------------------------------------------------------------
 1/5=1,10=4,11=1,18=20,26=3,38=1/1,3;
 2/9=110,12=2,17=6,18=5,40=1/2;
 3/5=4,6=6,7=111,11=2,25=1,30=1,71=2,74=-5,75=-4,140=1/1,2,3;
 4//1;
 5/5=2,38=5/2;
 8/6=4,10=90,11=11/1;
 11/6=1,8=1,9=11,15=111,16=1/1,2,10;
 10/6=1,13=1/2;
 6/7=2,8=2,9=2,10=2,28=1/1;
 7/10=1,18=20,25=1/1,2,3,16;
 1/5=1,10=4,11=1,18=20,26=3/3(2);
 2/9=110/2;
 99//99;
 2/9=110/2;
 3/5=4,6=6,7=111,11=2,25=1,30=1,71=1,74=-5,75=-4/1,2,3;
 4/5=5,16=3,69=1/1;
 5/5=2,38=5/2;
 7//1,2,3,16;
 1/5=1,11=1,18=20,26=3/3(-5);
 2/9=110/2;
 6/7=2,8=2,9=2,10=2,19=2,28=1/1;
 99/9=1/99;
 ----------------------
 7-memb-dirTSguess-2cis
 ----------------------
 Symbolic Z-matrix:
 Charge =  0 Multiplicity = 1
 C                    -1.49153  -2.81635   0.12064 
 C                    -1.37093  -1.47768  -0.26623 
 C                    -2.49926  -0.64368  -0.39124 
 C                    -3.80359  -1.03421  -0.16059 
 C                    -2.8544   -3.28103   0.25746 
 C                    -3.94989  -2.43729   0.12887 
 C                    -2.05887   0.67457  -0.46957 
 C                    -2.9236    1.76641  -0.30124 
 C                    -4.32563   1.38862  -0.19437 
 C                    -4.73874   0.07159  -0.12306 
 C                    -0.64106   0.68598  -0.4456 
 C                    -0.01117   1.87437  -0.21951 
 C                    -0.85652   3.03988   0.05432 
 C                    -2.28818   2.9924   -0.07341 
 C                    -0.26089  -3.43976   0.40392 
 C                     0.95349  -2.71945   0.34547 
 C                     1.01857  -1.30265   0.02977 
 C                    -0.19599  -0.71172  -0.30482 
 C                    -0.2321    4.11075   0.7009 
 C                     1.47742   2.01833  -0.20084 
 C                     1.93558   3.02415   0.82709 
 C                     1.11618   4.05549   1.1606 
 C                     2.19055  -3.40311   0.59553 
 C                     3.37764  -2.77024   0.44299 
 C                     3.46565  -1.38514   0.05777 
 C                     2.2799   -0.59381  -0.05696 
 C                     2.42702   0.80169  -0.40653 
 C                     3.70576   1.24784  -0.774 
 C                     4.72927  -0.85034  -0.25028 
 C                     4.84278   0.44525  -0.71164 
 H                     5.80552   0.84719  -1.00575 
 H                     3.82152   2.27695  -1.09696 
 H                     0.86922   0.49013  -2.26961 
 H                     5.60418  -1.48471  -0.15918 
 H                     4.30736  -3.31129   0.58362 
 H                     2.15825  -4.45196   0.87067 
 H                    -0.21993  -4.48484   0.69473 
 H                    -3.03105  -4.32122   0.51121 
 H                    -4.94001  -2.85084   0.2934 
 H                    -5.79744  -0.12928   0.00885 
 H                    -5.07289   2.17141  -0.11565 
 H                    -2.85228   3.88667   0.16806 
 H                    -0.8374    4.96639   0.98395 
 H                     1.47393   4.84587   1.81093 
 H                     2.95278   2.96985   1.19421 
 H                     1.65349   2.59455  -1.1251 
 
 Add virtual bond connecting atoms H33        and C11        Dist= 4.49D+00.
 Add virtual bond connecting atoms H33        and C27        Dist= 4.63D+00.
 Add virtual bond connecting atoms H33        and H46        Dist= 4.76D+00.

 GradGradGradGradGradGradGradGradGradGradGradGradGradGradGradGradGradGrad
 Berny optimization.
 Initialization pass.
                           ----------------------------
                           !    Initial Parameters    !
                           ! (Angstroms and Degrees)  !
 --------------------------                            --------------------------
 ! Name  Definition              Value          Derivative Info.                !
 --------------------------------------------------------------------------------
 ! R1    R(1,2)                  1.3987         calculate D2E/DX2 analytically  !
 ! R2    R(1,5)                  1.4464         calculate D2E/DX2 analytically  !
 ! R3    R(1,15)                 1.4083         calculate D2E/DX2 analytically  !
 ! R4    R(2,3)                  1.4087         calculate D2E/DX2 analytically  !
 ! R5    R(2,18)                 1.4031         calculate D2E/DX2 analytically  !
 ! R6    R(3,4)                  1.3809         calculate D2E/DX2 analytically  !
 ! R7    R(3,7)                  1.3921         calculate D2E/DX2 analytically  !
 ! R8    R(4,6)                  1.4401         calculate D2E/DX2 analytically  !
 ! R9    R(4,10)                 1.4487         calculate D2E/DX2 analytically  !
 ! R10   R(5,6)                  1.3887         calculate D2E/DX2 analytically  !
 ! R11   R(5,38)                 1.0852         calculate D2E/DX2 analytically  !
 ! R12   R(6,39)                 1.0856         calculate D2E/DX2 analytically  !
 ! R13   R(7,8)                  1.4029         calculate D2E/DX2 analytically  !
 ! R14   R(7,11)                 1.4181         calculate D2E/DX2 analytically  !
 ! R15   R(8,9)                  1.456          calculate D2E/DX2 analytically  !
 ! R16   R(8,14)                 1.3995         calculate D2E/DX2 analytically  !
 ! R17   R(9,10)                 1.3821         calculate D2E/DX2 analytically  !
 ! R18   R(9,41)                 1.0851         calculate D2E/DX2 analytically  !
 ! R19   R(10,40)                1.0856         calculate D2E/DX2 analytically  !
 ! R20   R(11,12)                1.3639         calculate D2E/DX2 analytically  !
 ! R21   R(11,18)                1.4736         calculate D2E/DX2 analytically  !
 ! R22   R(11,33)                2.3762         calculate D2E/DX2 analytically  !
 ! R23   R(12,13)                1.4656         calculate D2E/DX2 analytically  !
 ! R24   R(12,20)                1.4957         calculate D2E/DX2 analytically  !
 ! R25   R(13,14)                1.4381         calculate D2E/DX2 analytically  !
 ! R26   R(13,19)                1.3981         calculate D2E/DX2 analytically  !
 ! R27   R(14,42)                1.0845         calculate D2E/DX2 analytically  !
 ! R28   R(15,16)                1.4131         calculate D2E/DX2 analytically  !
 ! R29   R(15,37)                1.0856         calculate D2E/DX2 analytically  !
 ! R30   R(16,17)                1.453          calculate D2E/DX2 analytically  !
 ! R31   R(16,23)                1.4353         calculate D2E/DX2 analytically  !
 ! R32   R(17,18)                1.3915         calculate D2E/DX2 analytically  !
 ! R33   R(17,26)                1.4495         calculate D2E/DX2 analytically  !
 ! R34   R(19,22)                1.4256         calculate D2E/DX2 analytically  !
 ! R35   R(19,43)                1.0856         calculate D2E/DX2 analytically  !
 ! R36   R(20,21)                1.5094         calculate D2E/DX2 analytically  !
 ! R37   R(20,27)                1.557          calculate D2E/DX2 analytically  !
 ! R38   R(20,46)                1.1033         calculate D2E/DX2 analytically  !
 ! R39   R(21,22)                1.3588         calculate D2E/DX2 analytically  !
 ! R40   R(21,45)                1.0828         calculate D2E/DX2 analytically  !
 ! R41   R(22,44)                1.0843         calculate D2E/DX2 analytically  !
 ! R42   R(23,24)                1.3539         calculate D2E/DX2 analytically  !
 ! R43   R(23,36)                1.0848         calculate D2E/DX2 analytically  !
 ! R44   R(24,25)                1.4404         calculate D2E/DX2 analytically  !
 ! R45   R(24,35)                1.0848         calculate D2E/DX2 analytically  !
 ! R46   R(25,26)                1.4302         calculate D2E/DX2 analytically  !
 ! R47   R(25,29)                1.4063         calculate D2E/DX2 analytically  !
 ! R48   R(26,27)                1.4461         calculate D2E/DX2 analytically  !
 ! R49   R(27,28)                1.4033         calculate D2E/DX2 analytically  !
 ! R50   R(27,33)                2.4484         calculate D2E/DX2 analytically  !
 ! R51   R(28,30)                1.3931         calculate D2E/DX2 analytically  !
 ! R52   R(28,32)                1.0848         calculate D2E/DX2 analytically  !
 ! R53   R(29,30)                1.38           calculate D2E/DX2 analytically  !
 ! R54   R(29,34)                1.0845         calculate D2E/DX2 analytically  !
 ! R55   R(30,31)                1.0839         calculate D2E/DX2 analytically  !
 ! R56   R(33,46)                2.5206         calculate D2E/DX2 analytically  !
 ! A1    A(2,1,5)              114.5133         calculate D2E/DX2 analytically  !
 ! A2    A(2,1,15)             113.8261         calculate D2E/DX2 analytically  !
 ! A3    A(5,1,15)             131.4627         calculate D2E/DX2 analytically  !
 ! A4    A(1,2,3)              121.4755         calculate D2E/DX2 analytically  !
 ! A5    A(1,2,18)             127.0353         calculate D2E/DX2 analytically  !
 ! A6    A(3,2,18)             110.1882         calculate D2E/DX2 analytically  !
 ! A7    A(2,3,4)              125.0512         calculate D2E/DX2 analytically  !
 ! A8    A(2,3,7)              108.1945         calculate D2E/DX2 analytically  !
 ! A9    A(4,3,7)              125.1704         calculate D2E/DX2 analytically  !
 ! A10   A(3,4,6)              113.8948         calculate D2E/DX2 analytically  !
 ! A11   A(3,4,10)             113.4636         calculate D2E/DX2 analytically  !
 ! A12   A(6,4,10)             132.2925         calculate D2E/DX2 analytically  !
 ! A13   A(1,5,6)              122.6391         calculate D2E/DX2 analytically  !
 ! A14   A(1,5,38)             118.9114         calculate D2E/DX2 analytically  !
 ! A15   A(6,5,38)             118.4001         calculate D2E/DX2 analytically  !
 ! A16   A(4,6,5)              122.0348         calculate D2E/DX2 analytically  !
 ! A17   A(4,6,39)             119.6227         calculate D2E/DX2 analytically  !
 ! A18   A(5,6,39)             118.2952         calculate D2E/DX2 analytically  !
 ! A19   A(3,7,8)              122.3599         calculate D2E/DX2 analytically  !
 ! A20   A(3,7,11)             108.843          calculate D2E/DX2 analytically  !
 ! A21   A(8,7,11)             127.4434         calculate D2E/DX2 analytically  !
 ! A22   A(7,8,9)              113.6038         calculate D2E/DX2 analytically  !
 ! A23   A(7,8,14)             114.925          calculate D2E/DX2 analytically  !
 ! A24   A(9,8,14)             130.7345         calculate D2E/DX2 analytically  !
 ! A25   A(8,9,10)             122.6061         calculate D2E/DX2 analytically  !
 ! A26   A(8,9,41)             118.7703         calculate D2E/DX2 analytically  !
 ! A27   A(10,9,41)            118.5456         calculate D2E/DX2 analytically  !
 ! A28   A(4,10,9)             122.2137         calculate D2E/DX2 analytically  !
 ! A29   A(4,10,40)            119.4343         calculate D2E/DX2 analytically  !
 ! A30   A(9,10,40)            118.2971         calculate D2E/DX2 analytically  !
 ! A31   A(7,11,12)            118.1366         calculate D2E/DX2 analytically  !
 ! A32   A(7,11,18)            107.215          calculate D2E/DX2 analytically  !
 ! A33   A(7,11,33)            128.4505         calculate D2E/DX2 analytically  !
 ! A34   A(12,11,18)           132.1546         calculate D2E/DX2 analytically  !
 ! A35   A(12,11,33)            84.5787         calculate D2E/DX2 analytically  !
 ! A36   A(18,11,33)            78.6497         calculate D2E/DX2 analytically  !
 ! A37   A(11,12,13)           117.2263         calculate D2E/DX2 analytically  !
 ! A38   A(11,12,20)           123.0655         calculate D2E/DX2 analytically  !
 ! A39   A(13,12,20)           119.6823         calculate D2E/DX2 analytically  !
 ! A40   A(12,13,14)           122.0965         calculate D2E/DX2 analytically  !
 ! A41   A(12,13,19)           115.9702         calculate D2E/DX2 analytically  !
 ! A42   A(14,13,19)           120.7284         calculate D2E/DX2 analytically  !
 ! A43   A(8,14,13)            119.6932         calculate D2E/DX2 analytically  !
 ! A44   A(8,14,42)            121.4936         calculate D2E/DX2 analytically  !
 ! A45   A(13,14,42)           118.0857         calculate D2E/DX2 analytically  !
 ! A46   A(1,15,16)            121.1295         calculate D2E/DX2 analytically  !
 ! A47   A(1,15,37)            120.8645         calculate D2E/DX2 analytically  !
 ! A48   A(16,15,37)           117.9934         calculate D2E/DX2 analytically  !
 ! A49   A(15,16,17)           122.9901         calculate D2E/DX2 analytically  !
 ! A50   A(15,16,23)           119.3829         calculate D2E/DX2 analytically  !
 ! A51   A(17,16,23)           117.625          calculate D2E/DX2 analytically  !
 ! A52   A(16,17,18)           115.2923         calculate D2E/DX2 analytically  !
 ! A53   A(16,17,26)           121.9261         calculate D2E/DX2 analytically  !
 ! A54   A(18,17,26)           122.5126         calculate D2E/DX2 analytically  !
 ! A55   A(2,18,11)            105.5156         calculate D2E/DX2 analytically  !
 ! A56   A(2,18,17)            119.5028         calculate D2E/DX2 analytically  !
 ! A57   A(11,18,17)           133.582          calculate D2E/DX2 analytically  !
 ! A58   A(13,19,22)           122.8095         calculate D2E/DX2 analytically  !
 ! A59   A(13,19,43)           118.3744         calculate D2E/DX2 analytically  !
 ! A60   A(22,19,43)           118.2809         calculate D2E/DX2 analytically  !
 ! A61   A(12,20,21)           112.0088         calculate D2E/DX2 analytically  !
 ! A62   A(12,20,27)           122.0154         calculate D2E/DX2 analytically  !
 ! A63   A(12,20,46)           101.4573         calculate D2E/DX2 analytically  !
 ! A64   A(21,20,27)           115.1856         calculate D2E/DX2 analytically  !
 ! A65   A(21,20,46)           100.023          calculate D2E/DX2 analytically  !
 ! A66   A(27,20,46)           101.5434         calculate D2E/DX2 analytically  !
 ! A67   A(20,21,22)           119.3341         calculate D2E/DX2 analytically  !
 ! A68   A(20,21,45)           118.8579         calculate D2E/DX2 analytically  !
 ! A69   A(22,21,45)           121.4234         calculate D2E/DX2 analytically  !
 ! A70   A(19,22,21)           121.3736         calculate D2E/DX2 analytically  !
 ! A71   A(19,22,44)           118.5045         calculate D2E/DX2 analytically  !
 ! A72   A(21,22,44)           120.1012         calculate D2E/DX2 analytically  !
 ! A73   A(16,23,24)           120.8912         calculate D2E/DX2 analytically  !
 ! A74   A(16,23,36)           118.6223         calculate D2E/DX2 analytically  !
 ! A75   A(24,23,36)           120.4395         calculate D2E/DX2 analytically  !
 ! A76   A(23,24,25)           122.2231         calculate D2E/DX2 analytically  !
 ! A77   A(23,24,35)           120.2449         calculate D2E/DX2 analytically  !
 ! A78   A(25,24,35)           117.5102         calculate D2E/DX2 analytically  !
 ! A79   A(24,25,26)           120.1913         calculate D2E/DX2 analytically  !
 ! A80   A(24,25,29)           118.6323         calculate D2E/DX2 analytically  !
 ! A81   A(26,25,29)           121.1306         calculate D2E/DX2 analytically  !
 ! A82   A(17,26,25)           116.4934         calculate D2E/DX2 analytically  !
 ! A83   A(17,26,27)           125.0934         calculate D2E/DX2 analytically  !
 ! A84   A(25,26,27)           117.9692         calculate D2E/DX2 analytically  !
 ! A85   A(20,27,26)           131.3051         calculate D2E/DX2 analytically  !
 ! A86   A(20,27,28)           109.9935         calculate D2E/DX2 analytically  !
 ! A87   A(20,27,33)            79.159          calculate D2E/DX2 analytically  !
 ! A88   A(26,27,28)           117.5682         calculate D2E/DX2 analytically  !
 ! A89   A(26,27,33)            89.7948         calculate D2E/DX2 analytically  !
 ! A90   A(28,27,33)           114.8955         calculate D2E/DX2 analytically  !
 ! A91   A(27,28,30)           123.2866         calculate D2E/DX2 analytically  !
 ! A92   A(27,28,32)           118.4774         calculate D2E/DX2 analytically  !
 ! A93   A(30,28,32)           118.2137         calculate D2E/DX2 analytically  !
 ! A94   A(25,29,30)           120.2772         calculate D2E/DX2 analytically  !
 ! A95   A(25,29,34)           118.9495         calculate D2E/DX2 analytically  !
 ! A96   A(30,29,34)           120.7235         calculate D2E/DX2 analytically  !
 ! A97   A(28,30,29)           119.2559         calculate D2E/DX2 analytically  !
 ! A98   A(28,30,31)           119.9422         calculate D2E/DX2 analytically  !
 ! A99   A(29,30,31)           120.7912         calculate D2E/DX2 analytically  !
 ! A100  A(11,33,27)            79.0357         calculate D2E/DX2 analytically  !
 ! A101  A(11,33,46)            77.3146         calculate D2E/DX2 analytically  !
 ! A102  A(27,33,46)            49.4811         calculate D2E/DX2 analytically  !
 ! A103  A(20,46,33)            83.955          calculate D2E/DX2 analytically  !
 ! D1    D(5,1,2,3)              5.2172         calculate D2E/DX2 analytically  !
 ! D2    D(5,1,2,18)           170.8745         calculate D2E/DX2 analytically  !
 ! D3    D(15,1,2,3)          -170.2672         calculate D2E/DX2 analytically  !
 ! D4    D(15,1,2,18)           -4.6098         calculate D2E/DX2 analytically  !
 ! D5    D(2,1,5,6)             -5.3269         calculate D2E/DX2 analytically  !
 ! D6    D(2,1,5,38)           177.2741         calculate D2E/DX2 analytically  !
 ! D7    D(15,1,5,6)           169.158          calculate D2E/DX2 analytically  !
 ! D8    D(15,1,5,38)           -8.241          calculate D2E/DX2 analytically  !
 ! D9    D(2,1,15,16)            2.6098         calculate D2E/DX2 analytically  !
 ! D10   D(2,1,15,37)         -178.7042         calculate D2E/DX2 analytically  !
 ! D11   D(5,1,15,16)         -171.9048         calculate D2E/DX2 analytically  !
 ! D12   D(5,1,15,37)            6.7811         calculate D2E/DX2 analytically  !
 ! D13   D(1,2,3,4)             -0.2214         calculate D2E/DX2 analytically  !
 ! D14   D(1,2,3,7)            166.0018         calculate D2E/DX2 analytically  !
 ! D15   D(18,2,3,4)          -168.0586         calculate D2E/DX2 analytically  !
 ! D16   D(18,2,3,7)            -1.8354         calculate D2E/DX2 analytically  !
 ! D17   D(1,2,18,11)         -166.2339         calculate D2E/DX2 analytically  !
 ! D18   D(1,2,18,17)            2.0448         calculate D2E/DX2 analytically  !
 ! D19   D(3,2,18,11)            0.7572         calculate D2E/DX2 analytically  !
 ! D20   D(3,2,18,17)          169.036          calculate D2E/DX2 analytically  !
 ! D21   D(2,3,4,6)             -4.7191         calculate D2E/DX2 analytically  !
 ! D22   D(2,3,4,10)           169.3465         calculate D2E/DX2 analytically  !
 ! D23   D(7,3,4,6)           -168.6523         calculate D2E/DX2 analytically  !
 ! D24   D(7,3,4,10)             5.4133         calculate D2E/DX2 analytically  !
 ! D25   D(2,3,7,8)           -165.4446         calculate D2E/DX2 analytically  !
 ! D26   D(2,3,7,11)             2.1763         calculate D2E/DX2 analytically  !
 ! D27   D(4,3,7,8)              0.7581         calculate D2E/DX2 analytically  !
 ! D28   D(4,3,7,11)           168.3789         calculate D2E/DX2 analytically  !
 ! D29   D(3,4,6,5)              4.5173         calculate D2E/DX2 analytically  !
 ! D30   D(3,4,6,39)          -178.0296         calculate D2E/DX2 analytically  !
 ! D31   D(10,4,6,5)          -168.1164         calculate D2E/DX2 analytically  !
 ! D32   D(10,4,6,39)            9.3367         calculate D2E/DX2 analytically  !
 ! D33   D(3,4,10,9)            -5.4045         calculate D2E/DX2 analytically  !
 ! D34   D(3,4,10,40)          177.337          calculate D2E/DX2 analytically  !
 ! D35   D(6,4,10,9)           167.2537         calculate D2E/DX2 analytically  !
 ! D36   D(6,4,10,40)          -10.0049         calculate D2E/DX2 analytically  !
 ! D37   D(1,5,6,4)              0.4401         calculate D2E/DX2 analytically  !
 ! D38   D(1,5,6,39)          -177.0454         calculate D2E/DX2 analytically  !
 ! D39   D(38,5,6,4)           177.8518         calculate D2E/DX2 analytically  !
 ! D40   D(38,5,6,39)            0.3662         calculate D2E/DX2 analytically  !
 ! D41   D(3,7,8,9)             -6.663          calculate D2E/DX2 analytically  !
 ! D42   D(3,7,8,14)           164.579          calculate D2E/DX2 analytically  !
 ! D43   D(11,7,8,9)          -171.8571         calculate D2E/DX2 analytically  !
 ! D44   D(11,7,8,14)           -0.6152         calculate D2E/DX2 analytically  !
 ! D45   D(3,7,11,12)         -165.9503         calculate D2E/DX2 analytically  !
 ! D46   D(3,7,11,18)           -1.6995         calculate D2E/DX2 analytically  !
 ! D47   D(3,7,11,33)           87.3224         calculate D2E/DX2 analytically  !
 ! D48   D(8,7,11,12)            0.8655         calculate D2E/DX2 analytically  !
 ! D49   D(8,7,11,18)          165.1162         calculate D2E/DX2 analytically  !
 ! D50   D(8,7,11,33)         -105.8618         calculate D2E/DX2 analytically  !
 ! D51   D(7,8,9,10)             6.5103         calculate D2E/DX2 analytically  !
 ! D52   D(7,8,9,41)          -176.7511         calculate D2E/DX2 analytically  !
 ! D53   D(14,8,9,10)         -162.9903         calculate D2E/DX2 analytically  !
 ! D54   D(14,8,9,41)           13.7484         calculate D2E/DX2 analytically  !
 ! D55   D(7,8,14,13)           -3.8385         calculate D2E/DX2 analytically  !
 ! D56   D(7,8,14,42)         -173.8785         calculate D2E/DX2 analytically  !
 ! D57   D(9,8,14,13)          165.5511         calculate D2E/DX2 analytically  !
 ! D58   D(9,8,14,42)           -4.4889         calculate D2E/DX2 analytically  !
 ! D59   D(8,9,10,4)            -0.5172         calculate D2E/DX2 analytically  !
 ! D60   D(8,9,10,40)          176.7713         calculate D2E/DX2 analytically  !
 ! D61   D(41,9,10,4)         -177.2628         calculate D2E/DX2 analytically  !
 ! D62   D(41,9,10,40)           0.0256         calculate D2E/DX2 analytically  !
 ! D63   D(7,11,12,13)           3.2319         calculate D2E/DX2 analytically  !
 ! D64   D(7,11,12,20)        -178.6273         calculate D2E/DX2 analytically  !
 ! D65   D(18,11,12,13)       -156.2973         calculate D2E/DX2 analytically  !
 ! D66   D(18,11,12,20)         21.8435         calculate D2E/DX2 analytically  !
 ! D67   D(33,11,12,13)        134.3482         calculate D2E/DX2 analytically  !
 ! D68   D(33,11,12,20)        -47.5111         calculate D2E/DX2 analytically  !
 ! D69   D(7,11,18,2)            0.5693         calculate D2E/DX2 analytically  !
 ! D70   D(7,11,18,17)        -165.3033         calculate D2E/DX2 analytically  !
 ! D71   D(12,11,18,2)         161.733          calculate D2E/DX2 analytically  !
 ! D72   D(12,11,18,17)         -4.1396         calculate D2E/DX2 analytically  !
 ! D73   D(33,11,18,2)        -126.4292         calculate D2E/DX2 analytically  !
 ! D74   D(33,11,18,17)         67.6982         calculate D2E/DX2 analytically  !
 ! D75   D(7,11,33,27)         177.8097         calculate D2E/DX2 analytically  !
 ! D76   D(7,11,33,46)         127.2096         calculate D2E/DX2 analytically  !
 ! D77   D(12,11,33,27)         55.8377         calculate D2E/DX2 analytically  !
 ! D78   D(12,11,33,46)          5.2376         calculate D2E/DX2 analytically  !
 ! D79   D(18,11,33,27)        -79.125          calculate D2E/DX2 analytically  !
 ! D80   D(18,11,33,46)       -129.7251         calculate D2E/DX2 analytically  !
 ! D81   D(11,12,13,14)         -7.7886         calculate D2E/DX2 analytically  !
 ! D82   D(11,12,13,19)        159.7429         calculate D2E/DX2 analytically  !
 ! D83   D(20,12,13,14)        174.0048         calculate D2E/DX2 analytically  !
 ! D84   D(20,12,13,19)        -18.4637         calculate D2E/DX2 analytically  !
 ! D85   D(11,12,20,21)       -144.0843         calculate D2E/DX2 analytically  !
 ! D86   D(11,12,20,27)         -1.5177         calculate D2E/DX2 analytically  !
 ! D87   D(11,12,20,46)        110.0453         calculate D2E/DX2 analytically  !
 ! D88   D(13,12,20,21)         34.0127         calculate D2E/DX2 analytically  !
 ! D89   D(13,12,20,27)        176.5793         calculate D2E/DX2 analytically  !
 ! D90   D(13,12,20,46)        -71.8576         calculate D2E/DX2 analytically  !
 ! D91   D(12,13,14,8)           8.211          calculate D2E/DX2 analytically  !
 ! D92   D(12,13,14,42)        178.5877         calculate D2E/DX2 analytically  !
 ! D93   D(19,13,14,8)        -158.7389         calculate D2E/DX2 analytically  !
 ! D94   D(19,13,14,42)         11.6378         calculate D2E/DX2 analytically  !
 ! D95   D(12,13,19,22)         -4.4083         calculate D2E/DX2 analytically  !
 ! D96   D(12,13,19,43)       -175.8649         calculate D2E/DX2 analytically  !
 ! D97   D(14,13,19,22)        163.3066         calculate D2E/DX2 analytically  !
 ! D98   D(14,13,19,43)         -8.15           calculate D2E/DX2 analytically  !
 ! D99   D(1,15,16,17)           1.6428         calculate D2E/DX2 analytically  !
 ! D100  D(1,15,16,23)        -177.8286         calculate D2E/DX2 analytically  !
 ! D101  D(37,15,16,17)       -177.0798         calculate D2E/DX2 analytically  !
 ! D102  D(37,15,16,23)          3.4488         calculate D2E/DX2 analytically  !
 ! D103  D(15,16,17,18)         -4.2359         calculate D2E/DX2 analytically  !
 ! D104  D(15,16,17,26)       -178.4184         calculate D2E/DX2 analytically  !
 ! D105  D(23,16,17,18)        175.2442         calculate D2E/DX2 analytically  !
 ! D106  D(23,16,17,26)          1.0618         calculate D2E/DX2 analytically  !
 ! D107  D(15,16,23,24)        174.6625         calculate D2E/DX2 analytically  !
 ! D108  D(15,16,23,36)         -2.8538         calculate D2E/DX2 analytically  !
 ! D109  D(17,16,23,24)         -4.8371         calculate D2E/DX2 analytically  !
 ! D110  D(17,16,23,36)        177.6467         calculate D2E/DX2 analytically  !
 ! D111  D(16,17,18,2)           2.4458         calculate D2E/DX2 analytically  !
 ! D112  D(16,17,18,11)        166.7683         calculate D2E/DX2 analytically  !
 ! D113  D(26,17,18,2)         176.5905         calculate D2E/DX2 analytically  !
 ! D114  D(26,17,18,11)        -19.087          calculate D2E/DX2 analytically  !
 ! D115  D(16,17,26,25)          5.7835         calculate D2E/DX2 analytically  !
 ! D116  D(16,17,26,27)        177.9517         calculate D2E/DX2 analytically  !
 ! D117  D(18,17,26,25)       -167.9775         calculate D2E/DX2 analytically  !
 ! D118  D(18,17,26,27)          4.1907         calculate D2E/DX2 analytically  !
 ! D119  D(13,19,22,21)          9.5561         calculate D2E/DX2 analytically  !
 ! D120  D(13,19,22,44)       -168.7878         calculate D2E/DX2 analytically  !
 ! D121  D(43,19,22,21)       -178.9798         calculate D2E/DX2 analytically  !
 ! D122  D(43,19,22,44)          2.6763         calculate D2E/DX2 analytically  !
 ! D123  D(12,20,21,22)        -28.8903         calculate D2E/DX2 analytically  !
 ! D124  D(12,20,21,45)        158.1251         calculate D2E/DX2 analytically  !
 ! D125  D(27,20,21,22)       -174.1725         calculate D2E/DX2 analytically  !
 ! D126  D(27,20,21,45)         12.8428         calculate D2E/DX2 analytically  !
 ! D127  D(46,20,21,22)         77.9084         calculate D2E/DX2 analytically  !
 ! D128  D(46,20,21,45)        -95.0762         calculate D2E/DX2 analytically  !
 ! D129  D(12,20,27,26)        -31.8492         calculate D2E/DX2 analytically  !
 ! D130  D(12,20,27,28)        160.9137         calculate D2E/DX2 analytically  !
 ! D131  D(12,20,27,33)         48.1814         calculate D2E/DX2 analytically  !
 ! D132  D(21,20,27,26)        109.6339         calculate D2E/DX2 analytically  !
 ! D133  D(21,20,27,28)        -57.6032         calculate D2E/DX2 analytically  !
 ! D134  D(21,20,27,33)       -170.3355         calculate D2E/DX2 analytically  !
 ! D135  D(46,20,27,26)       -143.3678         calculate D2E/DX2 analytically  !
 ! D136  D(46,20,27,28)         49.395          calculate D2E/DX2 analytically  !
 ! D137  D(46,20,27,33)        -63.3373         calculate D2E/DX2 analytically  !
 ! D138  D(12,20,46,33)        -67.385          calculate D2E/DX2 analytically  !
 ! D139  D(21,20,46,33)        177.5204         calculate D2E/DX2 analytically  !
 ! D140  D(27,20,46,33)         59.0199         calculate D2E/DX2 analytically  !
 ! D141  D(20,21,22,19)          8.6164         calculate D2E/DX2 analytically  !
 ! D142  D(20,21,22,44)       -173.0659         calculate D2E/DX2 analytically  !
 ! D143  D(45,21,22,19)       -178.5848         calculate D2E/DX2 analytically  !
 ! D144  D(45,21,22,44)         -0.267          calculate D2E/DX2 analytically  !
 ! D145  D(16,23,24,25)          1.5106         calculate D2E/DX2 analytically  !
 ! D146  D(16,23,24,35)       -176.7484         calculate D2E/DX2 analytically  !
 ! D147  D(36,23,24,25)        178.9818         calculate D2E/DX2 analytically  !
 ! D148  D(36,23,24,35)          0.7228         calculate D2E/DX2 analytically  !
 ! D149  D(23,24,25,26)          5.8406         calculate D2E/DX2 analytically  !
 ! D150  D(23,24,25,29)       -171.7254         calculate D2E/DX2 analytically  !
 ! D151  D(35,24,25,26)       -175.8552         calculate D2E/DX2 analytically  !
 ! D152  D(35,24,25,29)          6.5788         calculate D2E/DX2 analytically  !
 ! D153  D(24,25,26,17)         -9.1299         calculate D2E/DX2 analytically  !
 ! D154  D(24,25,26,27)        178.1225         calculate D2E/DX2 analytically  !
 ! D155  D(29,25,26,17)        168.3744         calculate D2E/DX2 analytically  !
 ! D156  D(29,25,26,27)         -4.3733         calculate D2E/DX2 analytically  !
 ! D157  D(24,25,29,30)        175.5279         calculate D2E/DX2 analytically  !
 ! D158  D(24,25,29,34)         -1.9239         calculate D2E/DX2 analytically  !
 ! D159  D(26,25,29,30)         -2.0144         calculate D2E/DX2 analytically  !
 ! D160  D(26,25,29,34)       -179.4662         calculate D2E/DX2 analytically  !
 ! D161  D(17,26,27,20)         29.3066         calculate D2E/DX2 analytically  !
 ! D162  D(17,26,27,28)       -164.2375         calculate D2E/DX2 analytically  !
 ! D163  D(17,26,27,33)        -46.0072         calculate D2E/DX2 analytically  !
 ! D164  D(25,26,27,20)       -158.6304         calculate D2E/DX2 analytically  !
 ! D165  D(25,26,27,28)          7.8255         calculate D2E/DX2 analytically  !
 ! D166  D(25,26,27,33)        126.0558         calculate D2E/DX2 analytically  !
 ! D167  D(20,27,28,30)        163.7993         calculate D2E/DX2 analytically  !
 ! D168  D(20,27,28,32)        -14.4471         calculate D2E/DX2 analytically  !
 ! D169  D(26,27,28,30)         -5.4108         calculate D2E/DX2 analytically  !
 ! D170  D(26,27,28,32)        176.3429         calculate D2E/DX2 analytically  !
 ! D171  D(33,27,28,30)       -109.1697         calculate D2E/DX2 analytically  !
 ! D172  D(33,27,28,32)         72.5839         calculate D2E/DX2 analytically  !
 ! D173  D(20,27,33,11)        -52.3323         calculate D2E/DX2 analytically  !
 ! D174  D(20,27,33,46)         30.2752         calculate D2E/DX2 analytically  !
 ! D175  D(26,27,33,11)         79.9476         calculate D2E/DX2 analytically  !
 ! D176  D(26,27,33,46)        162.555          calculate D2E/DX2 analytically  !
 ! D177  D(28,27,33,11)       -159.4847         calculate D2E/DX2 analytically  !
 ! D178  D(28,27,33,46)        -76.8773         calculate D2E/DX2 analytically  !
 ! D179  D(27,28,30,29)         -0.9488         calculate D2E/DX2 analytically  !
 ! D180  D(27,28,30,31)       -179.7717         calculate D2E/DX2 analytically  !
 ! D181  D(32,28,30,29)        177.3019         calculate D2E/DX2 analytically  !
 ! D182  D(32,28,30,31)         -1.521          calculate D2E/DX2 analytically  !
 ! D183  D(25,29,30,28)          4.7387         calculate D2E/DX2 analytically  !
 ! D184  D(25,29,30,31)       -176.4488         calculate D2E/DX2 analytically  !
 ! D185  D(34,29,30,28)       -177.8552         calculate D2E/DX2 analytically  !
 ! D186  D(34,29,30,31)          0.9573         calculate D2E/DX2 analytically  !
 ! D187  D(11,33,46,20)         41.6833         calculate D2E/DX2 analytically  !
 ! D188  D(27,33,46,20)        -44.6426         calculate D2E/DX2 analytically  !
 --------------------------------------------------------------------------------
 Trust Radius=3.00D-01 FncErr=1.00D-07 GrdErr=1.00D-06 EigMax=2.50D+02 EigMin=1.00D-04
 Number of steps in this run=    276 maximum allowed number of steps=    276.
 Search for a saddle point of order  1.
 GradGradGradGradGradGradGradGradGradGradGradGradGradGradGradGradGradGrad

                          Input orientation:                          
 ---------------------------------------------------------------------
 Center     Atomic      Atomic             Coordinates (Angstroms)
 Number     Number       Type             X           Y           Z
 ---------------------------------------------------------------------
      1          6           0       -1.491532   -2.816350    0.120642
      2          6           0       -1.370926   -1.477676   -0.266233
      3          6           0       -2.499261   -0.643677   -0.391243
      4          6           0       -3.803593   -1.034207   -0.160591
      5          6           0       -2.854397   -3.281031    0.257464
      6          6           0       -3.949886   -2.437294    0.128873
      7          6           0       -2.058867    0.674567   -0.469567
      8          6           0       -2.923604    1.766408   -0.301238
      9          6           0       -4.325628    1.388616   -0.194366
     10          6           0       -4.738735    0.071585   -0.123056
     11          6           0       -0.641062    0.685981   -0.445599
     12          6           0       -0.011171    1.874370   -0.219513
     13          6           0       -0.856523    3.039883    0.054321
     14          6           0       -2.288181    2.992404   -0.073407
     15          6           0       -0.260885   -3.439763    0.403919
     16          6           0        0.953493   -2.719454    0.345473
     17          6           0        1.018569   -1.302648    0.029766
     18          6           0       -0.195991   -0.711720   -0.304816
     19          6           0       -0.232102    4.110748    0.700901
     20          6           0        1.477424    2.018331   -0.200844
     21          6           0        1.935581    3.024152    0.827089
     22          6           0        1.116178    4.055494    1.160598
     23          6           0        2.190546   -3.403106    0.595528
     24          6           0        3.377641   -2.770242    0.442987
     25          6           0        3.465646   -1.385143    0.057772
     26          6           0        2.279904   -0.593808   -0.056963
     27          6           0        2.427022    0.801688   -0.406532
     28          6           0        3.705755    1.247839   -0.774002
     29          6           0        4.729270   -0.850344   -0.250282
     30          6           0        4.842775    0.445250   -0.711644
     31          1           0        5.805516    0.847191   -1.005745
     32          1           0        3.821516    2.276952   -1.096958
     33          1           0        0.869221    0.490133   -2.269608
     34          1           0        5.604175   -1.484707   -0.159179
     35          1           0        4.307363   -3.311293    0.583618
     36          1           0        2.158249   -4.451956    0.870670
     37          1           0       -0.219927   -4.484844    0.694731
     38          1           0       -3.031045   -4.321220    0.511213
     39          1           0       -4.940014   -2.850843    0.293395
     40          1           0       -5.797444   -0.129275    0.008848
     41          1           0       -5.072890    2.171408   -0.115646
     42          1           0       -2.852281    3.886669    0.168061
     43          1           0       -0.837398    4.966390    0.983948
     44          1           0        1.473933    4.845867    1.810929
     45          1           0        2.952777    2.969850    1.194208
     46          1           0        1.653486    2.594551   -1.125099
 ---------------------------------------------------------------------
                    Distance matrix (angstroms):
                    1          2          3          4          5
     1  C    0.000000
     2  C    1.398666   0.000000
     3  C    2.449092   1.408660   0.000000
     4  C    2.932704   2.475014   1.380940   0.000000
     5  C    1.446392   2.393122   2.739084   2.474664   0.000000
     6  C    2.487419   2.779930   2.364719   1.440085   1.388713
     7  C    3.585626   2.268647   1.392066   2.461594   4.099780
     8  C    4.819801   3.596681   2.448811   2.938981   5.078738
     9  C    5.080656   4.117166   2.739451   2.478655   4.916734
    10  C    4.352457   3.709831   2.366172   1.448681   3.864655
    11  C    3.648322   2.290477   2.285574   3.611354   4.596774
    12  C    4.930520   3.617641   3.544100   4.779723   5.906742
    13  C    5.890934   4.558037   4.057799   5.032854   6.632249
    14  C    5.866339   4.567292   3.656044   4.303216   6.307619
    15  C    1.408326   2.351825   3.668884   4.319277   2.602489
    16  C    2.457252   2.705387   4.095499   5.072083   3.850083
    17  C    2.932603   2.414112   3.603695   4.833378   4.354964
    18  C    2.507770   1.403086   2.305895   3.624857   3.739604
    19  C    7.064528   5.784700   5.379344   6.322047   7.855664
    20  C    5.682622   4.509927   4.789213   6.099897   6.859880
    21  C    6.808497   5.691643   5.882612   7.098162   7.938746
    22  C    7.423200   6.231974   6.128770   7.201024   8.390811
    23  C    3.758656   4.139323   5.530141   6.489461   5.057731
    24  C    4.880049   4.972183   6.305251   7.412708   6.255687
    25  C    5.160031   4.848296   6.027562   7.280980   6.601304
    26  C    4.381206   3.762124   4.791101   6.100297   5.803540
    27  C    5.359401   4.431658   5.133963   6.500120   6.708418
    28  C    6.658064   5.784371   6.498197   7.872377   8.038046
    29  C    6.534611   6.132389   7.232858   8.535315   7.979853
    30  C    7.173157   6.519671   7.429260   8.789319   8.606439
    31  H    8.242402   7.579789   8.459883   9.827966   9.676363
    32  H    7.460077   6.461330   6.998595   8.365575   8.791669
    33  H    4.713733   3.592220   4.020006   5.348528   5.871380
    34  H    7.225000   6.975926   8.150267   9.418548   8.657240
    35  H    5.838364   6.027219   7.375409   8.457339   7.169247
    36  H    4.069232   4.753311   6.147179   6.948962   5.183986
    37  H    2.174955   3.360254   4.596658   5.047884   2.929300
    38  H    2.187985   3.383217   3.823813   3.442761   1.085166
    39  H    3.452979   3.864862   3.361188   2.190370   2.129824
    40  H    5.076785   4.635506   3.361948   2.196145   4.319364
    41  H    6.144891   5.200291   3.824163   3.448058   5.898306
    42  H    6.839909   5.582045   4.578371   5.022751   7.168258
    43  H    7.857750   6.585863   6.010473   6.790835   8.521503
    44  H    8.388124   7.238440   7.125372   8.143368   9.337782
    45  H    7.374587   6.372424   6.730227   7.969723   8.583372
    46  H    6.381290   5.144682   5.316951   6.624037   7.533588
                    6          7          8          9         10
     6  C    0.000000
     7  C    3.690225   0.000000
     8  C    4.348489   1.402933   0.000000
     9  C    3.857882   2.392448   1.455960   0.000000
    10  C    2.642012   2.768637   2.489754   1.382141   0.000000
    11  C    4.586195   1.418054   2.529459   3.759367   4.156013
    12  C    5.850239   2.386444   2.915579   4.341789   5.060553
    13  C    6.290781   2.704590   2.453769   3.850093   4.890176
    14  C    5.681884   2.362604   1.399548   2.595758   3.812986
    15  C    3.832665   4.574213   5.889952   6.339821   5.714754
    16  C    4.916264   4.610638   5.964317   6.710945   6.356955
    17  C    5.097332   3.691792   5.006935   5.987786   5.921015
    18  C    4.154205   2.327926   3.685241   4.634384   4.613364
    19  C    7.551555   4.063792   3.707343   4.996845   6.107658
    20  C    7.029723   3.792528   4.409375   5.837122   6.514331
    21  C    8.059381   4.812222   5.144582   6.551419   7.359818
    22  C    8.299744   4.916199   4.867927   6.209784   7.197173
    23  C    6.233415   5.984927   7.326841   8.126811   7.784907
    24  C    7.341810   6.500391   7.800048   8.777396   8.618117
    25  C    7.490140   5.919522   7.133280   8.274132   8.334664
    26  C    6.499481   4.539158   5.718985   6.897966   7.050419
    27  C    7.172351   4.488132   5.437920   6.781429   7.208431
    28  C    8.544251   5.801051   6.666395   8.053503   8.550831
    29  C    8.831190   6.960765   8.088045   9.327767   9.513635
    30  C    9.291201   6.909692   7.888633   9.231312   9.606841
    31  H   10.355823   7.884530   8.805613  10.177994  10.609521
    32  H    9.171776   6.127003   6.811055   8.244984   8.893257
    33  H    6.127506   3.442072   4.459695   5.665718   6.019305
    34  H    9.605752   7.967498   9.127592  10.337225  10.459404
    35  H    8.315818   7.584534   8.879916   9.860169   9.683757
    36  H    6.474445   6.772115   8.115827   8.791316   8.307725
    37  H    4.292464   5.599715   6.883311   7.221136   6.469115
    38  H    2.130641   5.183141   6.142543   5.897119   4.755548
    39  H    1.085561   4.616453   5.073313   4.311426   2.958806
    40  H    2.958856   3.853829   3.456693   2.124037   1.085637
    41  H    4.749849   3.383804   2.194971   1.085063   2.126258
    42  H    6.418628   3.369521   2.172748   2.922734   4.265949
    43  H    8.076712   4.693020   4.030365   5.133872   6.356493
    44  H    9.235343   5.922928   5.769112   7.043344   8.070397
    45  H    8.832831   5.757868   6.181948   7.576518   8.324331
    46  H    7.634768   4.230559   4.723804   6.170117   6.944778
                   11         12         13         14         15
    11  C    0.000000
    12  C    1.363872   0.000000
    13  C    2.416029   1.465614   0.000000
    14  C    2.858516   2.540890   1.438128   0.000000
    15  C    4.229418   5.356401   6.516350   6.760957   0.000000
    16  C    3.842576   4.727896   6.044079   6.580975   1.413144
    17  C    2.633437   3.349022   4.730132   5.421505   2.518780
    18  C    1.473593   2.594089   3.826200   4.260439   2.819350
    19  C    3.634658   2.428448   1.398113   2.465301   7.556404
    20  C    2.514566   1.495657   2.560466   3.891637   5.760056
    21  C    3.704844   2.491429   2.897113   4.318804   6.840010
    22  C    4.125697   2.816545   2.479287   3.773935   7.658181
    23  C    5.081592   5.776123   7.147702   7.836391   2.459181
    24  C    5.374480   5.787519   7.199775   8.097919   3.699818
    25  C    4.626877   4.773842   6.185629   7.230951   4.269463
    26  C    3.212622   3.371550   4.801382   5.807632   3.842848
    27  C    3.070514   2.670282   4.000446   5.209928   5.086411
    28  C    4.395265   3.809926   4.971109   6.281848   6.252627
    29  C    5.589178   5.467796   6.813790   8.002663   5.659922
    30  C    5.495562   5.083834   6.308789   7.599071   6.510388
    31  H    6.472876   5.958784   7.093265   8.424911   7.560843
    32  H    4.782265   3.952401   4.877659   6.236018   7.183276
    33  H    2.376199   2.625660   3.857469   4.588447   4.885588
    34  H    6.617923   6.543634   7.890381   9.074203   6.207919
    35  H    6.443943   6.796018   8.202640   9.147102   4.573586
    36  H    5.997258   6.776229   8.116830   8.722415   2.663569
    37  H    5.311792   6.427988   7.578713   7.795957   1.085561
    38  H    5.630237   6.931013   7.689157   7.374464   2.908997
    39  H    5.615712   6.847204   7.171660   6.427309   4.717339
    40  H    5.240176   6.127618   5.870122   4.697507   6.462886
    41  H    4.685772   5.071491   4.308235   2.903519   7.410167
    42  H    3.938334   3.503065   2.170952   1.084539   7.774803
    43  H    4.517085   3.419292   2.139159   2.668219   8.445840
    44  H    5.183606   3.893331   3.431949   4.597777   8.581430
    45  H    4.562971   3.461744   3.976809   5.392124   7.213551
    46  H    3.060933   2.027271   2.808825   4.098912   6.512730
                   16         17         18         19         20
    16  C    0.000000
    17  C    1.453012   0.000000
    18  C    2.403161   1.391509   0.000000
    19  C    6.941442   5.596379   4.926354   0.000000
    20  C    4.797872   3.360451   3.203796   2.848479   0.000000
    21  C    5.846833   4.494200   4.447645   2.428058   1.509381
    22  C    6.825747   5.477042   5.157088   1.425564   2.476703
    23  C    1.435342   2.470939   3.708064   7.895463   5.525824
    24  C    2.426640   2.808880   4.191368   7.774625   5.191895
    25  C    2.859033   2.448627   3.740662   6.655206   3.950132
    26  C    2.537655   1.449463   2.491062   5.386778   2.736411
    27  C    3.890404   2.569499   3.030008   4.387166   1.557005
    28  C    4.956570   3.791041   4.391313   5.087072   2.426443
    29  C    4.254996   3.748641   4.927513   7.080423   4.336617
    30  C    5.124389   4.269589   5.185870   6.417596   3.749812
    31  H    6.171618   5.348734   6.240160   7.072219   4.555416
    32  H    5.938875   4.683968   5.069518   4.798638   2.522830
    33  H    4.140918   2.919502   2.537624   4.810997   2.642931
    34  H    4.838194   4.593107   5.853259   8.130866   5.413232
    35  H    3.414005   3.893273   5.275158   8.700988   6.085132
    36  H    2.174588   3.453133   4.573137   8.891710   6.593654
    37  H    2.148371   3.478854   3.903349   8.595603   6.780438
    38  H    4.297635   5.073750   4.661751   8.886402   7.811736
    39  H    5.895201   6.162071   5.238269   8.413932   8.070727
    40  H    7.238611   6.916305   5.640381   7.030630   7.588141
    41  H    7.774989   7.013992   5.668541   5.278354   6.552656
    42  H    7.626025   6.475463   5.331479   2.683182   4.730024
    43  H    7.917521   6.607262   5.857751   1.085644   3.931054
    44  H    7.723503   6.417487   6.176714   2.164051   3.470188
    45  H    6.089800   4.832321   5.071072   3.418838   2.242370
    46  H    5.557987   4.114000   3.876191   3.031266   1.103302
                   21         22         23         24         25
    21  C    0.000000
    22  C    1.358792   0.000000
    23  C    6.436480   7.556738   0.000000
    24  C    5.983483   7.226330   1.353876   0.000000
    25  C    4.730204   6.027998   2.446883   1.440359   0.000000
    26  C    3.740286   4.944969   2.885461   2.488341   1.430161
    27  C    2.588954   3.842065   4.329011   3.792630   2.465065
    28  C    2.975281   4.281532   5.079642   4.211140   2.771659
    29  C    4.896646   6.253980   3.698257   2.448169   1.406290
    30  C    4.179738   5.516038   4.853129   3.717416   2.416366
    31  H    4.803627   6.080801   5.804921   4.591211   3.404317
    32  H    2.795893   3.946977   6.147164   5.295529   3.856292
    33  H    4.141003   4.953696   5.011209   4.927513   3.959139
    34  H    5.895856   7.251052   3.987819   2.640579   2.151810
    35  H    6.769231   8.048982   2.118841   1.084848   2.166808
    36  H    7.479550   8.575936   1.084819   2.120847   3.431535
    37  H    7.813370   8.656765   2.643932   3.993211   4.857706
    38  H    8.872522   9.369658   5.302363   6.594046   7.143749
    39  H    9.059481   9.226429   7.158293   8.319391   8.535743
    40  H    8.391263   8.163148   8.652754   9.557477   9.347964
    41  H    7.122822   6.594175   9.183598   9.805277   9.251255
    42  H    4.909366   4.094179   8.874325   9.121512   8.229239
    43  H    3.389145   2.162729   8.908860   8.826929   7.727610
    44  H    2.121251   1.084255   8.368769   7.968719   6.772442
    45  H    1.082780   2.133740   6.446238   5.804610   4.529954
    46  H    2.018706   2.765405   6.262658   5.849154   4.530019
                   26         27         28         29         30
    26  C    0.000000
    27  C    1.446116   0.000000
    28  C    2.436978   1.403297   0.000000
    29  C    2.470339   2.837952   2.392538   0.000000
    30  C    2.841928   2.460895   1.393145   1.379965   0.000000
    31  H    3.925125   3.431523   2.150167   2.147244   1.083938
    32  H    3.420442   2.144226   1.084792   3.364648   2.132269
    33  H    2.839146   2.448441   3.294978   4.557909   4.268302
    34  H    3.443098   3.922128   3.383610   1.084516   2.147017
    35  H    3.450458   4.629546   4.794867   2.632426   4.009487
    36  H    3.969963   5.413341   6.130855   4.564898   5.804569
    37  H    4.685548   6.013862   7.101536   6.212664   7.205183
    38  H    6.513264   7.541680   8.834629   8.535183   9.285023
    39  H    7.572594   8.252521   9.627453   9.889016  10.371947
    40  H    8.090962   8.287405   9.634318  10.554563  10.680049
    41  H    7.855790   7.629510   8.851611  10.258238  10.082423
    42  H    6.816497   6.141523   7.131532   8.949537   8.475325
    43  H    6.458860   5.471254   6.128479   8.145275   7.455207
    44  H    5.807639   4.709660   4.960716   6.876964   6.089163
    45  H    3.836384   2.745854   2.721424   4.453803   3.684830
    46  H    3.420372   2.080638   2.479659   4.700325   3.868075
                   31         32         33         34         35
    31  H    0.000000
    32  H    2.447201   0.000000
    33  H    5.108018   3.644705   0.000000
    34  H    2.488968   4.267011   5.547404   0.000000
    35  H    4.697183   5.855669   5.866222   2.360060   0.000000
    36  H    6.701078   7.205291   5.995597   4.662570   2.449939
    37  H    8.223635   8.078694   5.892703   6.606826   4.678239
    38  H   10.348838   9.647781   6.789268   9.113850   7.407930
    39  H   11.438078  10.246549   7.174839  10.641949   9.263381
    40  H   11.688095   9.976829   7.072443  11.483133  10.609558
    41  H   10.994796   8.948998   6.540254  11.285778  10.887522
    42  H    9.250605   6.980761   5.597166  10.023493  10.160898
    43  H    8.065667   5.767905   5.790946   9.187886   9.754428
    44  H    6.533427   4.535006   5.999073   7.811299   8.722034
    45  H    4.181339   2.546420   4.742175   5.357672   6.454493
    46  H    4.506314   2.191350   2.520624   5.760320   6.696400
                   36         37         38         39         40
    36  H    0.000000
    37  H    2.384902   0.000000
    38  H    5.203371   2.821850   0.000000
    39  H    7.299462   5.011013   2.419425   0.000000
    40  H    9.095128   7.109860   5.047548   2.867592   0.000000
    41  H    9.855513   8.277297   6.834932   5.040632   2.415289
    42  H    9.753550   8.791411   8.217004   7.054673   4.982684
    43  H    9.883925   9.475798   9.554856   8.855363   7.177651
    44  H    9.370266   9.548677  10.296581  10.133162   8.992912
    45  H    7.471222   8.117142   9.456866   9.848253   9.358206
    46  H    7.341059   7.545813   8.511770   8.668257   8.013827
                   41         42         43         44         45
    41  H    0.000000
    42  H    2.820233   0.000000
    43  H    5.192343   2.427184   0.000000
    44  H    7.329755   4.726014   2.457778   0.000000
    45  H    8.170958   5.965923   4.289033   2.467137   0.000000
    46  H    6.814850   4.862486   4.034625   3.704176   2.684808
                   46
    46  H    0.000000
 Stoichiometry    C30H16
 Framework group  C1[X(C30H16)]
 Deg. of freedom   132
 Full point group                 C1      NOp   1
 Largest Abelian subgroup         C1      NOp   1
 Largest concise Abelian subgroup C1      NOp   1
                         Standard orientation:                         
 ---------------------------------------------------------------------
 Center     Atomic      Atomic             Coordinates (Angstroms)
 Number     Number       Type             X           Y           Z
 ---------------------------------------------------------------------
      1          6           0       -1.491532   -2.816350    0.120642
      2          6           0       -1.370926   -1.477676   -0.266233
      3          6           0       -2.499261   -0.643677   -0.391243
      4          6           0       -3.803593   -1.034207   -0.160591
      5          6           0       -2.854397   -3.281031    0.257464
      6          6           0       -3.949886   -2.437294    0.128873
      7          6           0       -2.058867    0.674567   -0.469567
      8          6           0       -2.923604    1.766408   -0.301238
      9          6           0       -4.325628    1.388616   -0.194366
     10          6           0       -4.738735    0.071585   -0.123056
     11          6           0       -0.641062    0.685981   -0.445599
     12          6           0       -0.011171    1.874370   -0.219513
     13          6           0       -0.856523    3.039883    0.054321
     14          6           0       -2.288181    2.992404   -0.073407
     15          6           0       -0.260885   -3.439763    0.403919
     16          6           0        0.953493   -2.719454    0.345473
     17          6           0        1.018569   -1.302648    0.029766
     18          6           0       -0.195991   -0.711720   -0.304816
     19          6           0       -0.232102    4.110748    0.700901
     20          6           0        1.477424    2.018331   -0.200844
     21          6           0        1.935581    3.024152    0.827089
     22          6           0        1.116178    4.055494    1.160598
     23          6           0        2.190546   -3.403106    0.595528
     24          6           0        3.377641   -2.770242    0.442987
     25          6           0        3.465646   -1.385143    0.057772
     26          6           0        2.279904   -0.593808   -0.056963
     27          6           0        2.427022    0.801688   -0.406532
     28          6           0        3.705755    1.247839   -0.774002
     29          6           0        4.729270   -0.850344   -0.250282
     30          6           0        4.842775    0.445250   -0.711644
     31          1           0        5.805516    0.847191   -1.005745
     32          1           0        3.821516    2.276952   -1.096958
     33          1           0        0.869221    0.490133   -2.269608
     34          1           0        5.604175   -1.484707   -0.159179
     35          1           0        4.307363   -3.311293    0.583618
     36          1           0        2.158249   -4.451956    0.870670
     37          1           0       -0.219927   -4.484844    0.694731
     38          1           0       -3.031045   -4.321220    0.511213
     39          1           0       -4.940014   -2.850843    0.293395
     40          1           0       -5.797444   -0.129274    0.008848
     41          1           0       -5.072890    2.171408   -0.115646
     42          1           0       -2.852281    3.886669    0.168061
     43          1           0       -0.837398    4.966390    0.983948
     44          1           0        1.473933    4.845867    1.810929
     45          1           0        2.952777    2.969850    1.194208
     46          1           0        1.653486    2.594551   -1.125099
 ---------------------------------------------------------------------
 Rotational constants (GHZ):           0.2476831           0.1735963           0.1057334
 Standard basis: 6-311+G(d,p) (5D, 7F)
 There are   786 symmetry adapted cartesian basis functions of A   symmetry.
 There are   756 symmetry adapted basis functions of A   symmetry.
   756 basis functions,  1208 primitive gaussians,   786 cartesian basis functions
    98 alpha electrons       98 beta electrons
       nuclear repulsion energy      2637.8015234862 Hartrees.
 NAtoms=   46 NActive=   46 NUniq=   46 SFac= 1.00D+00 NAtFMM=   60 NAOKFM=F Big=F
 Integral buffers will be    131072 words long.
 Raffenetti 2 integral format.
 Two-electron integral symmetry is turned on.
 One-electron integrals computed using PRISM.
 NBasis=   756 RedAO= T EigKep=  1.51D-06  NBF=   756
 NBsUse=   734 1.00D-06 EigRej=  9.78D-07 NBFU=   734
 ExpMin= 4.38D-02 ExpMax= 4.56D+03 ExpMxC= 6.82D+02 IAcc=2 IRadAn=         4 AccDes= 0.00D+00
 Harris functional with IExCor=  402 and IRadAn=       4 diagonalized for initial guess.
 HarFok:  IExCor=  402 AccDes= 0.00D+00 IRadAn=         4 IDoV= 1 UseB2=F ITyADJ=14
 ICtDFT=  3500011 ScaDFX=  1.000000  1.000000  1.000000  1.000000
 FoFCou: FMM=F IPFlag=           0 FMFlag=      100000 FMFlg1=           0
         NFxFlg=           0 DoJE=T BraDBF=F KetDBF=T FulRan=T
         wScrn=  0.000000 ICntrl=       500 IOpCl=  0 I1Cent=   200000004 NGrid=           0
         NMat0=    1 NMatS0=      1 NMatT0=    0 NMatD0=    1 NMtDS0=    0 NMtDT0=    0
 Petite list used in FoFCou.
 Requested convergence on RMS density matrix=1.00D-08 within 128 cycles.
 Requested convergence on MAX density matrix=1.00D-06.
 Requested convergence on             energy=1.00D-06.
 No special actions if energy rises.
 EnCoef did     2 forward-backward iterations
 Restarting incremental Fock formation.
 SCF Done:  E(RB3LYP) =  -1152.92981370     A.U. after   22 cycles
            NFock= 22  Conv=0.36D-08     -V/T= 2.0045
 DoSCS=F DFT=T ScalE2(SS,OS)=  1.000000  1.000000
 Range of M.O.s used for correlation:     1   734
 NBasis=   756 NAE=    98 NBE=    98 NFC=     0 NFV=     0
 NROrb=    734 NOA=    98 NOB=    98 NVA=   636 NVB=   636

 **** Warning!!: The largest alpha MO coefficient is  0.10736695D+03


 **** Warning!!: The smallest alpha delta epsilon is  0.26892426D-01

 Symmetrizing basis deriv contribution to polar:
 IMax=3 JMax=2 DiffMx= 0.00D+00
 G2DrvN: will do    47 centers at a time, making    1 passes.
 Calling FoFCou, ICntrl=  3107 FMM=F I1Cent=   0 AccDes= 0.00D+00.
 End of G2Drv F.D. properties file   721 does not exist.
 End of G2Drv F.D. properties file   722 does not exist.
 End of G2Drv F.D. properties file   788 does not exist.
          IDoAtm=1111111111111111111111111111111111111111111111
          Differentiating once with respect to nuclear coordinates.
 CalDSu exits because no D1Ps are significant.
          There are   141 degrees of freedom in the 1st order CPHF.  IDoFFX=6 NUNeed=     0.
    136 vectors produced by pass  0 Test12= 6.23D-14 1.00D-09 XBig12= 3.15D-01 1.80D-01.
 AX will form   136 AO Fock derivatives at one time.
    136 vectors produced by pass  1 Test12= 6.23D-14 1.00D-09 XBig12= 7.60D-02 5.64D-02.
    136 vectors produced by pass  2 Test12= 6.23D-14 1.00D-09 XBig12= 1.05D-03 5.87D-03.
    135 vectors produced by pass  3 Test12= 6.23D-14 1.00D-09 XBig12= 8.55D-06 3.11D-04.
    135 vectors produced by pass  4 Test12= 6.23D-14 1.00D-09 XBig12= 3.48D-08 1.51D-05.
    135 vectors produced by pass  5 Test12= 6.23D-14 1.00D-09 XBig12= 1.21D-10 8.23D-07.
    105 vectors produced by pass  6 Test12= 6.23D-14 1.00D-09 XBig12= 1.59D-11 3.15D-07.
     81 vectors produced by pass  7 Test12= 6.23D-14 1.00D-09 XBig12= 2.51D-12 8.62D-08.
     39 vectors produced by pass  8 Test12= 6.23D-14 1.00D-09 XBig12= 9.53D-14 1.69D-08.
      4 vectors produced by pass  9 Test12= 6.23D-14 1.00D-09 XBig12= 7.39D-16 2.10D-09.
      2 vectors produced by pass 10 Test12= 6.23D-14 1.00D-09 XBig12= 5.62D-16 1.38D-09.
      1 vectors produced by pass 11 Test12= 6.23D-14 1.00D-09 XBig12= 4.18D-16 1.14D-09.
 InvSVY:  IOpt=1 It=  1 EMax= 1.11D-15
 Solved reduced A of dimension  1045 with   141 vectors.
 End of Minotr F.D. properties file   721 does not exist.
 End of Minotr F.D. properties file   722 does not exist.
 End of Minotr F.D. properties file   788 does not exist.

 **********************************************************************

            Population analysis using the SCF Density.

 **********************************************************************

 Orbital symmetries:
       Occupied  (A) (A) (A) (A) (A) (A) (A) (A) (A) (A) (A) (A)
                 (A) (A) (A) (A) (A) (A) (A) (A) (A) (A) (A) (A)
                 (A) (A) (A) (A) (A) (A) (A) (A) (A) (A) (A) (A)
                 (A) (A) (A) (A) (A) (A) (A) (A) (A) (A) (A) (A)
                 (A) (A) (A) (A) (A) (A) (A) (A) (A) (A) (A) (A)
                 (A) (A) (A) (A) (A) (A) (A) (A) (A) (A) (A) (A)
                 (A) (A) (A) (A) (A) (A) (A) (A) (A) (A) (A) (A)
                 (A) (A) (A) (A) (A) (A) (A) (A) (A) (A) (A) (A)
                 (A) (A)
       Virtual   (A) (A) (A) (A) (A) (A) (A) (A) (A) (A) (A) (A)
                 (A) (A) (A) (A) (A) (A) (A) (A) (A) (A) (A) (A)
                 (A) (A) (A) (A) (A) (A) (A) (A) (A) (A) (A) (A)
                 (A) (A) (A) (A) (A) (A) (A) (A) (A) (A) (A) (A)
                 (A) (A) (A) (A) (A) (A) (A) (A) (A) (A) (A) (A)
                 (A) (A) (A) (A) (A) (A) (A) (A) (A) (A) (A) (A)
                 (A) (A) (A) (A) (A) (A) (A) (A) (A) (A) (A) (A)
                 (A) (A) (A) (A) (A) (A) (A) (A) (A) (A) (A) (A)
                 (A) (A) (A) (A) (A) (A) (A) (A) (A) (A) (A) (A)
                 (A) (A) (A) (A) (A) (A) (A) (A) (A) (A) (A) (A)
                 (A) (A) (A) (A) (A) (A) (A) (A) (A) (A) (A) (A)
                 (A) (A) (A) (A) (A) (A) (A) (A) (A) (A) (A) (A)
                 (A) (A) (A) (A) (A) (A) (A) (A) (A) (A) (A) (A)
                 (A) (A) (A) (A) (A) (A) (A) (A) (A) (A) (A) (A)
                 (A) (A) (A) (A) (A) (A) (A) (A) (A) (A) (A) (A)
                 (A) (A) (A) (A) (A) (A) (A) (A) (A) (A) (A) (A)
                 (A) (A) (A) (A) (A) (A) (A) (A) (A) (A) (A) (A)
                 (A) (A) (A) (A) (A) (A) (A) (A) (A) (A) (A) (A)
                 (A) (A) (A) (A) (A) (A) (A) (A) (A) (A) (A) (A)
                 (A) (A) (A) (A) (A) (A) (A) (A) (A) (A) (A) (A)
                 (A) (A) (A) (A) (A) (A) (A) (A) (A) (A) (A) (A)
                 (A) (A) (A) (A) (A) (A) (A) (A) (A) (A) (A) (A)
                 (A) (A) (A) (A) (A) (A) (A) (A) (A) (A) (A) (A)
                 (A) (A) (A) (A) (A) (A) (A) (A) (A) (A) (A) (A)
                 (A) (A) (A) (A) (A) (A) (A) (A) (A) (A) (A) (A)
                 (A) (A) (A) (A) (A) (A) (A) (A) (A) (A) (A) (A)
                 (A) (A) (A) (A) (A) (A) (A) (A) (A) (A) (A) (A)
                 (A) (A) (A) (A) (A) (A) (A) (A) (A) (A) (A) (A)
                 (A) (A) (A) (A) (A) (A) (A) (A) (A) (A) (A) (A)
                 (A) (A) (A) (A) (A) (A) (A) (A) (A) (A) (A) (A)
                 (A) (A) (A) (A) (A) (A) (A) (A) (A) (A) (A) (A)
                 (A) (A) (A) (A) (A) (A) (A) (A) (A) (A) (A) (A)
                 (A) (A) (A) (A) (A) (A) (A) (A) (A) (A) (A) (A)
                 (A) (A) (A) (A) (A) (A) (A) (A) (A) (A) (A) (A)
                 (A) (A) (A) (A) (A) (A) (A) (A) (A) (A) (A) (A)
                 (A) (A) (A) (A) (A) (A) (A) (A) (A) (A) (A) (A)
                 (A) (A) (A) (A) (A) (A) (A) (A) (A) (A) (A) (A)
                 (A) (A) (A) (A) (A) (A) (A) (A) (A) (A) (A) (A)
                 (A) (A) (A) (A) (A) (A) (A) (A) (A) (A) (A) (A)
                 (A) (A) (A) (A) (A) (A) (A) (A) (A) (A) (A) (A)
                 (A) (A) (A) (A) (A) (A) (A) (A) (A) (A) (A) (A)
                 (A) (A) (A) (A) (A) (A) (A) (A) (A) (A) (A) (A)
                 (A) (A) (A) (A) (A) (A) (A) (A) (A) (A) (A) (A)
                 (A) (A) (A) (A) (A) (A) (A) (A) (A) (A) (A) (A)
                 (A) (A) (A) (A) (A) (A) (A) (A) (A) (A) (A) (A)
                 (A) (A) (A) (A) (A) (A) (A) (A) (A) (A) (A) (A)
                 (A) (A) (A) (A) (A) (A) (A) (A) (A) (A) (A) (A)
                 (A) (A) (A) (A) (A) (A) (A) (A) (A) (A) (A) (A)
                 (A) (A) (A) (A) (A) (A) (A) (A) (A) (A) (A) (A)
                 (A) (A) (A) (A) (A) (A) (A) (A) (A) (A) (A) (A)
                 (A) (A) (A) (A) (A) (A) (A) (A) (A) (A) (A) (A)
                 (A) (A) (A) (A) (A) (A) (A) (A) (A) (A) (A) (A)
                 (A) (A) (A) (A) (A) (A) (A) (A) (A) (A) (A) (A)
 The electronic state is 1-A.
 Alpha  occ. eigenvalues --  -10.22246 -10.22202 -10.22086 -10.21575 -10.21476
 Alpha  occ. eigenvalues --  -10.21407 -10.20276 -10.20009 -10.19695 -10.19653
 Alpha  occ. eigenvalues --  -10.19494 -10.19365 -10.19361 -10.19111 -10.19009
 Alpha  occ. eigenvalues --  -10.18966 -10.18903 -10.18872 -10.18783 -10.18658
 Alpha  occ. eigenvalues --  -10.18656 -10.18433 -10.18417 -10.18348 -10.18286
 Alpha  occ. eigenvalues --  -10.18099 -10.18011 -10.17403 -10.17299 -10.17036
 Alpha  occ. eigenvalues --   -0.92649  -0.89466  -0.88789  -0.85608  -0.84609
 Alpha  occ. eigenvalues --   -0.83704  -0.81016  -0.80151  -0.79238  -0.77752
 Alpha  occ. eigenvalues --   -0.75809  -0.75005  -0.73345  -0.71580  -0.71316
 Alpha  occ. eigenvalues --   -0.67316  -0.66393  -0.64365  -0.63714  -0.62505
 Alpha  occ. eigenvalues --   -0.60238  -0.59974  -0.59155  -0.57323  -0.56325
 Alpha  occ. eigenvalues --   -0.53392  -0.52202  -0.51929  -0.51331  -0.50561
 Alpha  occ. eigenvalues --   -0.50071  -0.48503  -0.47523  -0.47161  -0.45769
 Alpha  occ. eigenvalues --   -0.45231  -0.44985  -0.44565  -0.44442  -0.42999
 Alpha  occ. eigenvalues --   -0.42707  -0.42525  -0.41736  -0.41028  -0.40644
 Alpha  occ. eigenvalues --   -0.40395  -0.40256  -0.39712  -0.39049  -0.37735
 Alpha  occ. eigenvalues --   -0.36690  -0.36295  -0.36076  -0.35332  -0.34965
 Alpha  occ. eigenvalues --   -0.34465  -0.33761  -0.32850  -0.32733  -0.30665
 Alpha  occ. eigenvalues --   -0.29877  -0.28566  -0.26354  -0.24984  -0.24249
 Alpha  occ. eigenvalues --   -0.22278  -0.21007  -0.16372
 Alpha virt. eigenvalues --   -0.13683  -0.08391  -0.05520  -0.04679  -0.03127
 Alpha virt. eigenvalues --   -0.01393  -0.00757  -0.00473   0.00398   0.00692
 Alpha virt. eigenvalues --    0.01280   0.01402   0.01564   0.02324   0.02679
 Alpha virt. eigenvalues --    0.03035   0.03131   0.03513   0.03935   0.04261
 Alpha virt. eigenvalues --    0.04650   0.05058   0.05361   0.05730   0.05937
 Alpha virt. eigenvalues --    0.06384   0.06531   0.06789   0.07293   0.07740
 Alpha virt. eigenvalues --    0.08206   0.08546   0.08846   0.08981   0.09297
 Alpha virt. eigenvalues --    0.09603   0.10041   0.10391   0.10578   0.10764
 Alpha virt. eigenvalues --    0.11157   0.11616   0.11778   0.12518   0.12760
 Alpha virt. eigenvalues --    0.13128   0.13398   0.13843   0.14062   0.14335
 Alpha virt. eigenvalues --    0.14408   0.14815   0.15086   0.15211   0.15610
 Alpha virt. eigenvalues --    0.15800   0.16102   0.16299   0.16554   0.16769
 Alpha virt. eigenvalues --    0.16883   0.17175   0.17428   0.17719   0.17811
 Alpha virt. eigenvalues --    0.18068   0.18135   0.18310   0.18600   0.19050
 Alpha virt. eigenvalues --    0.19191   0.19491   0.19600   0.19759   0.20078
 Alpha virt. eigenvalues --    0.20358   0.20520   0.20697   0.20859   0.21062
 Alpha virt. eigenvalues --    0.21145   0.21446   0.21720   0.21860   0.22049
 Alpha virt. eigenvalues --    0.22147   0.22581   0.22894   0.23019   0.23238
 Alpha virt. eigenvalues --    0.23486   0.23666   0.24031   0.24197   0.24288
 Alpha virt. eigenvalues --    0.24671   0.25099   0.25212   0.25441   0.25612
 Alpha virt. eigenvalues --    0.25972   0.26050   0.26254   0.26519   0.26649
 Alpha virt. eigenvalues --    0.26992   0.27451   0.27524   0.27858   0.27924
 Alpha virt. eigenvalues --    0.28437   0.28580   0.28981   0.29187   0.29417
 Alpha virt. eigenvalues --    0.29834   0.30169   0.30341   0.30538   0.30769
 Alpha virt. eigenvalues --    0.31465   0.31718   0.31942   0.32343   0.32488
 Alpha virt. eigenvalues --    0.32679   0.33004   0.33332   0.33543   0.33842
 Alpha virt. eigenvalues --    0.34269   0.34603   0.34983   0.35618   0.35698
 Alpha virt. eigenvalues --    0.36090   0.36642   0.37080   0.37702   0.38205
 Alpha virt. eigenvalues --    0.38418   0.38894   0.39191   0.39678   0.40082
 Alpha virt. eigenvalues --    0.40356   0.41279   0.41478   0.42317   0.42731
 Alpha virt. eigenvalues --    0.43186   0.43988   0.44839   0.45571   0.46378
 Alpha virt. eigenvalues --    0.46967   0.47642   0.47849   0.48928   0.49376
 Alpha virt. eigenvalues --    0.50716   0.51043   0.51282   0.51700   0.51971
 Alpha virt. eigenvalues --    0.52358   0.52858   0.53037   0.53485   0.53889
 Alpha virt. eigenvalues --    0.54389   0.54657   0.55295   0.55378   0.56059
 Alpha virt. eigenvalues --    0.56483   0.56697   0.56900   0.57621   0.57792
 Alpha virt. eigenvalues --    0.58485   0.58539   0.59032   0.59214   0.59364
 Alpha virt. eigenvalues --    0.59981   0.60193   0.60746   0.61060   0.61160
 Alpha virt. eigenvalues --    0.61909   0.62314   0.62428   0.63242   0.63979
 Alpha virt. eigenvalues --    0.64197   0.64916   0.65392   0.65475   0.65926
 Alpha virt. eigenvalues --    0.66510   0.66737   0.67019   0.67101   0.68301
 Alpha virt. eigenvalues --    0.68576   0.68974   0.69309   0.69738   0.70218
 Alpha virt. eigenvalues --    0.70298   0.70672   0.70704   0.71275   0.71676
 Alpha virt. eigenvalues --    0.72081   0.72232   0.72583   0.72893   0.73073
 Alpha virt. eigenvalues --    0.73298   0.74105   0.74383   0.74439   0.74620
 Alpha virt. eigenvalues --    0.75326   0.75601   0.75859   0.76099   0.76711
 Alpha virt. eigenvalues --    0.77169   0.77534   0.77977   0.78695   0.79792
 Alpha virt. eigenvalues --    0.80325   0.80717   0.80882   0.81401   0.82936
 Alpha virt. eigenvalues --    0.83526   0.84047   0.85127   0.85325   0.85570
 Alpha virt. eigenvalues --    0.86013   0.86888   0.87095   0.87740   0.88111
 Alpha virt. eigenvalues --    0.88444   0.89035   0.89791   0.89918   0.90250
 Alpha virt. eigenvalues --    0.91340   0.91705   0.91883   0.92372   0.92648
 Alpha virt. eigenvalues --    0.93219   0.93734   0.93895   0.94474   0.94709
 Alpha virt. eigenvalues --    0.95167   0.95751   0.95772   0.96170   0.96595
 Alpha virt. eigenvalues --    0.96837   0.97472   0.98154   0.98583   0.98984
 Alpha virt. eigenvalues --    0.99499   1.00274   1.00568   1.01798   1.01990
 Alpha virt. eigenvalues --    1.02714   1.03108   1.03788   1.05004   1.05228
 Alpha virt. eigenvalues --    1.05948   1.06535   1.06732   1.07532   1.08021
 Alpha virt. eigenvalues --    1.08731   1.09020   1.09732   1.10155   1.10719
 Alpha virt. eigenvalues --    1.11343   1.12279   1.13229   1.13539   1.14879
 Alpha virt. eigenvalues --    1.15937   1.16880   1.17578   1.18762   1.20714
 Alpha virt. eigenvalues --    1.21217   1.22199   1.22572   1.24062   1.24948
 Alpha virt. eigenvalues --    1.26526   1.26687   1.28687   1.29525   1.30910
 Alpha virt. eigenvalues --    1.32935   1.33322   1.34812   1.36159   1.37575
 Alpha virt. eigenvalues --    1.38058   1.39264   1.40130   1.42076   1.42280
 Alpha virt. eigenvalues --    1.42957   1.43678   1.44520   1.45256   1.45861
 Alpha virt. eigenvalues --    1.46451   1.47049   1.48007   1.49219   1.49344
 Alpha virt. eigenvalues --    1.50191   1.50613   1.50929   1.51511   1.51669
 Alpha virt. eigenvalues --    1.52111   1.53004   1.53225   1.54403   1.54932
 Alpha virt. eigenvalues --    1.55341   1.55651   1.56546   1.56957   1.57812
 Alpha virt. eigenvalues --    1.58347   1.58730   1.59038   1.59869   1.60470
 Alpha virt. eigenvalues --    1.61257   1.61531   1.62768   1.63241   1.65447
 Alpha virt. eigenvalues --    1.65788   1.66482   1.67347   1.67937   1.68690
 Alpha virt. eigenvalues --    1.69402   1.70365   1.71201   1.71897   1.72419
 Alpha virt. eigenvalues --    1.73170   1.73566   1.74186   1.74939   1.75204
 Alpha virt. eigenvalues --    1.75854   1.76692   1.77121   1.77536   1.77632
 Alpha virt. eigenvalues --    1.78389   1.78929   1.79818   1.80324   1.81297
 Alpha virt. eigenvalues --    1.81576   1.82593   1.83960   1.84119   1.84381
 Alpha virt. eigenvalues --    1.85482   1.85933   1.86559   1.87228   1.87736
 Alpha virt. eigenvalues --    1.88600   1.88897   1.89454   1.90488   1.91247
 Alpha virt. eigenvalues --    1.91405   1.92216   1.92486   1.92991   1.93637
 Alpha virt. eigenvalues --    1.94218   1.94961   1.95056   1.96111   1.96870
 Alpha virt. eigenvalues --    1.97901   1.98253   1.98924   1.99190   2.00430
 Alpha virt. eigenvalues --    2.01502   2.02699   2.03321   2.03983   2.04737
 Alpha virt. eigenvalues --    2.05125   2.05454   2.06541   2.07052   2.07791
 Alpha virt. eigenvalues --    2.09215   2.09728   2.11429   2.12091   2.12152
 Alpha virt. eigenvalues --    2.12922   2.13836   2.14004   2.15339   2.16586
 Alpha virt. eigenvalues --    2.17245   2.18396   2.19276   2.20502   2.20873
 Alpha virt. eigenvalues --    2.21543   2.22352   2.23749   2.25442   2.25718
 Alpha virt. eigenvalues --    2.26111   2.26818   2.27770   2.28516   2.30541
 Alpha virt. eigenvalues --    2.31150   2.32249   2.33885   2.35416   2.37546
 Alpha virt. eigenvalues --    2.38932   2.39000   2.39280   2.40866   2.41657
 Alpha virt. eigenvalues --    2.42661   2.43431   2.45434   2.45988   2.47525
 Alpha virt. eigenvalues --    2.48446   2.50516   2.52579   2.53067   2.54374
 Alpha virt. eigenvalues --    2.56268   2.57145   2.57595   2.58457   2.58808
 Alpha virt. eigenvalues --    2.60476   2.61328   2.62470   2.63568   2.64685
 Alpha virt. eigenvalues --    2.66798   2.67760   2.68194   2.69929   2.70486
 Alpha virt. eigenvalues --    2.70806   2.71579   2.71817   2.72199   2.72530
 Alpha virt. eigenvalues --    2.72768   2.73261   2.73611   2.74107   2.74991
 Alpha virt. eigenvalues --    2.75492   2.76120   2.76242   2.76924   2.77372
 Alpha virt. eigenvalues --    2.77883   2.78251   2.78639   2.78828   2.79390
 Alpha virt. eigenvalues --    2.80350   2.80964   2.81667   2.82689   2.83217
 Alpha virt. eigenvalues --    2.84088   2.84592   2.85787   2.86158   2.87295
 Alpha virt. eigenvalues --    2.87956   2.88611   2.89213   2.89635   2.90806
 Alpha virt. eigenvalues --    2.91535   2.93297   2.93949   2.94836   2.97211
 Alpha virt. eigenvalues --    2.97361   2.99795   3.01689   3.02156   3.03771
 Alpha virt. eigenvalues --    3.05089   3.05976   3.06989   3.08440   3.11406
 Alpha virt. eigenvalues --    3.12397   3.12808   3.14113   3.14447   3.18436
 Alpha virt. eigenvalues --    3.19022   3.19695   3.20383   3.21087   3.21918
 Alpha virt. eigenvalues --    3.23655   3.25167   3.26596   3.27235   3.29870
 Alpha virt. eigenvalues --    3.31902   3.33846   3.34770   3.35471   3.36754
 Alpha virt. eigenvalues --    3.38923   3.39824   3.40715   3.41451   3.42982
 Alpha virt. eigenvalues --    3.43424   3.44820   3.47716   3.48573   3.49139
 Alpha virt. eigenvalues --    3.49637   3.52998   3.53767   3.56241   3.56719
 Alpha virt. eigenvalues --    3.59895   3.61551   3.62443   3.63192   3.66579
 Alpha virt. eigenvalues --    3.67705   3.70373   3.78458   3.82258   3.82807
 Alpha virt. eigenvalues --    3.87967   3.92630   3.95997   4.01344   4.05297
 Alpha virt. eigenvalues --    4.05630   4.06821   4.07471   4.08241   4.10300
 Alpha virt. eigenvalues --    4.13916   4.20180   4.23848   4.27068   4.32461
 Alpha virt. eigenvalues --    4.39642   4.48830   4.62641   4.67775   4.71176
 Alpha virt. eigenvalues --    4.75084   4.76362   4.79444   4.82621   4.85652
 Alpha virt. eigenvalues --    4.88702  23.40667  23.60997  23.66223  23.76362
 Alpha virt. eigenvalues --   23.80377  23.82691  23.83916  23.87067  23.87627
 Alpha virt. eigenvalues --   23.90533  23.92106  23.93689  23.95127  23.95914
 Alpha virt. eigenvalues --   23.99300  24.01051  24.02468  24.04245  24.05695
 Alpha virt. eigenvalues --   24.06903  24.07935  24.09081  24.11323  24.12296
 Alpha virt. eigenvalues --   24.13730  24.16217  24.16703  24.18200  24.19159
 Alpha virt. eigenvalues --   24.22147
          Condensed to atoms (all electrons):
               1          2          3          4          5          6
     1  C   10.937014   0.874713  -0.342234  -0.027980  -1.468121  -0.864966
     2  C    0.874713   7.867742   0.443264   0.510010   0.519360   0.635149
     3  C   -0.342234   0.443264   8.632473   0.976395   1.572638  -0.432697
[...]
 9,0.00002756,-0.00002133,0.00014112,0.00012326,0.00027384,-0.00011650,
 0.00010909,0.00013647,-0.00001360,0.00010974,-0.00006299,0.00012124,-0
 .00013349,-0.00000966,-0.00000529,-0.00000606,-0.00000058,-0.00000396,
 0.00000291,0.00000290,-0.00022813,0.00029609,0.00022761,0.00000191,0.0
 0000796,0.00000439,-0.00000435,0.00000207,-0.00000165,0.00000428,0.000
 00382,-0.00000139,0.00000051,0.00000309,0.00000022,-0.00000287,0.00000
 153,-0.00000709,0.00000383,-0.00000223,0.00000028,0.00000413,0.0000046
 8,0.00000024,-0.00000789,-0.00000814,-0.00000168,-0.00007075,0.0003565
 0,0.00029328,0.15095604,0.00026582,0.00012466,-0.00003173,0.00005800,-
 0.00037046,0.00007874,-0.00022851,-0.00008975,-0.00000588,0.00006809,0
 .00038981,-0.00007284,-0.00038600,-0.00000194,-0.00000311,0.00015755,-
 0.00037368,0.00013837,0.00001066,0.00039667,-0.00014437,-0.00066728,-0
 .00099978,0.00021642,0.00029661,0.00012382,-0.00003923,-0.00001269,-0.
 00029848,-0.00002326,0.00091693,-0.00202022,0.00094536,-0.00243572,0.0
 0115638,-0.00468387,0.01186372,-0.01187609,-0.01129632,0.00202615,0.00
 060459,0.00197717,-0.00023598,-0.00002318,-0.00002298,0.00018478,0.000
 15837,-0.00002886,-0.00055716,-0.00025003,0.00019636,-0.00040577,-0.00
 007606,-0.00018379,0.11493540,-0.19096510,-0.08953629,-0.00023618,0.00
 069443,-0.00111889,0.00057933,0.00386350,-0.00056919,0.00007594,0.0015
 7759,-0.00230458,-0.00002982,-0.00001630,0.00000594,0.00004959,-0.0000
 0868,-0.00001456,-0.00023766,-0.00015636,0.00000322,0.00034891,0.00035
 397,-0.00030813,0.00076792,0.00008374,0.00071719,-0.00061802,0.0000410
 7,0.00028703,-0.00004738,0.00040968,-0.00021142,0.00035130,-0.00047307
 ,-0.00001819,0.00000699,-0.00001432,0.00001311,-0.00001806,-0.00000103
 ,0.00009864,-0.00106055,0.00051915,0.00051878,0.00001735,0.00001345,0.
 00002211,-0.00000242,-0.00000491,0.00000036,0.00000829,0.00000022,-0.0
 0000018,-0.00000174,0.00000190,0.00001223,-0.00001520,-0.00000127,-0.0
 0000345,0.00000158,-0.00001653,-0.00001266,-0.00000464,-0.00000945,0.0
 0000116,-0.00001019,0.00000872,0.00003206,-0.00080134,0.00026831,-0.00
 030975,-0.12480572,0.19824613,-0.00022994,-0.00004434,-0.00003152,-0.0
 0015753,0.00020792,0.00007990,0.00011128,0.00014698,0.00010688,-0.0000
 9783,-0.00039233,0.00003756,0.00028694,-0.00005404,-0.00001428,-0.0001
 0904,0.00032657,-0.00014172,0.00021777,-0.00026846,-0.00009243,0.00021
 598,0.00113794,0.00007814,-0.00028623,-0.00018819,-0.00002906,0.000028
 79,0.00025230,0.00007481,0.00044972,0.00125759,-0.00076725,-0.00215103
 ,-0.00723306,0.00114424,0.01353100,-0.01082393,0.00090938,-0.00021455,
 0.00020340,-0.00131746,0.00024941,0.00000681,0.00003033,-0.00019900,-0
 .00011658,0.00006770,0.00052803,0.00017250,-0.00011547,0.00037590,0.00
 025395,-0.00021383,0.05913238,-0.09362046,-0.09172607,-0.00075437,-0.0
 0009975,0.00043419,-0.00323501,-0.00260294,0.00218638,-0.00699726,0.00
 655121,0.00693738,0.00004960,0.00003363,-0.00000033,-0.00002944,-0.000
 02463,0.00002704,0.00035866,0.00010719,0.00001548,-0.00035667,-0.00026
 313,0.00011841,-0.00045054,-0.00021858,-0.00068328,0.00056294,-0.00028
 866,-0.00025980,-0.00009027,-0.00043199,0.00026627,-0.00033426,0.00054
 016,-0.00009160,0.00000167,0.00000963,-0.00001203,0.00000977,0.0000420
 8,-0.00003000,0.00089279,-0.00049024,-0.00041439,-0.00001017,-0.000014
 23,-0.00001263,0.00000497,0.00000125,0.00000022,-0.00000585,-0.0000036
 5,-0.00000213,0.00000414,-0.00000794,-0.00001768,0.00001207,0.00000658
 ,0.00002649,-0.00000916,0.00000745,0.00001866,-0.00000729,0.00000702,-
 0.00000141,-0.00002435,-0.00000518,-0.00003876,-0.00061221,0.00007493,
 -0.00003944,-0.06082860,0.10365337,0.08486536,-0.00009389,0.00001002,-
 0.00002708,0.00000488,-0.00005448,-0.00002075,0.00002422,-0.00008694,-
 0.00002320,0.00005644,-0.00005367,0.00002943,0.00010935,0.00001495,0.0
 0001582,-0.00005978,0.00006626,-0.00001778,0.00029140,0.00010044,0.000
 11012,-0.00047926,0.00019362,0.00000119,-0.00002660,-0.00014995,-0.000
 00725,-0.00009648,0.00009407,-0.00001556,-0.00014304,-0.00028137,0.000
 15705,-0.00051774,0.00085319,0.00011902,-0.00434215,0.00202934,-0.0020
 9125,0.00018894,-0.00124199,-0.00044120,0.00007450,-0.00000113,0.00001
 533,-0.00002811,-0.00009452,0.00002423,0.00017545,0.00008474,-0.000084
 99,-0.00012659,0.00013315,-0.00010402,-0.00745652,-0.02123048,-0.02031
 295,-0.00185520,0.00392289,0.00040110,0.01037249,0.01410024,0.01367869
 ,-0.08828527,-0.05946634,-0.06506160,-0.00000152,-0.00001284,0.0000037
 5,-0.00003231,0.00001017,-0.00000795,-0.00001071,0.00006290,-0.0000220
 8,-0.00008306,-0.00025948,0.00029723,0.00009001,0.00037512,0.00037308,
 0.00024875,0.00013481,-0.00006006,0.00005281,-0.00007205,0.00002788,-0
 .00012025,0.00006036,-0.00001794,-0.00001133,0.00000622,-0.00000482,0.
 00000082,-0.00000863,-0.00000405,0.00035591,-0.00005060,0.00006048,-0.
 00000115,0.00000377,0.00000465,0.00000183,0.00000223,-0.00000160,-0.00
 000083,-0.00000288,0.00000256,0.00000277,-0.00000413,-0.00000007,-0.00
 000395,-0.00000526,0.00000122,-0.00000245,0.00000179,-0.00000208,-0.00
 000566,-0.00001308,0.00000659,-0.00001062,0.00000566,-0.00000701,-0.00
 005910,0.00005354,-0.00001287,0.00060705,-0.00039101,0.00099954,0.0908
 6135,-0.00003766,-0.00004605,-0.00001215,0.00002262,-0.00002134,0.0000
 4639,0.00004332,0.00001811,-0.00003822,-0.00004300,-0.00007297,0.00001
 780,0.00007898,-0.00001425,0.00000340,-0.00003475,0.00008758,-0.000015
 74,0.00007253,-0.00005930,-0.00003479,0.00009051,0.00013555,0.00027624
 ,-0.00005260,-0.00005020,0.00001495,-0.00001966,0.00005052,-0.00002376
 ,0.00022451,-0.00042078,-0.00013706,0.00098593,0.00022267,0.00039158,0
 .00218069,0.00234065,-0.00198148,-0.00024723,0.00007788,-0.00003264,-0
 .00000054,-0.00002122,0.00001438,-0.00002615,0.00004297,-0.00003468,-0
 .00002272,-0.00008045,0.00005004,-0.00016522,0.00009054,0.00010992,0.0
 0245172,0.00406676,0.00180235,0.00319828,0.00133862,-0.00384531,-0.008
 72668,-0.01086349,-0.01501052,-0.06051541,-0.17470292,-0.13019969,0.00
 002461,-0.00001029,0.00000810,-0.00001412,-0.00001013,0.00002433,0.000
 08289,0.00000863,-0.00005986,-0.00006744,0.00015148,-0.00009163,0.0000
 5729,0.00039471,-0.00028952,-0.00007482,-0.00018709,-0.00003212,-0.000
 00977,-0.00004234,0.00003102,0.00001652,0.00003360,0.00002298,0.000018
 65,-0.00000438,-0.00000562,-0.00001140,-0.00001195,0.00000474,-0.00040
 119,-0.00021085,-0.00012782,0.00000299,-0.00001335,-0.00000646,0.00000
 652,-0.00000661,-0.00000328,0.00000063,-0.00000951,-0.00000144,-0.0000
 0147,-0.00000674,0.00000343,-0.00000263,-0.00000798,-0.00000083,-0.000
 00601,0.00000080,0.00000207,-0.00000483,0.00000038,-0.00000020,-0.0000
 0783,0.00000298,-0.00000604,-0.00000831,0.00001718,-0.00004933,-0.0007
 5527,-0.00069600,0.00184733,0.06249833,0.18014106,0.00007628,0.0000241
 9,0.00002650,-0.00000529,-0.00001115,-0.00000408,0.00000111,0.00017225
 ,0.00002201,-0.00010587,0.00002656,-0.00002157,-0.00010917,-0.00002254
 ,0.00000114,0.00005398,-0.00004507,0.00000603,-0.00033276,-0.00010773,
 -0.00005343,-0.00014859,-0.00000712,-0.00031603,0.00010366,0.00003008,
 -0.00008483,0.00004095,-0.00010856,0.00005324,0.00012924,0.00041704,-0
 .00008575,-0.00031219,0.00022193,0.00026880,-0.00266987,-0.00089874,0.
 00421061,0.00026826,-0.00036450,-0.00009188,-0.00004269,0.00001394,-0.
 00001578,0.00001663,0.00005800,-0.00000020,-0.00007995,-0.00004782,0.0
 0006101,0.00021922,-0.00009149,-0.00002377,-0.00204125,-0.00628805,-0.
 00285046,0.00180884,-0.00448935,0.00466935,-0.00485138,-0.00810468,-0.
 00464871,-0.06528718,-0.13034817,-0.16511155,-0.00001595,0.00001436,-0
 .00000739,0.00002971,0.00000857,-0.00000501,-0.00004539,-0.00003223,0.
 00004707,0.00013951,0.00011849,-0.00023722,-0.00030618,-0.00044053,-0.
 00024428,-0.00024222,-0.00006478,0.00006791,0.00002628,0.00009057,-0.0
 0005370,0.00012000,-0.00010142,0.00004157,0.00002063,-0.00000461,0.000
 00461,-0.00000431,0.00000573,-0.00002936,-0.00009099,0.00006746,-0.000
 11428,0.00000294,-0.00000717,-0.00000877,0.00000462,-0.00000555,0.0000
 0409,-0.00000109,-0.00000449,0.00000010,-0.00000082,-0.00000465,-0.000
 00067,0.00000401,-0.00000401,-0.00000271,-0.00000653,-0.00000581,0.000
 00011,-0.00000813,-0.00000914,0.00000635,-0.00000173,0.00000753,0.0000
 0601,-0.00001635,-0.00002323,0.00007559,0.00063560,0.00204461,-0.00152
 501,0.07174488,0.14508532,0.16743832,0.00007505,0.00000148,-0.00002299
 ,-0.00000393,-0.00003467,0.00007589,-0.00002331,0.00008130,-0.00008298
 ,-0.00000650,0.00003215,0.00003059,-0.00008091,-0.00005791,0.00000138,
 0.00004632,-0.00003276,0.00002233,0.00004516,-0.00035521,-0.00027150,0
 .00000309,0.00006543,0.00009681,0.00002590,-0.00002209,-0.00001519,-0.
 00001470,-0.00002634,0.00000178,-0.00038240,0.00027376,-0.00041720,0.0
 0108079,-0.00064143,-0.00102040,0.00051349,0.00016419,0.00060539,-0.00
 008741,-0.00033257,-0.00007898,-0.00005895,-0.00001370,-0.00001183,0.0
 0005020,0.00003553,-0.00000292,-0.00010736,-0.00006594,0.00008839,-0.0
 0002657,0.00005326,0.00013877,0.00027176,0.00296819,0.00122331,-0.0055
 1466,0.00008166,0.00009133,-0.33305131,0.00147729,-0.05969531,-0.01222
 104,-0.00406457,-0.00472830,-0.00005319,0.00002494,-0.00000268,0.00006
 593,-0.00001206,-0.00000334,-0.00015072,-0.00011775,-0.00001824,0.0001
 5766,-0.00019784,-0.00010512,0.00017942,0.00083090,0.00094903,0.000156
 38,0.00010609,0.00013708,0.00003484,0.00017686,-0.00012009,0.00024595,
 -0.00020369,-0.00003002,0.00001165,0.00000561,0.00005231,-0.00003208,0
 .00006864,-0.00003209,-0.00056869,0.00015293,0.00012569,0.00000110,0.0
 0000717,-0.00000237,-0.00000007,-0.00000194,-0.00000381,0.00000367,-0.
 00000131,-0.00000200,0.00000139,-0.00000178,0.00000136,0.00000134,0.00
 000392,0.00000876,-0.00000110,-0.00000640,-0.00000337,-0.00000235,-0.0
 0000389,0.00000127,0.00000079,0.00000184,0.00000668,0.00001787,0.00004
 207,-0.00004321,-0.00059059,0.00011774,-0.00066189,0.00057358,-0.00035
 432,0.00070365,0.34970545,0.00006190,-0.00009524,0.00002705,0.00009543
 ,0.00008499,0.00007646,-0.00012551,0.00010575,-0.00022596,0.00013512,-
 0.00005777,0.00007279,0.00000191,-0.00011558,0.00002933,0.00002751,0.0
 0003764,0.00003396,0.00048391,-0.00067049,-0.00004619,0.00001760,0.000
 45187,0.00034256,-0.00004278,-0.00004822,-0.00007970,-0.00006236,0.000
 10640,-0.00001505,-0.00251734,0.00086386,-0.00071225,-0.00071581,-0.00
 202504,-0.00425599,0.00051390,0.00055799,0.00081205,-0.00064376,-0.000
 59619,0.00012137,-0.00012031,-0.00003349,-0.00000568,0.00015167,-0.000
 03020,-0.00001278,0.00001543,-0.00009373,0.00013419,0.00012473,-0.0000
 1504,0.00010120,0.00069726,-0.00062231,-0.00601385,-0.01775239,-0.0023
 4398,-0.00373398,-0.00330344,-0.03788463,-0.01431305,0.02449117,0.0027
 6882,0.00411770,-0.00016529,0.00000386,-0.00000676,0.00010884,0.000025
 17,-0.00002428,-0.00063313,-0.00017976,0.00008793,0.00015804,-0.000689
 49,0.00031625,-0.00140236,0.00263483,0.00213792,0.00022562,0.00125984,
 0.00038465,0.00033171,0.00043067,-0.00036841,0.00059919,-0.00071132,0.
 00005410,-0.00001081,-0.00001573,-0.00001150,-0.00003978,-0.00010670,-
 0.00005023,-0.00006164,0.00047098,0.00029585,0.00000636,0.00000692,-0.
 00001134,-0.00000110,-0.00000252,-0.00000884,0.00000607,0.00000392,0.0
 0000597,0.00000223,-0.00000147,0.00000162,0.00000407,0.00000369,0.0000
 0119,0.00000016,-0.00001449,-0.00001462,0.00000080,0.00000008,0.000011
 88,-0.00001575,-0.00000231,-0.00000233,-0.00005221,0.00005469,-0.00008
 033,0.00094654,-0.00021411,0.00029459,-0.00111436,-0.00138456,0.002662
 92,0.00003419,0.03807908,0.00015298,0.00026140,-0.00017415,-0.00028400
 ,-0.00037912,0.00001177,-0.00019760,-0.00037843,0.00032760,-0.00004594
 ,0.00038439,-0.00013508,-0.00025994,0.00019540,-0.00006109,0.00001655,
 -0.00036805,0.00005301,-0.00032603,0.00034931,0.00043136,-0.00027996,-
 0.00128978,-0.00093136,0.00028839,0.00029720,0.00017760,0.00002658,-0.
 00036722,0.00003085,0.00106979,-0.00226086,-0.00058271,0.00528528,-0.0
 0087775,-0.00204473,-0.00141833,-0.00063098,-0.00072163,0.00164381,0.0
 0101681,0.00047103,0.00007388,-0.00003411,0.00003506,-0.00013457,0.000
 08046,0.00000264,-0.00023429,-0.00000029,-0.00001973,-0.00044994,0.000
 56486,-0.00007007,0.00242427,-0.00369733,0.00407176,-0.02342026,0.0031
 5081,0.00065779,-0.05727047,-0.01859874,-0.05193491,0.00853461,0.00240
 245,0.00684490,0.00014065,0.00002145,-0.00001623,-0.00002892,-0.000069
 49,0.00007820,0.00039333,0.00004377,-0.00004566,0.00012981,0.00053166,
 -0.00067951,0.00145306,-0.00143460,-0.00034384,-0.00056461,-0.00096169
 ,-0.00017495,-0.00011988,-0.00022003,0.00019069,0.00010662,0.00022861,
 0.00018874,0.00003894,-0.00003749,-0.00004087,-0.00007171,0.00007918,-
 0.00039954,-0.00175683,-0.00044834,0.00017972,-0.00001423,0.00000298,-
 0.00002252,-0.00000522,-0.00000122,0.00001590,0.00000278,-0.00000209,-
 0.00000827,-0.00000101,0.00000516,0.00000880,-0.00001938,0.00000146,0.
 00000947,0.00000667,0.00000207,0.00001140,0.00000572,0.00000217,-0.000
 01585,0.00000228,-0.00000124,0.00001839,-0.00005520,-0.00003422,0.0000
 5229,0.00053927,-0.00000836,0.00036632,0.00054692,0.00287561,-0.002220
 89,0.06343966,0.01872137,0.04570598,0.00028710,0.00006449,-0.00003923,
 -0.00024007,0.00015699,-0.00006137,0.00071116,0.00063249,-0.00048048,-
 0.00139373,0.00087716,0.00008984,-0.00021817,0.00014727,-0.00011172,0.
 00007038,-0.00015483,0.00012078,-0.00265028,0.00040581,-0.00151327,-0.
 00144029,-0.00362022,-0.00133684,0.00141523,0.00088024,0.00028482,0.00
 016862,-0.00174828,0.00002147,0.00278860,-0.00088006,-0.00508191,-0.00
 981680,-0.01876331,0.02126634,-0.00510778,0.00469898,0.00060327,0.0041
 9354,0.00216903,0.00064604,0.00009282,-0.00009997,0.00010006,-0.000061
 21,-0.00022227,-0.00027826,0.00050998,-0.00018290,0.00029830,-0.000398
 93,0.00203077,0.00214657,0.00042774,0.00005008,0.00042840,-0.02615548,
 -0.02093311,0.03129686,0.00277286,-0.00033518,-0.01598085,-0.00260434,
 0.00076008,-0.00052463,-0.00002931,0.00001053,0.00004899,-0.00028641,0
 .00005383,-0.00012171,0.00030045,0.00052950,-0.00051447,-0.00279888,0.
 00058841,0.00144010,0.00035747,0.01771397,-0.00471006,-0.00135832,0.00
 458161,-0.00198717,-0.00006563,0.00010546,-0.00001637,0.00018606,-0.00
 008379,0.00068419,0.00001465,0.00005310,0.00010553,-0.00126491,-0.0004
 4429,0.00033282,-0.00440509,-0.00115437,-0.00032197,-0.00004636,-0.000
 13954,-0.00007169,0.00001232,0.00007553,-0.00007357,0.00000461,0.00000
 623,0.00000952,-0.00000591,0.00002715,0.00003874,-0.00000250,-0.000012
 74,-0.00002820,-0.00000179,-0.00000490,-0.00001927,0.00000097,-0.00002
 814,-0.00002739,0.00001058,0.00002285,0.00010212,0.00008051,-0.0001398
 3,0.00033244,0.00006394,0.00010038,-0.00017087,-0.00023896,-0.00044648
 ,0.00057589,-0.00029092,-0.00046125,0.00063649,0.04641249,0.00044027,-
 0.00002317,-0.00001140,0.00034012,0.00007857,0.00029561,-0.00056995,-0
 .00043181,0.00011005,0.00092938,0.00036250,-0.00003440,-0.00042188,0.0
 0000657,-0.00002118,0.00018837,-0.00055570,0.00019253,0.00119231,0.000
 04757,-0.00058037,0.00012785,0.00100029,0.00009937,-0.00033278,-0.0002
 2581,0.00015836,-0.00018417,0.00052067,-0.00005232,-0.00447668,0.00295
 465,0.00195257,-0.00753695,-0.00759424,0.00660713,0.00275841,0.0002718
 5,-0.00027194,-0.00111665,-0.00153532,-0.00095391,-0.00047176,0.000048
 25,-0.00008624,0.00031829,0.00025824,0.00002813,-0.00099442,-0.0001428
 9,-0.00009569,0.00050928,-0.00043451,-0.00047217,-0.00287195,0.0006243
 8,-0.00085962,-0.01364187,-0.09080051,0.10498751,0.00038750,0.00516807
 ,-0.01042800,0.00391834,-0.00311070,-0.00232576,-0.00001745,-0.0000922
 8,-0.00002263,0.00043101,0.00000129,0.00014628,-0.00115049,-0.00101613
 ,0.00136471,0.00408173,-0.00047747,-0.00305960,0.00226634,-0.03266674,
 0.00946308,-0.00254402,0.00110765,0.00084353,-0.00011542,0.00074222,-0
 .00062498,0.00059301,-0.00017853,0.00086643,-0.00006834,0.00003130,0.0
 0003360,0.00052842,0.00041986,-0.00046393,0.00505664,-0.00061747,0.001
 67863,-0.00001107,-0.00004046,-0.00018500,-0.00000375,-0.00011057,0.00
 012282,-0.00000091,-0.00000546,-0.00002322,-0.00001648,0.00000225,0.00
 002760,-0.00001363,0.00002059,0.00001662,0.00001880,-0.00001384,-0.000
 02219,0.00001522,0.00000898,-0.00000382,-0.00001985,-0.00001586,-0.000
 04406,-0.00004886,0.00000473,-0.00003871,-0.00010386,-0.00007938,0.000
 04995,-0.00022261,-0.00026792,0.00057307,-0.00025901,0.00000333,0.0008
 8283,0.01311353,0.12675297,0.00073495,0.00011020,-0.00026562,-0.000328
 16,-0.00034746,0.00033815,-0.00038327,-0.00097168,0.00063592,0.0009887
 5,0.00056932,-0.00016353,-0.00071972,0.00000780,-0.00007766,0.00026216
 ,-0.00080722,0.00018955,0.00214055,0.00020953,-0.00066991,-0.00004263,
 0.00120811,0.00005503,-0.00029550,-0.00018869,0.00010356,-0.00025797,0
 .00045882,-0.00002362,0.00011388,-0.00289074,-0.00139825,0.00494565,0.
 00827638,-0.01142364,0.00272800,0.00119749,0.00457200,-0.00109583,-0.0
 0261202,-0.00020966,-0.00054329,-0.00011513,-0.00001808,0.00050860,0.0
 0015369,0.00001763,-0.00034652,-0.00005782,-0.00016209,-0.00095296,0.0
 0029529,0.00076681,-0.00057162,0.00179502,-0.00072304,0.02474861,0.120
 00947,-0.17649200,-0.00029148,-0.00202174,-0.02860935,-0.00334301,-0.0
 0146455,-0.00075825,-0.00039233,-0.00004773,-0.00002454,0.00032458,0.0
 0014571,-0.00021457,-0.00139794,-0.00045445,0.00072232,0.00169018,-0.0
 0138160,-0.00025123,-0.00089912,-0.00549445,0.00173389,0.00117742,-0.0
 0197310,0.00042086,0.00051076,0.00107879,-0.00044566,0.00027893,-0.001
 42857,-0.00051762,-0.00006457,-0.00006556,-0.00009258,0.00017929,0.000
 42421,0.00113470,-0.00070034,-0.00266865,0.00344661,0.00008035,0.00014
 231,0.00020261,-0.00002388,-0.00002004,0.00002502,0.00000437,0.0000314
 7,0.00003411,0.00000303,0.00001081,0.00001050,-0.00002116,0.00003991,0
 .00006166,0.00002252,-0.00001000,-0.00000560,0.00001962,0.00000868,0.0
 0000395,-0.00000297,-0.00001911,0.00000262,0.00006065,0.00014054,-0.00
 024849,-0.00001212,-0.00001036,-0.00021357,-0.00027261,-0.00059179,0.0
 0074692,-0.00042561,-0.00085178,0.00070232,-0.02813825,-0.10981929,0.2
 0708185\\-0.00001076,0.00000800,-0.00000310,0.00000464,0.00001499,0.00
 002213,0.00001028,-0.00004195,0.00000313,0.00000025,0.00000227,0.00001
 038,0.00000229,-0.00000431,-0.00000302,0.00000416,-0.00000491,0.000003
 43,0.00001622,0.00000101,-0.00000712,-0.00000418,0.00002704,0.00001159
 ,-0.00000080,-0.00001274,0.00001025,0.00000789,0.00000128,0.00000624,0
 .00004445,0.00009930,-0.00000695,0.00004185,-0.00007161,-0.00007987,-0
 .00005408,-0.00001104,-0.00000368,0.00002707,0.00000624,0.00001061,0.0
 0001264,-0.00000112,-0.00000449,-0.00000116,-0.00000744,-0.00000395,0.
 00000750,-0.00000302,-0.00000716,-0.00009885,-0.00001661,0.00001458,0.
 00001744,-0.00000442,0.00000331,0.00000980,-0.00000806,0.00006424,0.00
 000882,0.00000310,-0.00001480,-0.00001217,-0.00000856,0.00000472,-0.00
 000154,-0.00000492,0.00000079,0.00000746,0.00000094,-0.00000534,-0.000
 00137,0.00000857,-0.00000047,0.00001295,-0.00000454,-0.00000636,-0.000
 07457,0.00004707,0.00000534,0.00000306,0.00002382,-0.00001933,-0.00000
 066,-0.00001062,-0.00000148,-0.00000257,0.00002063,-0.00000867,-0.0000
 0308,0.00000460,-0.00000534,-0.00000477,0.00000070,-0.00000680,0.00002
 316,-0.00003318,0.00000544,-0.00000011,0.00000233,-0.00000539,0.000002
 75,0.00000352,-0.00000453,0.00000297,0.00000078,-0.00000387,0.00000415
 ,-0.00000040,0.00000027,0.00000309,-0.00000145,0.00000364,0.00000149,-
 0.00000295,0.00000667,-0.00000059,-0.00000251,0.00000622,-0.00000226,-
 0.00000271,0.00000518,-0.00000137,-0.00000283,0.00000509,0.00000090,-0
 .00000248,0.00000423,0.00000137,0.00000290,-0.00000504,0.00000302,0.00
 000705,-0.00000908,-0.00000676,-0.00002174,0.00000837\\\@


 Change starts when someone sees the next step.
                            -- William Drayton
 Job cpu time:       1 days  0 hours 45 minutes 47.9 seconds.
 Elapsed time:       0 days  1 hours 14 minutes 30.1 seconds.
 File lengths (MBytes):  RWF=   2277 Int=      0 D2E=      0 Chk=     62 Scr=      1
 Normal termination of Gaussian 16 at Tue Aug 27 18:23:19 2019.
