 Entering Gaussian System, Link 0=/share/apps/gaussian16/g16/g16
 Initial command:
 /share/apps/gaussian16/g16/l1.exe "/home/amen01//scratch/500/Gau-44406.inp" -scrdir="/home/amen01//scratch/500/"
 Entering Link 1 = /share/apps/gaussian16/g16/l1.exe PID=     44407.
  
 Copyright (c) 1988-2017, Gaussian, Inc.  All Rights Reserved.
  
 This is part of the Gaussian(R) 16 program.  It is based on
 the Gaussian(R) 09 system (copyright 2009, Gaussian, Inc.),
 the Gaussian(R) 03 system (copyright 2003, Gaussian, Inc.),
 the Gaussian(R) 98 system (copyright 1998, Gaussian, Inc.),
 the Gaussian(R) 94 system (copyright 1995, Gaussian, Inc.),
 the Gaussian 92(TM) system (copyright 1992, Gaussian, Inc.),
 the Gaussian 90(TM) system (copyright 1990, Gaussian, Inc.),
 the Gaussian 88(TM) system (copyright 1988, Gaussian, Inc.),
 the Gaussian 86(TM) system (copyright 1986, Carnegie Mellon
 University), and the Gaussian 82(TM) system (copyright 1983,
 Carnegie Mellon University). Gaussian is a federally registered
 trademark of Gaussian, Inc.
  
 This software contains proprietary and confidential information,
 including trade secrets, belonging to Gaussian, Inc.
  
 This software is provided under written license and may be
 used, copied, transmitted, or stored only in accord with that
 written license.
  
 The following legend is applicable only to US Government
 contracts under FAR:
  
                    RESTRICTED RIGHTS LEGEND
  
 Use, reproduction and disclosure by the US Government is
 subject to restrictions as set forth in subparagraphs (a)
 and (c) of the Commercial Computer Software - Restricted
 Rights clause in FAR 52.227-19.
  
 Gaussian, Inc.
 340 Quinnipiac St., Bldg. 40, Wallingford CT 06492
  
  
 ---------------------------------------------------------------
 Warning -- This program may not be used in any manner that
 competes with the business of Gaussian, Inc. or will provide
 assistance to any competitor of Gaussian, Inc.  The licensee
 of this program is prohibited from giving any competitor of
 Gaussian, Inc. access to this program.  By using this program,
 the user acknowledges that Gaussian, Inc. is engaged in the
 business of creating and licensing software in the field of
 computational chemistry and represents and warrants to the
 licensee that it is not a competitor of Gaussian, Inc. and that
 it will not use this program in any manner prohibited above.
 ---------------------------------------------------------------
  

 Cite this work as:
 Gaussian 16, Revision B.01,
 M. J. Frisch, G. W. Trucks, H. B. Schlegel, G. E. Scuseria, 
 M. A. Robb, J. R. Cheeseman, G. Scalmani, V. Barone, 
 G. A. Petersson, H. Nakatsuji, X. Li, M. Caricato, A. V. Marenich, 
 J. Bloino, B. G. Janesko, R. Gomperts, B. Mennucci, H. P. Hratchian, 
 J. V. Ortiz, A. F. Izmaylov, J. L. Sonnenberg, D. Williams-Young, 
 F. Ding, F. Lipparini, F. Egidi, J. Goings, B. Peng, A. Petrone, 
 T. Henderson, D. Ranasinghe, V. G. Zakrzewski, J. Gao, N. Rega, 
 G. Zheng, W. Liang, M. Hada, M. Ehara, K. Toyota, R. Fukuda, 
 J. Hasegawa, M. Ishida, T. Nakajima, Y. Honda, O. Kitao, H. Nakai, 
 T. Vreven, K. Throssell, J. A. Montgomery, Jr., J. E. Peralta, 
 F. Ogliaro, M. J. Bearpark, J. J. Heyd, E. N. Brothers, K. N. Kudin, 
 V. N. Staroverov, T. A. Keith, R. Kobayashi, J. Normand, 
 K. Raghavachari, A. P. Rendell, J. C. Burant, S. S. Iyengar, 
 J. Tomasi, M. Cossi, J. M. Millam, M. Klene, C. Adamo, R. Cammi, 
 J. W. Ochterski, R. L. Martin, K. Morokuma, O. Farkas, 
 J. B. Foresman, and D. J. Fox, Gaussian, Inc., Wallingford CT, 2016.
 
 ******************************************
 Gaussian 16:  ES64L-G16RevB.01 20-Dec-2017
                14-Jun-2019 
 ******************************************
 %nprocshared=20
 Will use up to   20 processors via shared memory.
 %mem=100GB
 %chk=7-memb-carbTSguess-2a.chk
 ---------------------------------------------------------------
 # opt=(ts,calcfc,noeigen) freq b3lyp/6-311+g(d,p) int=grid=fine
 ---------------------------------------------------------------
 1/5=1,10=4,11=1,18=20,26=3,38=1/1,3;
 2/9=110,12=2,17=6,18=5,40=1/2;
 3/5=4,6=6,7=111,11=2,25=1,30=1,71=2,74=-5,75=-4,140=1/1,2,3;
 4//1;
 5/5=2,38=5/2;
 8/6=4,10=90,11=11/1;
 11/6=1,8=1,9=11,15=111,16=1/1,2,10;
 10/6=1,13=1/2;
 6/7=2,8=2,9=2,10=2,28=1/1;
 7/10=1,18=20,25=1/1,2,3,16;
 1/5=1,10=4,11=1,18=20,26=3/3(2);
 2/9=110/2;
 99//99;
 2/9=110/2;
 3/5=4,6=6,7=111,11=2,25=1,30=1,71=1,74=-5,75=-4/1,2,3;
 4/5=5,16=3,69=1/1;
 5/5=2,38=5/2;
 7//1,2,3,16;
 1/5=1,11=1,18=20,26=3/3(-5);
 2/9=110/2;
 6/7=2,8=2,9=2,10=2,19=2,28=1/1;
 99/9=1/99;
 ---------------------
 7-memb-carbTSguess-2a
 ---------------------
 Symbolic Z-matrix:
 Charge =  0 Multiplicity = 1
 C                     1.49471  -2.87705   0.02482 
 C                     1.36714  -1.4994    0.22019 
 C                     2.49566  -0.66223   0.26401 
 C                     3.79688  -1.06763   0.1057 
 C                     2.86159  -3.35109  -0.0686 
 C                     3.95315  -2.50136  -0.03287 
 C                     2.05412   0.66612   0.26384 
 C                     2.93354   1.73916   0.09329 
 C                     4.32883   1.35447   0.01583 
 C                     4.7405    0.03291   0.02065 
 C                     0.65406   0.69028   0.18877 
 C                     0.03997   1.92113  -0.06434 
 C                     0.90557   3.09529  -0.08843 
 C                     2.30776   2.99928  -0.04276 
 C                     0.2698   -3.54144  -0.16265 
 C                    -0.95469  -2.83295  -0.13489 
 C                    -1.03157  -1.39875   0.09932 
 C                     0.19422  -0.7304    0.20832 
 C                     0.25297   4.39619  -0.13277 
 C                    -1.34159   1.96747  -0.4399 
 C                    -1.90528   3.32746  -0.70645 
 C                    -1.06661   4.52104  -0.35047 
 C                    -2.18204  -3.52444  -0.41312 
 C                    -3.37096  -2.86982  -0.45295 
 C                    -3.47796  -1.47012  -0.13853 
 C                    -2.3166   -0.7431    0.185 
 C                    -2.43876   0.63891   0.63225 
 C                    -3.74654   1.13668   0.85648 
 C                    -4.75563  -0.84534  -0.07839 
 C                    -4.87536   0.43511   0.42937 
 H                    -5.8588    0.87721   0.55127 
 H                    -3.86772   2.09548   1.34773 
 H                    -1.70337   0.96955   1.36839 
 H                    -5.63397  -1.41255  -0.36449 
 H                    -4.28162  -3.41011  -0.68975 
 H                    -2.13865  -4.59022  -0.61191 
 H                     0.23916  -4.6067   -0.3711 
 H                     3.03785  -4.4134   -0.20387 
 H                     4.94601  -2.92551  -0.14158 
 H                     5.80101  -0.17837  -0.07221 
 H                     5.08191   2.13004  -0.07945 
 H                     2.89747   3.90742  -0.12619 
 H                     0.86464   5.27301   0.05632 
 H                    -1.54226   5.4967   -0.31493 
 H                    -2.03304   3.3231   -1.80852 
 H                    -2.92998   3.42606  -0.34404 
 

 GradGradGradGradGradGradGradGradGradGradGradGradGradGradGradGradGradGrad
 Berny optimization.
 Initialization pass.
                           ----------------------------
                           !    Initial Parameters    !
                           ! (Angstroms and Degrees)  !
 --------------------------                            --------------------------
 ! Name  Definition              Value          Derivative Info.                !
 --------------------------------------------------------------------------------
 ! R1    R(1,2)                  1.3973         calculate D2E/DX2 analytically  !
 ! R2    R(1,5)                  1.4498         calculate D2E/DX2 analytically  !
 ! R3    R(1,15)                 1.406          calculate D2E/DX2 analytically  !
 ! R4    R(2,3)                  1.4058         calculate D2E/DX2 analytically  !
 ! R5    R(2,18)                 1.4026         calculate D2E/DX2 analytically  !
 ! R6    R(3,4)                  1.3721         calculate D2E/DX2 analytically  !
 ! R7    R(3,7)                  1.3998         calculate D2E/DX2 analytically  !
 ! R8    R(4,6)                  1.4489         calculate D2E/DX2 analytically  !
 ! R9    R(4,10)                 1.4522         calculate D2E/DX2 analytically  !
 ! R10   R(5,6)                  1.3838         calculate D2E/DX2 analytically  !
 ! R11   R(5,38)                 1.0853         calculate D2E/DX2 analytically  !
 ! R12   R(6,39)                 1.0851         calculate D2E/DX2 analytically  !
 ! R13   R(7,8)                  1.3978         calculate D2E/DX2 analytically  !
 ! R14   R(7,11)                 1.4023         calculate D2E/DX2 analytically  !
 ! R15   R(8,9)                  1.4494         calculate D2E/DX2 analytically  !
 ! R16   R(8,14)                 1.4135         calculate D2E/DX2 analytically  !
 ! R17   R(9,10)                 1.3842         calculate D2E/DX2 analytically  !
 ! R18   R(9,41)                 1.0852         calculate D2E/DX2 analytically  !
 ! R19   R(10,40)                1.0853         calculate D2E/DX2 analytically  !
 ! R20   R(11,12)                1.3986         calculate D2E/DX2 analytically  !
 ! R21   R(11,18)                1.4934         calculate D2E/DX2 analytically  !
 ! R22   R(12,13)                1.4589         calculate D2E/DX2 analytically  !
 ! R23   R(12,20)                1.4324         calculate D2E/DX2 analytically  !
 ! R24   R(13,14)                1.4062         calculate D2E/DX2 analytically  !
 ! R25   R(13,19)                1.4561         calculate D2E/DX2 analytically  !
 ! R26   R(14,42)                1.086          calculate D2E/DX2 analytically  !
 ! R27   R(15,16)                1.415          calculate D2E/DX2 analytically  !
 ! R28   R(15,37)                1.0859         calculate D2E/DX2 analytically  !
 ! R29   R(16,17)                1.4552         calculate D2E/DX2 analytically  !
 ! R30   R(16,23)                1.436          calculate D2E/DX2 analytically  !
 ! R31   R(17,18)                1.4004         calculate D2E/DX2 analytically  !
 ! R32   R(17,26)                1.4452         calculate D2E/DX2 analytically  !
 ! R33   R(19,22)                1.3432         calculate D2E/DX2 analytically  !
 ! R34   R(19,43)                1.0857         calculate D2E/DX2 analytically  !
 ! R35   R(20,21)                1.4961         calculate D2E/DX2 analytically  !
 ! R36   R(21,22)                1.5016         calculate D2E/DX2 analytically  !
 ! R37   R(21,45)                1.1095         calculate D2E/DX2 analytically  !
 ! R38   R(21,46)                1.0914         calculate D2E/DX2 analytically  !
 ! R39   R(22,44)                1.086          calculate D2E/DX2 analytically  !
 ! R40   R(23,24)                1.3578         calculate D2E/DX2 analytically  !
 ! R41   R(23,36)                1.085          calculate D2E/DX2 analytically  !
 ! R42   R(24,25)                1.4386         calculate D2E/DX2 analytically  !
 ! R43   R(24,35)                1.085          calculate D2E/DX2 analytically  !
 ! R44   R(25,26)                1.4078         calculate D2E/DX2 analytically  !
 ! R45   R(25,29)                1.4235         calculate D2E/DX2 analytically  !
 ! R46   R(26,27)                1.4577         calculate D2E/DX2 analytically  !
 ! R47   R(27,28)                1.4172         calculate D2E/DX2 analytically  !
 ! R48   R(27,33)                1.0918         calculate D2E/DX2 analytically  !
 ! R49   R(28,30)                1.396          calculate D2E/DX2 analytically  !
 ! R50   R(28,32)                1.0841         calculate D2E/DX2 analytically  !
 ! R51   R(29,30)                1.3826         calculate D2E/DX2 analytically  !
 ! R52   R(29,34)                1.084          calculate D2E/DX2 analytically  !
 ! R53   R(30,31)                1.0851         calculate D2E/DX2 analytically  !
 ! A1    A(2,1,5)              114.6754         calculate D2E/DX2 analytically  !
 ! A2    A(2,1,15)             113.8911         calculate D2E/DX2 analytically  !
 ! A3    A(5,1,15)             131.1681         calculate D2E/DX2 analytically  !
 ! A4    A(1,2,3)              121.2122         calculate D2E/DX2 analytically  !
 ! A5    A(1,2,18)             128.0055         calculate D2E/DX2 analytically  !
 ! A6    A(3,2,18)             110.1862         calculate D2E/DX2 analytically  !
 ! A7    A(2,3,4)              125.5738         calculate D2E/DX2 analytically  !
 ! A8    A(2,3,7)              108.1729         calculate D2E/DX2 analytically  !
 ! A9    A(4,3,7)              125.4159         calculate D2E/DX2 analytically  !
 ! A10   A(3,4,6)              113.935          calculate D2E/DX2 analytically  !
 ! A11   A(3,4,10)             113.5206         calculate D2E/DX2 analytically  !
 ! A12   A(6,4,10)             132.3959         calculate D2E/DX2 analytically  !
 ! A13   A(1,5,6)              122.7706         calculate D2E/DX2 analytically  !
 ! A14   A(1,5,38)             118.7642         calculate D2E/DX2 analytically  !
 ! A15   A(6,5,38)             118.436          calculate D2E/DX2 analytically  !
 ! A16   A(4,6,5)              121.6714         calculate D2E/DX2 analytically  !
 ! A17   A(4,6,39)             119.6739         calculate D2E/DX2 analytically  !
 ! A18   A(5,6,39)             118.6294         calculate D2E/DX2 analytically  !
 ! A19   A(3,7,8)              122.0076         calculate D2E/DX2 analytically  !
 ! A20   A(3,7,11)             109.3468         calculate D2E/DX2 analytically  !
 ! A21   A(8,7,11)             127.4729         calculate D2E/DX2 analytically  !
 ! A22   A(7,8,9)              114.1056         calculate D2E/DX2 analytically  !
 ! A23   A(7,8,14)             114.6809         calculate D2E/DX2 analytically  !
 ! A24   A(9,8,14)             131.1207         calculate D2E/DX2 analytically  !
 ! A25   A(8,9,10)             122.6504         calculate D2E/DX2 analytically  !
 ! A26   A(8,9,41)             118.8836         calculate D2E/DX2 analytically  !
 ! A27   A(10,9,41)            118.4407         calculate D2E/DX2 analytically  !
 ! A28   A(4,10,9)             122.0396         calculate D2E/DX2 analytically  !
 ! A29   A(4,10,40)            119.4996         calculate D2E/DX2 analytically  !
 ! A30   A(9,10,40)            118.435          calculate D2E/DX2 analytically  !
 ! A31   A(7,11,12)            117.5951         calculate D2E/DX2 analytically  !
 ! A32   A(7,11,18)            106.8786         calculate D2E/DX2 analytically  !
 ! A33   A(12,11,18)           134.7789         calculate D2E/DX2 analytically  !
 ! A34   A(11,12,13)           116.7918         calculate D2E/DX2 analytically  !
 ! A35   A(11,12,20)           119.9593         calculate D2E/DX2 analytically  !
 ! A36   A(13,12,20)           122.8106         calculate D2E/DX2 analytically  !
 ! A37   A(12,13,14)           122.4202         calculate D2E/DX2 analytically  !
 ! A38   A(12,13,19)           116.9764         calculate D2E/DX2 analytically  !
 ! A39   A(14,13,19)           120.5899         calculate D2E/DX2 analytically  !
 ! A40   A(8,14,13)            120.3608         calculate D2E/DX2 analytically  !
 ! A41   A(8,14,42)            120.8277         calculate D2E/DX2 analytically  !
 ! A42   A(13,14,42)           118.8072         calculate D2E/DX2 analytically  !
 ! A43   A(1,15,16)            120.9765         calculate D2E/DX2 analytically  !
 ! A44   A(1,15,37)            120.9123         calculate D2E/DX2 analytically  !
 ! A45   A(16,15,37)           118.0697         calculate D2E/DX2 analytically  !
 ! A46   A(15,16,17)           122.8442         calculate D2E/DX2 analytically  !
 ! A47   A(15,16,23)           119.6531         calculate D2E/DX2 analytically  !
 ! A48   A(17,16,23)           117.4275         calculate D2E/DX2 analytically  !
 ! A49   A(16,17,18)           115.8898         calculate D2E/DX2 analytically  !
 ! A50   A(16,17,26)           120.2413         calculate D2E/DX2 analytically  !
 ! A51   A(18,17,26)           123.8612         calculate D2E/DX2 analytically  !
 ! A52   A(2,18,11)            105.3188         calculate D2E/DX2 analytically  !
 ! A53   A(2,18,17)            118.0979         calculate D2E/DX2 analytically  !
 ! A54   A(11,18,17)           136.2639         calculate D2E/DX2 analytically  !
 ! A55   A(13,19,22)           121.8887         calculate D2E/DX2 analytically  !
 ! A56   A(13,19,43)           117.6287         calculate D2E/DX2 analytically  !
 ! A57   A(22,19,43)           120.4398         calculate D2E/DX2 analytically  !
 ! A58   A(12,20,21)           116.0723         calculate D2E/DX2 analytically  !
 ! A59   A(20,21,22)           118.027          calculate D2E/DX2 analytically  !
 ! A60   A(20,21,45)           102.5203         calculate D2E/DX2 analytically  !
 ! A61   A(20,21,46)           112.1308         calculate D2E/DX2 analytically  !
 ! A62   A(22,21,45)           107.6342         calculate D2E/DX2 analytically  !
 ! A63   A(22,21,46)           111.9542         calculate D2E/DX2 analytically  !
 ! A64   A(45,21,46)           102.8323         calculate D2E/DX2 analytically  !
 ! A65   A(19,22,21)           120.8792         calculate D2E/DX2 analytically  !
 ! A66   A(19,22,44)           120.562          calculate D2E/DX2 analytically  !
 ! A67   A(21,22,44)           118.506          calculate D2E/DX2 analytically  !
 ! A68   A(16,23,24)           121.4621         calculate D2E/DX2 analytically  !
 ! A69   A(16,23,36)           118.316          calculate D2E/DX2 analytically  !
 ! A70   A(24,23,36)           120.2119         calculate D2E/DX2 analytically  !
 ! A71   A(23,24,25)           121.8569         calculate D2E/DX2 analytically  !
 ! A72   A(23,24,35)           120.0822         calculate D2E/DX2 analytically  !
 ! A73   A(25,24,35)           118.0193         calculate D2E/DX2 analytically  !
 ! A74   A(24,25,26)           119.4283         calculate D2E/DX2 analytically  !
 ! A75   A(24,25,29)           120.2004         calculate D2E/DX2 analytically  !
 ! A76   A(26,25,29)           120.2684         calculate D2E/DX2 analytically  !
 ! A77   A(17,26,25)           119.0523         calculate D2E/DX2 analytically  !
 ! A78   A(17,26,27)           121.5222         calculate D2E/DX2 analytically  !
 ! A79   A(25,26,27)           119.4045         calculate D2E/DX2 analytically  !
 ! A80   A(26,27,28)           117.3157         calculate D2E/DX2 analytically  !
 ! A81   A(26,27,33)           115.9468         calculate D2E/DX2 analytically  !
 ! A82   A(28,27,33)           114.1114         calculate D2E/DX2 analytically  !
 ! A83   A(27,28,30)           121.4168         calculate D2E/DX2 analytically  !
 ! A84   A(27,28,32)           119.0455         calculate D2E/DX2 analytically  !
 ! A85   A(30,28,32)           119.5185         calculate D2E/DX2 analytically  !
 ! A86   A(25,29,30)           119.9798         calculate D2E/DX2 analytically  !
 ! A87   A(25,29,34)           119.1077         calculate D2E/DX2 analytically  !
 ! A88   A(30,29,34)           120.7531         calculate D2E/DX2 analytically  !
 ! A89   A(28,30,29)           120.5133         calculate D2E/DX2 analytically  !
 ! A90   A(28,30,31)           119.5851         calculate D2E/DX2 analytically  !
 ! A91   A(29,30,31)           119.8051         calculate D2E/DX2 analytically  !
 ! D1    D(5,1,2,3)              2.4084         calculate D2E/DX2 analytically  !
 ! D2    D(5,1,2,18)           172.6527         calculate D2E/DX2 analytically  !
 ! D3    D(15,1,2,3)          -172.3452         calculate D2E/DX2 analytically  !
 ! D4    D(15,1,2,18)           -2.1009         calculate D2E/DX2 analytically  !
 ! D5    D(2,1,5,6)             -3.0054         calculate D2E/DX2 analytically  !
 ! D6    D(2,1,5,38)           178.991          calculate D2E/DX2 analytically  !
 ! D7    D(15,1,5,6)           170.6182         calculate D2E/DX2 analytically  !
 ! D8    D(15,1,5,38)           -7.3854         calculate D2E/DX2 analytically  !
 ! D9    D(2,1,15,16)           -0.5259         calculate D2E/DX2 analytically  !
 ! D10   D(2,1,15,37)          177.0855         calculate D2E/DX2 analytically  !
 ! D11   D(5,1,15,16)         -174.1889         calculate D2E/DX2 analytically  !
 ! D12   D(5,1,15,37)            3.4225         calculate D2E/DX2 analytically  !
 ! D13   D(1,2,3,4)              1.1343         calculate D2E/DX2 analytically  !
 ! D14   D(1,2,3,7)            171.088          calculate D2E/DX2 analytically  !
 ! D15   D(18,2,3,4)          -170.6874         calculate D2E/DX2 analytically  !
 ! D16   D(18,2,3,7)            -0.7337         calculate D2E/DX2 analytically  !
 ! D17   D(1,2,18,11)         -168.748          calculate D2E/DX2 analytically  !
 ! D18   D(1,2,18,17)            5.8047         calculate D2E/DX2 analytically  !
 ! D19   D(3,2,18,11)            2.3697         calculate D2E/DX2 analytically  !
 ! D20   D(3,2,18,17)          176.9224         calculate D2E/DX2 analytically  !
 ! D21   D(2,3,4,6)             -3.9049         calculate D2E/DX2 analytically  !
 ! D22   D(2,3,4,10)           172.2247         calculate D2E/DX2 analytically  !
 ! D23   D(7,3,4,6)           -172.1706         calculate D2E/DX2 analytically  !
 ! D24   D(7,3,4,10)             3.959          calculate D2E/DX2 analytically  !
 ! D25   D(2,3,7,8)           -169.8494         calculate D2E/DX2 analytically  !
 ! D26   D(2,3,7,11)            -1.3681         calculate D2E/DX2 analytically  !
 ! D27   D(4,3,7,8)              0.1242         calculate D2E/DX2 analytically  !
 ! D28   D(4,3,7,11)           168.6055         calculate D2E/DX2 analytically  !
 ! D29   D(3,4,6,5)              3.1782         calculate D2E/DX2 analytically  !
 ! D30   D(3,4,6,39)          -178.6739         calculate D2E/DX2 analytically  !
 ! D31   D(10,4,6,5)          -172.0145         calculate D2E/DX2 analytically  !
 ! D32   D(10,4,6,39)            6.1335         calculate D2E/DX2 analytically  !
 ! D33   D(3,4,10,9)            -3.901          calculate D2E/DX2 analytically  !
 ! D34   D(3,4,10,40)          177.974          calculate D2E/DX2 analytically  !
 ! D35   D(6,4,10,9)           171.3069         calculate D2E/DX2 analytically  !
 ! D36   D(6,4,10,40)           -6.818          calculate D2E/DX2 analytically  !
 ! D37   D(1,5,6,4)              0.1839         calculate D2E/DX2 analytically  !
 ! D38   D(1,5,6,39)          -177.9828         calculate D2E/DX2 analytically  !
 ! D39   D(38,5,6,4)           178.1937         calculate D2E/DX2 analytically  !
 ! D40   D(38,5,6,39)            0.027          calculate D2E/DX2 analytically  !
 ! D41   D(3,7,8,9)             -4.1704         calculate D2E/DX2 analytically  !
 ! D42   D(3,7,8,14)           172.7219         calculate D2E/DX2 analytically  !
 ! D43   D(11,7,8,9)          -170.4372         calculate D2E/DX2 analytically  !
 ! D44   D(11,7,8,14)            6.4551         calculate D2E/DX2 analytically  !
 ! D45   D(3,7,11,12)         -168.7646         calculate D2E/DX2 analytically  !
 ! D46   D(3,7,11,18)            2.7886         calculate D2E/DX2 analytically  !
 ! D47   D(8,7,11,12)           -1.0839         calculate D2E/DX2 analytically  !
 ! D48   D(8,7,11,18)          170.4693         calculate D2E/DX2 analytically  !
 ! D49   D(7,8,9,10)             4.1078         calculate D2E/DX2 analytically  !
 ! D50   D(7,8,9,41)          -177.7549         calculate D2E/DX2 analytically  !
 ! D51   D(14,8,9,10)         -172.143          calculate D2E/DX2 analytically  !
 ! D52   D(14,8,9,41)            5.9944         calculate D2E/DX2 analytically  !
 ! D53   D(7,8,14,13)           -4.1115         calculate D2E/DX2 analytically  !
 ! D54   D(7,8,14,42)          176.6528         calculate D2E/DX2 analytically  !
 ! D55   D(9,8,14,13)          172.1221         calculate D2E/DX2 analytically  !
 ! D56   D(9,8,14,42)           -7.1136         calculate D2E/DX2 analytically  !
 ! D57   D(8,9,10,4)            -0.0693         calculate D2E/DX2 analytically  !
 ! D58   D(8,9,10,40)          178.0749         calculate D2E/DX2 analytically  !
 ! D59   D(41,9,10,4)         -178.2145         calculate D2E/DX2 analytically  !
 ! D60   D(41,9,10,40)          -0.0703         calculate D2E/DX2 analytically  !
 ! D61   D(7,11,12,13)          -6.2414         calculate D2E/DX2 analytically  !
 ! D62   D(7,11,12,20)         166.3756         calculate D2E/DX2 analytically  !
 ! D63   D(18,11,12,13)       -174.82           calculate D2E/DX2 analytically  !
 ! D64   D(18,11,12,20)         -2.2029         calculate D2E/DX2 analytically  !
 ! D65   D(7,11,18,2)           -3.138          calculate D2E/DX2 analytically  !
 ! D66   D(7,11,18,17)        -176.1807         calculate D2E/DX2 analytically  !
 ! D67   D(12,11,18,2)         166.2943         calculate D2E/DX2 analytically  !
 ! D68   D(12,11,18,17)         -6.7485         calculate D2E/DX2 analytically  !
 ! D69   D(11,12,13,14)          8.4039         calculate D2E/DX2 analytically  !
 ! D70   D(11,12,13,19)       -170.2654         calculate D2E/DX2 analytically  !
 ! D71   D(20,12,13,14)       -163.9842         calculate D2E/DX2 analytically  !
 ! D72   D(20,12,13,19)         17.3465         calculate D2E/DX2 analytically  !
 ! D73   D(11,12,20,21)       -179.2678         calculate D2E/DX2 analytically  !
 ! D74   D(13,12,20,21)         -7.112          calculate D2E/DX2 analytically  !
 ! D75   D(12,13,14,8)          -3.0071         calculate D2E/DX2 analytically  !
 ! D76   D(12,13,14,42)        176.2439         calculate D2E/DX2 analytically  !
 ! D77   D(19,13,14,8)         175.6153         calculate D2E/DX2 analytically  !
 ! D78   D(19,13,14,42)         -5.1338         calculate D2E/DX2 analytically  !
 ! D79   D(12,13,19,22)        -10.0788         calculate D2E/DX2 analytically  !
 ! D80   D(12,13,19,43)        167.5506         calculate D2E/DX2 analytically  !
 ! D81   D(14,13,19,22)        171.2261         calculate D2E/DX2 analytically  !
 ! D82   D(14,13,19,43)        -11.1445         calculate D2E/DX2 analytically  !
 ! D83   D(1,15,16,17)          -0.676          calculate D2E/DX2 analytically  !
 ! D84   D(1,15,16,23)         176.089          calculate D2E/DX2 analytically  !
 ! D85   D(37,15,16,17)       -178.3536         calculate D2E/DX2 analytically  !
 ! D86   D(37,15,16,23)         -1.5886         calculate D2E/DX2 analytically  !
 ! D87   D(15,16,17,18)          4.1935         calculate D2E/DX2 analytically  !
 ! D88   D(15,16,17,26)       -176.7818         calculate D2E/DX2 analytically  !
 ! D89   D(23,16,17,18)       -172.6393         calculate D2E/DX2 analytically  !
 ! D90   D(23,16,17,26)          6.3854         calculate D2E/DX2 analytically  !
 ! D91   D(15,16,23,24)       -177.1374         calculate D2E/DX2 analytically  !
 ! D92   D(15,16,23,36)          1.7164         calculate D2E/DX2 analytically  !
 ! D93   D(17,16,23,24)         -0.1993         calculate D2E/DX2 analytically  !
 ! D94   D(17,16,23,36)        178.6545         calculate D2E/DX2 analytically  !
 ! D95   D(16,17,18,2)          -6.3005         calculate D2E/DX2 analytically  !
 ! D96   D(16,17,18,11)        166.0892         calculate D2E/DX2 analytically  !
 ! D97   D(26,17,18,2)         174.7141         calculate D2E/DX2 analytically  !
 ! D98   D(26,17,18,11)        -12.8961         calculate D2E/DX2 analytically  !
 ! D99   D(16,17,26,25)         -8.4947         calculate D2E/DX2 analytically  !
 ! D100  D(16,17,26,27)        169.8296         calculate D2E/DX2 analytically  !
 ! D101  D(18,17,26,25)        170.4487         calculate D2E/DX2 analytically  !
 ! D102  D(18,17,26,27)        -11.227          calculate D2E/DX2 analytically  !
 ! D103  D(13,19,22,21)         -6.6944         calculate D2E/DX2 analytically  !
 ! D104  D(13,19,22,44)        175.9884         calculate D2E/DX2 analytically  !
 ! D105  D(43,19,22,21)        175.7417         calculate D2E/DX2 analytically  !
 ! D106  D(43,19,22,44)         -1.5755         calculate D2E/DX2 analytically  !
 ! D107  D(12,20,21,22)         -9.6662         calculate D2E/DX2 analytically  !
 ! D108  D(12,20,21,45)        108.3522         calculate D2E/DX2 analytically  !
 ! D109  D(12,20,21,46)       -142.0197         calculate D2E/DX2 analytically  !
 ! D110  D(20,21,22,19)         16.9572         calculate D2E/DX2 analytically  !
 ! D111  D(20,21,22,44)       -165.6715         calculate D2E/DX2 analytically  !
 ! D112  D(45,21,22,19)        -98.3141         calculate D2E/DX2 analytically  !
 ! D113  D(45,21,22,44)         79.0571         calculate D2E/DX2 analytically  !
 ! D114  D(46,21,22,19)        149.3891         calculate D2E/DX2 analytically  !
 ! D115  D(46,21,22,44)        -33.2397         calculate D2E/DX2 analytically  !
 ! D116  D(16,23,24,25)         -3.9212         calculate D2E/DX2 analytically  !
 ! D117  D(16,23,24,35)        178.4704         calculate D2E/DX2 analytically  !
 ! D118  D(36,23,24,25)        177.2464         calculate D2E/DX2 analytically  !
 ! D119  D(36,23,24,35)         -0.3619         calculate D2E/DX2 analytically  !
 ! D120  D(23,24,25,26)          1.7728         calculate D2E/DX2 analytically  !
 ! D121  D(23,24,25,29)       -174.5502         calculate D2E/DX2 analytically  !
 ! D122  D(35,24,25,26)        179.4286         calculate D2E/DX2 analytically  !
 ! D123  D(35,24,25,29)          3.1055         calculate D2E/DX2 analytically  !
 ! D124  D(24,25,26,17)          4.4264         calculate D2E/DX2 analytically  !
 ! D125  D(24,25,26,27)       -173.934          calculate D2E/DX2 analytically  !
 ! D126  D(29,25,26,17)       -179.2531         calculate D2E/DX2 analytically  !
 ! D127  D(29,25,26,27)          2.3865         calculate D2E/DX2 analytically  !
 ! D128  D(24,25,29,30)        169.6347         calculate D2E/DX2 analytically  !
 ! D129  D(24,25,29,34)         -5.8107         calculate D2E/DX2 analytically  !
 ! D130  D(26,25,29,30)         -6.6572         calculate D2E/DX2 analytically  !
 ! D131  D(26,25,29,34)        177.8974         calculate D2E/DX2 analytically  !
 ! D132  D(17,26,27,28)       -171.6585         calculate D2E/DX2 analytically  !
 ! D133  D(17,26,27,33)        -31.9611         calculate D2E/DX2 analytically  !
 ! D134  D(25,26,27,28)          6.6601         calculate D2E/DX2 analytically  !
 ! D135  D(25,26,27,33)        146.3574         calculate D2E/DX2 analytically  !
 ! D136  D(26,27,28,30)        -11.9658         calculate D2E/DX2 analytically  !
 ! D137  D(26,27,28,32)        169.6384         calculate D2E/DX2 analytically  !
 ! D138  D(33,27,28,30)       -152.3808         calculate D2E/DX2 analytically  !
 ! D139  D(33,27,28,32)         29.2234         calculate D2E/DX2 analytically  !
 ! D140  D(27,28,30,29)          8.0477         calculate D2E/DX2 analytically  !
 ! D141  D(27,28,30,31)       -175.5313         calculate D2E/DX2 analytically  !
 ! D142  D(32,28,30,29)       -173.5639         calculate D2E/DX2 analytically  !
 ! D143  D(32,28,30,31)          2.8571         calculate D2E/DX2 analytically  !
 ! D144  D(25,29,30,28)          1.5217         calculate D2E/DX2 analytically  !
 ! D145  D(25,29,30,31)       -174.8915         calculate D2E/DX2 analytically  !
 ! D146  D(34,29,30,28)        176.891          calculate D2E/DX2 analytically  !
 ! D147  D(34,29,30,31)          0.4778         calculate D2E/DX2 analytically  !
 --------------------------------------------------------------------------------
 Trust Radius=3.00D-01 FncErr=1.00D-07 GrdErr=1.00D-06 EigMax=2.50D+02 EigMin=1.00D-04
 Number of steps in this run=    276 maximum allowed number of steps=    276.
 Search for a saddle point of order  1.
 GradGradGradGradGradGradGradGradGradGradGradGradGradGradGradGradGradGrad

                          Input orientation:                          
 ---------------------------------------------------------------------
 Center     Atomic      Atomic             Coordinates (Angstroms)
 Number     Number       Type             X           Y           Z
 ---------------------------------------------------------------------
      1          6           0        1.494708   -2.877048    0.024824
      2          6           0        1.367143   -1.499398    0.220193
      3          6           0        2.495664   -0.662231    0.264010
      4          6           0        3.796884   -1.067628    0.105697
      5          6           0        2.861593   -3.351095   -0.068595
      6          6           0        3.953154   -2.501355   -0.032870
      7          6           0        2.054122    0.666117    0.263841
      8          6           0        2.933542    1.739159    0.093291
      9          6           0        4.328835    1.354468    0.015833
     10          6           0        4.740504    0.032910    0.020652
     11          6           0        0.654059    0.690276    0.188768
     12          6           0        0.039971    1.921125   -0.064340
     13          6           0        0.905570    3.095287   -0.088434
     14          6           0        2.307755    2.999277   -0.042763
     15          6           0        0.269799   -3.541441   -0.162647
     16          6           0       -0.954694   -2.832945   -0.134892
     17          6           0       -1.031574   -1.398745    0.099319
     18          6           0        0.194216   -0.730397    0.208320
     19          6           0        0.252974    4.396189   -0.132768
     20          6           0       -1.341586    1.967467   -0.439902
     21          6           0       -1.905281    3.327461   -0.706454
     22          6           0       -1.066614    4.521042   -0.350466
     23          6           0       -2.182041   -3.524436   -0.413124
     24          6           0       -3.370960   -2.869822   -0.452953
     25          6           0       -3.477955   -1.470116   -0.138525
     26          6           0       -2.316603   -0.743100    0.184998
     27          6           0       -2.438764    0.638906    0.632246
     28          6           0       -3.746535    1.136682    0.856483
     29          6           0       -4.755631   -0.845339   -0.078386
     30          6           0       -4.875363    0.435113    0.429367
     31          1           0       -5.858798    0.877214    0.551271
     32          1           0       -3.867723    2.095480    1.347734
     33          1           0       -1.703365    0.969550    1.368390
     34          1           0       -5.633972   -1.412550   -0.364493
     35          1           0       -4.281620   -3.410105   -0.689754
     36          1           0       -2.138654   -4.590218   -0.611908
     37          1           0        0.239155   -4.606705   -0.371100
     38          1           0        3.037848   -4.413404   -0.203867
     39          1           0        4.946011   -2.925505   -0.141579
     40          1           0        5.801013   -0.178365   -0.072210
     41          1           0        5.081909    2.130040   -0.079448
     42          1           0        2.897472    3.907418   -0.126189
     43          1           0        0.864642    5.273010    0.056316
     44          1           0       -1.542264    5.496700   -0.314933
     45          1           0       -2.033037    3.323097   -1.808523
     46          1           0       -2.929977    3.426064   -0.344044
 ---------------------------------------------------------------------
                    Distance matrix (angstroms):
                    1          2          3          4          5
     1  C    0.000000
     2  C    1.397269   0.000000
     3  C    2.442240   1.405819   0.000000
     4  C    2.929259   2.470461   1.372073   0.000000
     5  C    1.449766   2.396990   2.733957   2.473736   0.000000
     6  C    2.487656   2.784854   2.365331   1.448860   1.383777
     7  C    3.595009   2.272290   1.399810   2.463352   4.111024
     8  C    4.835731   3.599717   2.446948   2.936591   5.093336
     9  C    5.092945   4.118001   2.736637   2.481450   4.929731
    10  C    4.359250   3.710438   2.362573   1.452183   3.871661
    11  C    3.668701   2.303074   2.286142   3.602010   4.612171
    12  C    5.014646   3.679989   3.579381   4.803744   5.979789
    13  C    6.002391   4.628113   4.095309   5.072203   6.736636
    14  C    5.932690   4.603474   3.679139   4.333505   6.374530
    15  C    1.406046   2.349611   3.664200   4.316490   2.600476
    16  C    2.455000   2.700992   4.095863   5.074615   3.851872
    17  C    2.927974   2.403869   3.607074   4.839802   4.358511
    18  C    2.516557   1.402591   2.303131   3.619872   3.749619
    19  C    7.380157   6.010316   5.547495   6.516860   8.174926
    20  C    5.632926   4.448830   4.704816   5.992775   6.789086
    21  C    7.112709   5.904744   6.018950   7.245073   8.230010
    22  C    7.837917   6.518782   6.319314   7.422596   8.802318
    23  C    3.758908   4.135042   5.525545   6.484800   5.058359
    24  C    4.889074   4.978032   6.309102   7.412016   6.262912
    25  C    5.170447   4.858447   6.041427   7.290056   6.613081
    26  C    4.370982   3.760746   4.813595   6.122608   5.803418
    27  C    5.310659   4.384867   5.116360   6.486356   6.671212
    28  C    6.653744   5.788220   6.523202   7.894671   8.041347
    29  C    6.573069   6.164844   7.261683   8.557383   8.018791
    30  C    7.191097   6.538728   7.454096   8.807432   8.628084
    31  H    8.273190   7.613943   8.499967   9.859672   9.711233
    32  H    7.431809   6.449676   7.019410   8.384158   8.772392
    33  H    5.179687   4.103910   4.638341   5.999769   6.447615
    34  H    7.287963   7.026024   8.188344   9.448867   8.718953
    35  H    5.844719   6.032191   7.375097   8.448797   7.170412
    36  H    4.067149   4.747228   6.137851   6.939323   5.180066
    37  H    2.173679   3.358175   4.588472   5.040817   2.923225
    38  H    2.189514   3.385633   3.818923   3.444733   1.085295
    39  H    3.455652   3.869490   3.360225   2.198487   2.128674
    40  H    5.082968   4.635713   3.357455   2.199766   4.325092
    41  H    6.160342   5.202124   3.821440   3.451181   5.913777
    42  H    6.929613   5.629880   4.603846   5.061007   7.258830
    43  H    8.174437   6.793002   6.158771   6.985998   8.853169
    44  H    8.913938   7.595814   7.387318   8.471944   9.886259
    45  H    7.365320   6.239661   6.378665   7.545242   8.457517
    46  H    7.709937   6.560776   6.820665   8.102234   8.918971
                    6          7          8          9         10
     6  C    0.000000
     7  C    3.705029   0.000000
     8  C    4.363197   1.397815   0.000000
     9  C    3.874388   2.389488   1.449424   0.000000
    10  C    2.654295   2.770693   2.486297   1.384200   0.000000
    11  C    4.595613   1.402282   2.511038   3.738320   4.142394
    12  C    5.905279   2.395736   2.903569   4.326879   5.066319
    13  C    6.372853   2.710007   2.446381   3.841883   4.908846
    14  C    5.741462   2.366848   1.413512   2.606452   3.836877
    15  C    3.829585   4.590125   5.919947   6.362197   5.726848
    16  C    4.920095   4.631997   6.006212   6.743354   6.377507
    17  C    5.106930   3.716483   5.056543   6.026702   5.947496
    18  C    4.162221   2.326496   3.689966   4.634521   4.613739
    19  C    7.827990   4.161114   3.781052   5.087906   6.260964
    20  C    6.940484   3.703998   4.314295   5.721638   6.398941
    21  C    8.291566   4.868377   5.155240   6.578647   7.453134
    22  C    8.637882   4.997681   4.892550   6.266756   7.348719
    23  C    6.231525   5.997007   7.357383   8.147344   7.795159
    24  C    7.345399   6.515226   7.828655   8.794955   8.628210
    25  C    7.503066   5.943843   7.173596   8.303498   8.356285
    26  C    6.515273   4.592967   5.808101   6.970671   7.101546
    27  C    7.152638   4.508047   5.510236   6.833183   7.230710
    28  C    8.562212   5.849810   6.750472   8.121929   8.599230
    29  C    8.864953   6.983864   8.113722   9.347489   9.537175
    30  C    9.315536   6.935310   7.924171   9.259238   9.632949
    31  H   10.393765   7.920952   8.846352  10.212851  10.646108
    32  H    9.176223   6.187580   6.925157   8.337063   8.950805
    33  H    6.782840   3.928207   4.870224   6.193949   6.649597
    34  H    9.654453   7.988895   9.140303  10.346911  10.481767
    35  H    8.310766   7.593850   8.898688   9.866050   9.682859
    36  H    6.465969   6.780514   8.141590   8.806916   8.312416
    37  H    4.282603   5.612478   6.909802   7.239529   6.476237
    38  H    2.126724   5.194998   6.160618   5.914665   4.766461
    39  H    1.085120   4.628945   5.085694   4.327107   2.969978
    40  H    2.968571   3.855551   3.453502   2.127119   1.085329
    41  H    4.767188   3.380593   2.190458   1.085224   2.127095
    42  H    6.495810   3.371853   2.179637   2.930277   4.293034
    43  H    8.365860   4.762499   4.095097   5.230415   6.517839
    44  H    9.708144   6.050083   5.858208   7.192864   8.332994
    45  H    8.538833   5.297084   5.549114   6.904867   7.749327
    46  H    9.088928   5.729579   6.117006   7.557207   8.395402
                   11         12         13         14         15
    11  C    0.000000
    12  C    1.398627   0.000000
    13  C    2.433963   1.458937   0.000000
    14  C    2.849527   2.511120   1.406210   0.000000
    15  C    4.263634   5.468282   6.667524   6.851907   0.000000
    16  C    3.886635   4.857522   6.213427   6.683328   1.414963
    17  C    2.685771   3.492353   4.897357   5.523939   2.520584
    18  C    1.493369   2.669963   3.902556   4.294247   2.836423
    19  C    3.741396   2.485155   1.456088   2.486280   7.937704
    20  C    2.451335   1.432443   2.538743   3.813141   5.746434
    21  C    3.782379   2.484773   2.887341   4.277600   7.225546
    22  C    4.233941   2.840065   2.447641   3.714407   8.174650
    23  C    5.115617   5.891784   7.311600   7.928068   2.464660
    24  C    5.411736   5.893950   7.348749   8.176942   3.713553
    25  C    4.674179   4.886903   6.329353   7.311572   4.282129
    26  C    3.298396   3.565628   5.019002   5.953314   3.826362
    27  C    3.124879   2.876360   4.211622   5.343822   5.044152
    28  C    4.473293   3.975034   5.135278   6.397838   6.249352
    29  C    5.629763   5.536363   6.897669   8.042000   5.703596
    30  C    5.540533   5.158729   6.384656   7.641664   6.529637
    31  H    6.525616   6.021977   7.147429   8.458641   7.589064
    32  H    4.874865   4.158657   5.083947   6.394283   7.153686
    33  H    2.650839   2.448965   3.667102   4.711712   5.156209
    34  H    6.653368   6.587648   7.947478   9.090586   6.279127
    35  H    6.476562   6.891248   8.341981   9.215131   4.583722
    36  H    6.026935   6.887948   8.283013   8.814472   2.665036
    37  H    5.342622   6.538069   7.735935   7.889098   1.085900
    38  H    5.646606   7.009493   7.806432   7.450291   2.902432
    39  H    5.621730   6.896740   7.251064   6.486386   4.716649
    40  H    5.226259   6.131682   5.889178   4.722407   6.474009
    41  H    4.663766   5.046287   4.286443   2.907378   7.438348
    42  H    3.934730   3.480589   2.151431   1.086023   7.898829
    43  H    4.589481   3.453950   2.182912   2.694857   8.837213
    44  H    5.308414   3.918035   3.436565   4.597156   9.219260
    45  H    4.259273   3.050420   3.412626   4.697366   7.425217
    46  H    4.540236   3.341207   3.858260   5.263721   7.669263
                   16         17         18         19         20
    16  C    0.000000
    17  C    1.455230   0.000000
    18  C    2.420433   1.400404   0.000000
    19  C    7.329314   5.940134   5.138256   0.000000
    20  C    4.825627   3.423193   3.171332   2.921582   0.000000
    21  C    6.259465   4.873362   4.659497   2.475754   1.496124
    22  C    7.357997   5.936953   5.429507   1.343240   2.569894
    23  C    1.435950   2.470776   3.720140   8.291212   5.555905
    24  C    2.437389   2.818120   4.210095   8.125905   5.245750
    25  C    2.867780   2.458952   3.761958   6.952223   4.058556
    26  C    2.514871   1.445168   2.510959   5.754650   2.947598
    27  C    3.852884   2.533025   2.997881   4.684856   2.029378
    28  C    4.953296   3.791134   4.408585   5.253482   2.855626
    29  C    4.289626   3.769143   4.959476   7.250014   4.438274
    30  C    5.135196   4.271613   5.206525   6.504303   3.948584
    31  H    6.187595   5.355963   6.272241   7.085538   4.751450
    32  H    5.913822   4.670320   5.077715   4.946240   3.097321
    33  H    4.156842   2.769597   2.799356   4.221681   2.096817
    34  H    4.895496   4.625730   5.895865   8.273529   5.463953
    35  H    3.421903   3.902692   5.293437   9.044943   6.133882
    36  H    2.171938   3.452096   4.584024   9.311550   6.608187
    37  H    2.151115   3.482392   3.919631   9.006059   6.761894
    38  H    4.294531   5.073489   4.671261   9.239562   7.742782
    39  H    5.901435   6.174184   5.245997   8.696659   7.972706
    40  H    7.258809   6.942838   5.640887   7.191032   7.467028
    41  H    7.815041   7.061087   5.670490   5.334500   6.435654
    42  H    7.763488   6.606332   5.378552   2.689295   4.672412
    43  H    8.309817   6.936123   6.042638   1.085682   4.005033
    44  H    8.352283   6.926729   6.485823   2.113572   3.537142
    45  H    6.469986   5.190239   5.045704   3.030764   2.046695
    46  H    6.566634   5.203776   5.228944   3.334210   2.158629
                   21         22         23         24         25
    21  C    0.000000
    22  C    1.501574   0.000000
    23  C    6.863755   8.122673   0.000000
    24  C    6.373288   7.742440   1.357805   0.000000
    25  C    5.080609   6.461692   2.444387   1.438572   0.000000
    26  C    4.187283   5.436946   2.848102   2.457966   1.407820
    27  C    3.050418   4.233143   4.300247   3.789171   2.474263
    28  C    3.260752   4.482476   5.077949   4.231755   2.803136
    29  C    5.092271   6.517739   3.730010   2.481158   1.423523
    30  C    4.298506   5.639993   4.862284   3.736885   2.430051
    31  H    4.818286   6.087334   5.815765   4.608479   3.413823
    32  H    3.096554   4.075960   6.125814   5.305042   3.882571
    33  H    3.147299   3.996625   4.857863   4.564969   3.372230
    34  H    6.040511   7.487888   4.047006   2.693082   2.168590
    35  H    7.144373   8.564723   2.120808   1.085026   2.171011
    36  H    7.921682   9.177836   1.085029   2.122170   3.428244
    37  H    8.225695   9.220695   2.652407   4.007043   4.869208
    38  H    9.198267   9.833231   5.299179   6.596780   7.150028
    39  H    9.292947   9.573210   7.158322   8.322984   8.548764
    40  H    8.489997   8.326233   8.662653   9.566295   9.368685
    41  H    7.116725   6.602626   9.211374   9.827976   9.286328
    42  H    4.872319   4.017563   9.006455   9.237478   8.340509
    43  H    3.469791   2.112032   9.321894   9.192681   8.022834
    44  H    2.233980   1.086008   9.044327   8.565154   7.232879
    45  H    1.109458   2.120136   6.989853   6.479186   5.277459
    46  H    1.091359   2.161282   6.990968   6.312251   4.931034
                   26         27         28         29         30
    26  C    0.000000
    27  C    1.457702   0.000000
    28  C    2.455438   1.417155   0.000000
    29  C    2.455337   2.841805   2.412605   0.000000
    30  C    2.827570   2.453509   1.396023   1.382645   0.000000
    31  H    3.912380   3.429283   2.149915   2.140242   1.085107
    32  H    3.437363   2.162280   1.084116   3.386830   2.148384
    33  H    2.170172   1.091808   2.112942   3.834490   3.350964
    34  H    3.428562   3.925725   3.398792   1.084006   2.149316
    35  H    3.426281   4.640937   4.832229   2.678896   4.048539
    36  H    3.932816   5.383468   6.126895   4.599710   5.816166
    37  H    4.665682   5.974478   7.097829   6.259508   7.226269
    38  H    6.503268   7.497880   8.829250   8.572348   9.302043
    39  H    7.590462   8.236427   9.646650   9.922346  10.396111
    40  H    8.141300   8.310121   9.682329  10.577695  10.705743
    41  H    7.941212   7.700033   8.933317  10.277649  10.113305
    42  H    6.993621   6.303476   7.265360   9.008938   8.531267
    43  H    6.806648   5.720062   6.245993   8.309020   7.516121
    44  H    6.307506   5.029813   5.024021   7.113588   6.105997
    45  H    4.537455   3.650596   3.849512   5.270840   4.628976
    46  H    4.247122   2.993774   2.710960   4.652792   3.650819
                   31         32         33         34         35
    31  H    0.000000
    32  H    2.466355   0.000000
    33  H    4.236016   2.439793   0.000000
    34  H    2.476326   4.284581   4.911920   0.000000
    35  H    4.733787   5.885077   5.483132   2.434107   0.000000
    36  H    6.714557   7.178331   5.917945   4.730331   2.447658
    37  H    8.252828   8.046125   6.155796   6.685528   4.687302
    38  H   10.378400   9.615610   7.343520   9.177766   7.403871
    39  H   11.475392  10.252329   7.852749  10.689938   9.256593
    40  H   11.724085  10.033497   7.727142  11.505109  10.605894
    41  H   11.030252   9.062779   7.034409  11.289876  10.896851
    42  H    9.290498   7.157055   5.659729  10.057056  10.266602
    43  H    8.048146   5.844633   5.180344   9.333048  10.121122
    44  H    6.381413   4.443030   4.832661   8.030085   9.326078
    45  H    5.117364   3.851633   3.967448   6.121953   7.186361
    46  H    3.984497   2.347751   3.235965   5.542941   6.977081
                   36         37         38         39         40
    36  H    0.000000
    37  H    2.390028   0.000000
    38  H    5.195569   2.810341   0.000000
    39  H    7.292802   5.003360   2.420498   0.000000
    40  H    9.099123   7.115743   5.058455   2.877954   0.000000
    41  H    9.878356   8.301871   6.856408   5.057753   2.417829
    42  H    9.889808   8.922831   8.322369   7.133413   5.012693
    43  H   10.331969   9.908718   9.930616   9.160370   7.355390
    44  H   10.108897  10.259405  10.917872  10.633029   9.283803
    45  H    8.003974   8.373219   9.388410   9.514770   8.754848
    46  H    8.059697   8.635364   9.853519  10.120010   9.449655
                   41         42         43         44         45
    41  H    0.000000
    42  H    2.816562   0.000000
    43  H    5.261372   2.455717   0.000000
    44  H    7.434347   4.719396   2.445620   0.000000
    45  H    7.418594   5.242289   3.959334   2.682577   0.000000
    46  H    8.120345   5.851352   4.239178   2.492815   1.720408
                   46
    46  H    0.000000
 Stoichiometry    C30H16
 Framework group  C1[X(C30H16)]
 Deg. of freedom   132
 Full point group                 C1      NOp   1
 Largest Abelian subgroup         C1      NOp   1
 Largest concise Abelian subgroup C1      NOp   1
                         Standard orientation:                         
 ---------------------------------------------------------------------
 Center     Atomic      Atomic             Coordinates (Angstroms)
 Number     Number       Type             X           Y           Z
 ---------------------------------------------------------------------
      1          6           0        1.494708   -2.877048    0.024824
      2          6           0        1.367143   -1.499398    0.220193
      3          6           0        2.495664   -0.662231    0.264010
      4          6           0        3.796884   -1.067628    0.105697
      5          6           0        2.861593   -3.351095   -0.068595
      6          6           0        3.953154   -2.501355   -0.032870
      7          6           0        2.054122    0.666117    0.263841
      8          6           0        2.933542    1.739159    0.093291
      9          6           0        4.328835    1.354468    0.015833
     10          6           0        4.740504    0.032910    0.020652
     11          6           0        0.654059    0.690276    0.188768
     12          6           0        0.039971    1.921125   -0.064340
     13          6           0        0.905570    3.095287   -0.088434
     14          6           0        2.307755    2.999277   -0.042763
     15          6           0        0.269799   -3.541441   -0.162647
     16          6           0       -0.954694   -2.832945   -0.134892
     17          6           0       -1.031574   -1.398745    0.099319
     18          6           0        0.194216   -0.730397    0.208320
     19          6           0        0.252974    4.396189   -0.132768
     20          6           0       -1.341586    1.967467   -0.439902
     21          6           0       -1.905281    3.327461   -0.706454
     22          6           0       -1.066614    4.521042   -0.350466
     23          6           0       -2.182041   -3.524436   -0.413124
     24          6           0       -3.370960   -2.869822   -0.452953
     25          6           0       -3.477955   -1.470116   -0.138525
     26          6           0       -2.316603   -0.743100    0.184998
     27          6           0       -2.438764    0.638906    0.632246
     28          6           0       -3.746535    1.136682    0.856483
     29          6           0       -4.755631   -0.845339   -0.078386
     30          6           0       -4.875363    0.435113    0.429367
     31          1           0       -5.858798    0.877214    0.551271
     32          1           0       -3.867723    2.095480    1.347734
     33          1           0       -1.703365    0.969550    1.368390
     34          1           0       -5.633972   -1.412550   -0.364493
     35          1           0       -4.281620   -3.410105   -0.689754
     36          1           0       -2.138654   -4.590218   -0.611908
     37          1           0        0.239155   -4.606705   -0.371100
     38          1           0        3.037848   -4.413404   -0.203867
     39          1           0        4.946011   -2.925505   -0.141579
     40          1           0        5.801013   -0.178365   -0.072210
     41          1           0        5.081909    2.130040   -0.079448
     42          1           0        2.897472    3.907418   -0.126189
     43          1           0        0.864642    5.273010    0.056316
     44          1           0       -1.542264    5.496700   -0.314933
     45          1           0       -2.033037    3.323097   -1.808523
     46          1           0       -2.929977    3.426064   -0.344044
 ---------------------------------------------------------------------
 Rotational constants (GHZ):           0.2326143           0.1752099           0.1017109
 Standard basis: 6-311+G(d,p) (5D, 7F)
 There are   786 symmetry adapted cartesian basis functions of A   symmetry.
 There are   756 symmetry adapted basis functions of A   symmetry.
   756 basis functions,  1208 primitive gaussians,   786 cartesian basis functions
    98 alpha electrons       98 beta electrons
       nuclear repulsion energy      2611.3050319027 Hartrees.
 NAtoms=   46 NActive=   46 NUniq=   46 SFac= 1.00D+00 NAtFMM=   60 NAOKFM=F Big=F
 Integral buffers will be    131072 words long.
 Raffenetti 2 integral format.
 Two-electron integral symmetry is turned on.
 One-electron integrals computed using PRISM.
 NBasis=   756 RedAO= T EigKep=  1.05D-06  NBF=   756
 NBsUse=   735 1.00D-06 EigRej=  8.67D-07 NBFU=   735
 ExpMin= 4.38D-02 ExpMax= 4.56D+03 ExpMxC= 6.82D+02 IAcc=2 IRadAn=         4 AccDes= 0.00D+00
 Harris functional with IExCor=  402 and IRadAn=       4 diagonalized for initial guess.
 HarFok:  IExCor=  402 AccDes= 0.00D+00 IRadAn=         4 IDoV= 1 UseB2=F ITyADJ=14
 ICtDFT=  3500011 ScaDFX=  1.000000  1.000000  1.000000  1.000000
 FoFCou: FMM=F IPFlag=           0 FMFlag=      100000 FMFlg1=           0
         NFxFlg=           0 DoJE=T BraDBF=F KetDBF=T FulRan=T
         wScrn=  0.000000 ICntrl=       500 IOpCl=  0 I1Cent=   200000004 NGrid=           0
         NMat0=    1 NMatS0=      1 NMatT0=    0 NMatD0=    1 NMtDS0=    0 NMtDT0=    0
 Petite list used in FoFCou.
 Requested convergence on RMS density matrix=1.00D-08 within 128 cycles.
 Requested convergence on MAX density matrix=1.00D-06.
 Requested convergence on             energy=1.00D-06.
 No special actions if energy rises.
 Restarting incremental Fock formation.
 SCF Done:  E(RB3LYP) =  -1152.98196650     A.U. after   22 cycles
            NFock= 22  Conv=0.85D-08     -V/T= 2.0045
 DoSCS=F DFT=T ScalE2(SS,OS)=  1.000000  1.000000
 Range of M.O.s used for correlation:     1   735
 NBasis=   756 NAE=    98 NBE=    98 NFC=     0 NFV=     0
 NROrb=    735 NOA=    98 NOB=    98 NVA=   637 NVB=   637

 **** Warning!!: The largest alpha MO coefficient is  0.13976599D+03


 **** Warning!!: The smallest alpha delta epsilon is  0.37752631D-01

 Symmetrizing basis deriv contribution to polar:
 IMax=3 JMax=2 DiffMx= 0.00D+00
 G2DrvN: will do    47 centers at a time, making    1 passes.
 Calling FoFCou, ICntrl=  3107 FMM=F I1Cent=   0 AccDes= 0.00D+00.
 End of G2Drv F.D. properties file   721 does not exist.
 End of G2Drv F.D. properties file   722 does not exist.
 End of G2Drv F.D. properties file   788 does not exist.
          IDoAtm=1111111111111111111111111111111111111111111111
          Differentiating once with respect to nuclear coordinates.
 CalDSu exits because no D1Ps are significant.
          There are   141 degrees of freedom in the 1st order CPHF.  IDoFFX=6 NUNeed=     0.
    135 vectors produced by pass  0 Test12= 6.24D-14 1.00D-09 XBig12= 3.15D-01 1.73D-01.
 AX will form   135 AO Fock derivatives at one time.
    135 vectors produced by pass  1 Test12= 6.24D-14 1.00D-09 XBig12= 8.41D-02 6.14D-02.
    135 vectors produced by pass  2 Test12= 6.24D-14 1.00D-09 XBig12= 1.54D-03 8.23D-03.
    135 vectors produced by pass  3 Test12= 6.24D-14 1.00D-09 XBig12= 6.92D-06 2.59D-04.
    135 vectors produced by pass  4 Test12= 6.24D-14 1.00D-09 XBig12= 2.49D-08 1.73D-05.
    135 vectors produced by pass  5 Test12= 6.24D-14 1.00D-09 XBig12= 9.20D-11 6.97D-07.
    106 vectors produced by pass  6 Test12= 6.24D-14 1.00D-09 XBig12= 1.61D-11 4.28D-07.
     83 vectors produced by pass  7 Test12= 6.24D-14 1.00D-09 XBig12= 2.03D-12 7.63D-08.
     36 vectors produced by pass  8 Test12= 6.24D-14 1.00D-09 XBig12= 1.07D-13 2.17D-08.
      4 vectors produced by pass  9 Test12= 6.24D-14 1.00D-09 XBig12= 9.06D-16 1.60D-09.
      3 vectors produced by pass 10 Test12= 6.24D-14 1.00D-09 XBig12= 4.35D-16 1.23D-09.
      1 vectors produced by pass 11 Test12= 6.24D-14 1.00D-09 XBig12= 2.68D-16 1.15D-09.
 InvSVY:  IOpt=1 It=  1 EMax= 7.22D-16
 Solved reduced A of dimension  1043 with   141 vectors.
 End of Minotr F.D. properties file   721 does not exist.
 End of Minotr F.D. properties file   722 does not exist.
 End of Minotr F.D. properties file   788 does not exist.

 **********************************************************************

            Population analysis using the SCF Density.

 **********************************************************************

 Orbital symmetries:
       Occupied  (A) (A) (A) (A) (A) (A) (A) (A) (A) (A) (A) (A)
                 (A) (A) (A) (A) (A) (A) (A) (A) (A) (A) (A) (A)
                 (A) (A) (A) (A) (A) (A) (A) (A) (A) (A) (A) (A)
                 (A) (A) (A) (A) (A) (A) (A) (A) (A) (A) (A) (A)
                 (A) (A) (A) (A) (A) (A) (A) (A) (A) (A) (A) (A)
                 (A) (A) (A) (A) (A) (A) (A) (A) (A) (A) (A) (A)
                 (A) (A) (A) (A) (A) (A) (A) (A) (A) (A) (A) (A)
                 (A) (A) (A) (A) (A) (A) (A) (A) (A) (A) (A) (A)
                 (A) (A)
       Virtual   (A) (A) (A) (A) (A) (A) (A) (A) (A) (A) (A) (A)
                 (A) (A) (A) (A) (A) (A) (A) (A) (A) (A) (A) (A)
                 (A) (A) (A) (A) (A) (A) (A) (A) (A) (A) (A) (A)
                 (A) (A) (A) (A) (A) (A) (A) (A) (A) (A) (A) (A)
                 (A) (A) (A) (A) (A) (A) (A) (A) (A) (A) (A) (A)
                 (A) (A) (A) (A) (A) (A) (A) (A) (A) (A) (A) (A)
                 (A) (A) (A) (A) (A) (A) (A) (A) (A) (A) (A) (A)
                 (A) (A) (A) (A) (A) (A) (A) (A) (A) (A) (A) (A)
                 (A) (A) (A) (A) (A) (A) (A) (A) (A) (A) (A) (A)
                 (A) (A) (A) (A) (A) (A) (A) (A) (A) (A) (A) (A)
                 (A) (A) (A) (A) (A) (A) (A) (A) (A) (A) (A) (A)
                 (A) (A) (A) (A) (A) (A) (A) (A) (A) (A) (A) (A)
                 (A) (A) (A) (A) (A) (A) (A) (A) (A) (A) (A) (A)
                 (A) (A) (A) (A) (A) (A) (A) (A) (A) (A) (A) (A)
                 (A) (A) (A) (A) (A) (A) (A) (A) (A) (A) (A) (A)
                 (A) (A) (A) (A) (A) (A) (A) (A) (A) (A) (A) (A)
                 (A) (A) (A) (A) (A) (A) (A) (A) (A) (A) (A) (A)
                 (A) (A) (A) (A) (A) (A) (A) (A) (A) (A) (A) (A)
                 (A) (A) (A) (A) (A) (A) (A) (A) (A) (A) (A) (A)
                 (A) (A) (A) (A) (A) (A) (A) (A) (A) (A) (A) (A)
                 (A) (A) (A) (A) (A) (A) (A) (A) (A) (A) (A) (A)
                 (A) (A) (A) (A) (A) (A) (A) (A) (A) (A) (A) (A)
                 (A) (A) (A) (A) (A) (A) (A) (A) (A) (A) (A) (A)
                 (A) (A) (A) (A) (A) (A) (A) (A) (A) (A) (A) (A)
                 (A) (A) (A) (A) (A) (A) (A) (A) (A) (A) (A) (A)
                 (A) (A) (A) (A) (A) (A) (A) (A) (A) (A) (A) (A)
                 (A) (A) (A) (A) (A) (A) (A) (A) (A) (A) (A) (A)
                 (A) (A) (A) (A) (A) (A) (A) (A) (A) (A) (A) (A)
                 (A) (A) (A) (A) (A) (A) (A) (A) (A) (A) (A) (A)
                 (A) (A) (A) (A) (A) (A) (A) (A) (A) (A) (A) (A)
                 (A) (A) (A) (A) (A) (A) (A) (A) (A) (A) (A) (A)
                 (A) (A) (A) (A) (A) (A) (A) (A) (A) (A) (A) (A)
                 (A) (A) (A) (A) (A) (A) (A) (A) (A) (A) (A) (A)
                 (A) (A) (A) (A) (A) (A) (A) (A) (A) (A) (A) (A)
                 (A) (A) (A) (A) (A) (A) (A) (A) (A) (A) (A) (A)
                 (A) (A) (A) (A) (A) (A) (A) (A) (A) (A) (A) (A)
                 (A) (A) (A) (A) (A) (A) (A) (A) (A) (A) (A) (A)
                 (A) (A) (A) (A) (A) (A) (A) (A) (A) (A) (A) (A)
                 (A) (A) (A) (A) (A) (A) (A) (A) (A) (A) (A) (A)
                 (A) (A) (A) (A) (A) (A) (A) (A) (A) (A) (A) (A)
                 (A) (A) (A) (A) (A) (A) (A) (A) (A) (A) (A) (A)
                 (A) (A) (A) (A) (A) (A) (A) (A) (A) (A) (A) (A)
                 (A) (A) (A) (A) (A) (A) (A) (A) (A) (A) (A) (A)
                 (A) (A) (A) (A) (A) (A) (A) (A) (A) (A) (A) (A)
                 (A) (A) (A) (A) (A) (A) (A) (A) (A) (A) (A) (A)
                 (A) (A) (A) (A) (A) (A) (A) (A) (A) (A) (A) (A)
                 (A) (A) (A) (A) (A) (A) (A) (A) (A) (A) (A) (A)
                 (A) (A) (A) (A) (A) (A) (A) (A) (A) (A) (A) (A)
                 (A) (A) (A) (A) (A) (A) (A) (A) (A) (A) (A) (A)
                 (A) (A) (A) (A) (A) (A) (A) (A) (A) (A) (A) (A)
                 (A) (A) (A) (A) (A) (A) (A) (A) (A) (A) (A) (A)
                 (A) (A) (A) (A) (A) (A) (A) (A) (A) (A) (A) (A)
                 (A) (A) (A) (A) (A) (A) (A) (A) (A) (A) (A) (A)
                 (A)
 The electronic state is 1-A.
 Alpha  occ. eigenvalues --  -10.20266 -10.20216 -10.19947 -10.19942 -10.19894
 Alpha  occ. eigenvalues --  -10.19880 -10.19879 -10.19649 -10.19514 -10.19481
 Alpha  occ. eigenvalues --  -10.19466 -10.19330 -10.19263 -10.19149 -10.19122
 Alpha  occ. eigenvalues --  -10.19100 -10.18942 -10.18847 -10.18591 -10.18533
 Alpha  occ. eigenvalues --  -10.18399 -10.18313 -10.17905 -10.17707 -10.17431
 Alpha  occ. eigenvalues --  -10.17230 -10.17133 -10.17115 -10.16938 -10.16913
 Alpha  occ. eigenvalues --   -0.92395  -0.88371  -0.87519  -0.85157  -0.83825
 Alpha  occ. eigenvalues --   -0.82994  -0.80315  -0.79200  -0.77991  -0.76959
 Alpha  occ. eigenvalues --   -0.75110  -0.74434  -0.72587  -0.71519  -0.71303
 Alpha  occ. eigenvalues --   -0.66791  -0.64643  -0.64602  -0.62837  -0.61981
 Alpha  occ. eigenvalues --   -0.60064  -0.59198  -0.58243  -0.56614  -0.56152
 Alpha  occ. eigenvalues --   -0.52633  -0.51959  -0.51364  -0.50921  -0.49311
 Alpha  occ. eigenvalues --   -0.48929  -0.47558  -0.46778  -0.46218  -0.45452
 Alpha  occ. eigenvalues --   -0.44635  -0.44427  -0.43787  -0.43422  -0.43043
 Alpha  occ. eigenvalues --   -0.42824  -0.42367  -0.41289  -0.40648  -0.40416
 Alpha  occ. eigenvalues --   -0.40298  -0.39725  -0.39064  -0.38689  -0.37688
 Alpha  occ. eigenvalues --   -0.36444  -0.36121  -0.35646  -0.34822  -0.34108
 Alpha  occ. eigenvalues --   -0.33967  -0.33272  -0.33041  -0.32486  -0.30832
 Alpha  occ. eigenvalues --   -0.29493  -0.27674  -0.26513  -0.26425  -0.23680
 Alpha  occ. eigenvalues --   -0.22120  -0.21014  -0.16281
 Alpha virt. eigenvalues --   -0.12506  -0.07782  -0.04882  -0.03668  -0.01220
 Alpha virt. eigenvalues --   -0.00899  -0.00047   0.00512   0.00696   0.01024
 Alpha virt. eigenvalues --    0.01576   0.01609   0.01875   0.02352   0.02604
 Alpha virt. eigenvalues --    0.02913   0.03054   0.03472   0.04247   0.04476
 Alpha virt. eigenvalues --    0.04802   0.05019   0.05142   0.05550   0.06041
 Alpha virt. eigenvalues --    0.06544   0.06861   0.06951   0.07232   0.07412
 Alpha virt. eigenvalues --    0.07951   0.08440   0.08761   0.09227   0.09324
 Alpha virt. eigenvalues --    0.09644   0.10043   0.10248   0.10495   0.11260
 Alpha virt. eigenvalues --    0.11440   0.11731   0.11958   0.12257   0.12337
 Alpha virt. eigenvalues --    0.13039   0.13225   0.13644   0.14178   0.14559
 Alpha virt. eigenvalues --    0.14680   0.15057   0.15224   0.15274   0.15651
 Alpha virt. eigenvalues --    0.15887   0.16160   0.16403   0.16483   0.16769
 Alpha virt. eigenvalues --    0.16950   0.17214   0.17426   0.17634   0.17982
 Alpha virt. eigenvalues --    0.18261   0.18731   0.18935   0.19000   0.19199
 Alpha virt. eigenvalues --    0.19354   0.19604   0.19692   0.19945   0.20034
 Alpha virt. eigenvalues --    0.20183   0.20503   0.20629   0.20936   0.21092
 Alpha virt. eigenvalues --    0.21174   0.21471   0.21531   0.21850   0.21978
 Alpha virt. eigenvalues --    0.22351   0.22773   0.22871   0.23048   0.23159
 Alpha virt. eigenvalues --    0.23439   0.23679   0.23698   0.24211   0.24449
 Alpha virt. eigenvalues --    0.24596   0.24891   0.25074   0.25451   0.25517
 Alpha virt. eigenvalues --    0.25677   0.25848   0.26068   0.26534   0.26656
 Alpha virt. eigenvalues --    0.26751   0.26981   0.27257   0.27526   0.27885
 Alpha virt. eigenvalues --    0.28202   0.28375   0.28453   0.28872   0.29042
 Alpha virt. eigenvalues --    0.29163   0.29492   0.29755   0.30459   0.30599
 Alpha virt. eigenvalues --    0.30872   0.31181   0.31446   0.31826   0.32069
 Alpha virt. eigenvalues --    0.32542   0.32637   0.33058   0.33245   0.33636
 Alpha virt. eigenvalues --    0.34082   0.34445   0.34921   0.35363   0.36123
 Alpha virt. eigenvalues --    0.36196   0.36545   0.36968   0.37493   0.37707
 Alpha virt. eigenvalues --    0.39031   0.39075   0.39734   0.39825   0.40640
 Alpha virt. eigenvalues --    0.41382   0.41621   0.42102   0.42643   0.42926
 Alpha virt. eigenvalues --    0.43207   0.44299   0.44507   0.44883   0.45870
 Alpha virt. eigenvalues --    0.46796   0.47454   0.47815   0.48410   0.48823
 Alpha virt. eigenvalues --    0.50083   0.50352   0.50700   0.51411   0.51771
 Alpha virt. eigenvalues --    0.52511   0.53082   0.53372   0.53622   0.54300
 Alpha virt. eigenvalues --    0.54515   0.54664   0.55143   0.55678   0.56065
 Alpha virt. eigenvalues --    0.56099   0.56572   0.56856   0.57425   0.57924
 Alpha virt. eigenvalues --    0.58164   0.58405   0.58590   0.59422   0.59787
 Alpha virt. eigenvalues --    0.59888   0.60220   0.60580   0.60707   0.61137
 Alpha virt. eigenvalues --    0.61419   0.62043   0.62312   0.62565   0.63248
 Alpha virt. eigenvalues --    0.63701   0.64263   0.64879   0.65499   0.65823
 Alpha virt. eigenvalues --    0.66031   0.66233   0.66881   0.67423   0.67761
 Alpha virt. eigenvalues --    0.68477   0.68607   0.68953   0.69227   0.69574
 Alpha virt. eigenvalues --    0.69929   0.70425   0.70718   0.71071   0.71564
 Alpha virt. eigenvalues --    0.71668   0.71931   0.72270   0.72830   0.73010
 Alpha virt. eigenvalues --    0.73233   0.73965   0.74083   0.74398   0.74734
 Alpha virt. eigenvalues --    0.75093   0.75487   0.75650   0.76166   0.76246
 Alpha virt. eigenvalues --    0.76497   0.76675   0.77490   0.77909   0.78340
 Alpha virt. eigenvalues --    0.79939   0.80219   0.80524   0.82014   0.82236
 Alpha virt. eigenvalues --    0.83112   0.83458   0.83713   0.85014   0.85821
 Alpha virt. eigenvalues --    0.86178   0.86915   0.87373   0.87817   0.88513
 Alpha virt. eigenvalues --    0.88697   0.89248   0.89830   0.89939   0.91116
 Alpha virt. eigenvalues --    0.91269   0.91815   0.92149   0.92497   0.92928
 Alpha virt. eigenvalues --    0.93460   0.93844   0.94361   0.94743   0.95151
 Alpha virt. eigenvalues --    0.95213   0.95504   0.95885   0.96232   0.96931
 Alpha virt. eigenvalues --    0.97020   0.97735   0.98318   0.99063   0.99397
 Alpha virt. eigenvalues --    0.99976   1.00487   1.00869   1.01032   1.02014
 Alpha virt. eigenvalues --    1.02422   1.02849   1.03748   1.04093   1.04941
 Alpha virt. eigenvalues --    1.05349   1.05680   1.06210   1.06551   1.07330
 Alpha virt. eigenvalues --    1.08574   1.08863   1.09436   1.09617   1.10918
 Alpha virt. eigenvalues --    1.11720   1.12356   1.13382   1.13674   1.14676
 Alpha virt. eigenvalues --    1.14753   1.16130   1.16838   1.17654   1.18118
 Alpha virt. eigenvalues --    1.18569   1.20300   1.21350   1.22773   1.24257
 Alpha virt. eigenvalues --    1.25064   1.25638   1.27620   1.28702   1.30621
 Alpha virt. eigenvalues --    1.31570   1.32362   1.33746   1.35158   1.37032
 Alpha virt. eigenvalues --    1.38345   1.39441   1.39725   1.40154   1.41199
 Alpha virt. eigenvalues --    1.42106   1.43117   1.44044   1.45016   1.45972
 Alpha virt. eigenvalues --    1.46484   1.47234   1.47486   1.48033   1.48473
 Alpha virt. eigenvalues --    1.49172   1.49544   1.50549   1.50701   1.51231
 Alpha virt. eigenvalues --    1.51595   1.52022   1.53010   1.53869   1.54409
 Alpha virt. eigenvalues --    1.55322   1.55904   1.56378   1.56664   1.57385
 Alpha virt. eigenvalues --    1.58116   1.58879   1.60011   1.60752   1.61563
 Alpha virt. eigenvalues --    1.61899   1.62686   1.63367   1.64019   1.64931
 Alpha virt. eigenvalues --    1.65770   1.66347   1.67026   1.67673   1.68846
 Alpha virt. eigenvalues --    1.69679   1.70233   1.70868   1.71535   1.72320
 Alpha virt. eigenvalues --    1.72618   1.73604   1.73735   1.74946   1.75284
 Alpha virt. eigenvalues --    1.75560   1.75956   1.76818   1.77361   1.77609
 Alpha virt. eigenvalues --    1.78452   1.79746   1.80285   1.80601   1.81476
 Alpha virt. eigenvalues --    1.82855   1.83185   1.83809   1.84620   1.85272
 Alpha virt. eigenvalues --    1.85951   1.86435   1.87103   1.87350   1.87897
 Alpha virt. eigenvalues --    1.88561   1.88749   1.89425   1.90435   1.90741
 Alpha virt. eigenvalues --    1.91050   1.91417   1.92402   1.92780   1.93625
 Alpha virt. eigenvalues --    1.94367   1.94971   1.95437   1.96144   1.96534
 Alpha virt. eigenvalues --    1.97808   1.98043   1.98751   1.99653   1.99875
 Alpha virt. eigenvalues --    2.00416   2.01211   2.02551   2.03565   2.04330
 Alpha virt. eigenvalues --    2.05229   2.05341   2.05686   2.06039   2.07776
 Alpha virt. eigenvalues --    2.08847   2.09288   2.11375   2.11688   2.12189
 Alpha virt. eigenvalues --    2.13122   2.14135   2.14438   2.15134   2.15971
 Alpha virt. eigenvalues --    2.17037   2.17949   2.18555   2.19410   2.20193
 Alpha virt. eigenvalues --    2.21499   2.22090   2.22615   2.23307   2.24353
 Alpha virt. eigenvalues --    2.24557   2.25314   2.26750   2.28594   2.29461
 Alpha virt. eigenvalues --    2.32070   2.32738   2.34537   2.35500   2.36903
 Alpha virt. eigenvalues --    2.38399   2.39027   2.40288   2.41516   2.42331
 Alpha virt. eigenvalues --    2.43063   2.43672   2.45060   2.45932   2.46574
 Alpha virt. eigenvalues --    2.47993   2.49085   2.49663   2.52536   2.53511
 Alpha virt. eigenvalues --    2.54683   2.55052   2.56341   2.57512   2.58813
 Alpha virt. eigenvalues --    2.59350   2.60524   2.62552   2.63232   2.63675
 Alpha virt. eigenvalues --    2.64774   2.65720   2.66448   2.67428   2.68987
 Alpha virt. eigenvalues --    2.69692   2.70175   2.71637   2.72043   2.72431
 Alpha virt. eigenvalues --    2.72872   2.73289   2.73938   2.74108   2.74783
 Alpha virt. eigenvalues --    2.75495   2.75717   2.75983   2.76130   2.76658
 Alpha virt. eigenvalues --    2.77371   2.77549   2.78186   2.78502   2.79426
 Alpha virt. eigenvalues --    2.79789   2.80373   2.81122   2.81489   2.83073
 Alpha virt. eigenvalues --    2.83727   2.84207   2.85003   2.85479   2.86787
 Alpha virt. eigenvalues --    2.87475   2.88219   2.88543   2.89723   2.91082
 Alpha virt. eigenvalues --    2.91413   2.91509   2.92761   2.93825   2.95577
 Alpha virt. eigenvalues --    2.96595   2.98892   3.00088   3.00899   3.02423
 Alpha virt. eigenvalues --    3.03025   3.04502   3.05680   3.07685   3.10186
 Alpha virt. eigenvalues --    3.11679   3.12085   3.13441   3.15324   3.16813
 Alpha virt. eigenvalues --    3.17684   3.19333   3.20051   3.21145   3.21667
 Alpha virt. eigenvalues --    3.22637   3.24091   3.24548   3.27493   3.28622
 Alpha virt. eigenvalues --    3.30939   3.32407   3.32964   3.34435   3.36540
 Alpha virt. eigenvalues --    3.37462   3.38692   3.40430   3.41479   3.42648
 Alpha virt. eigenvalues --    3.43387   3.43665   3.45571   3.46736   3.47386
 Alpha virt. eigenvalues --    3.49093   3.50060   3.53263   3.54263   3.55714
 Alpha virt. eigenvalues --    3.56670   3.60015   3.61630   3.62355   3.63332
 Alpha virt. eigenvalues --    3.66664   3.70500   3.74196   3.77249   3.80899
 Alpha virt. eigenvalues --    3.82704   3.85522   3.92053   3.97788   4.01773
 Alpha virt. eigenvalues --    4.03498   4.05654   4.06719   4.07656   4.08958
 Alpha virt. eigenvalues --    4.09562   4.12054   4.18443   4.21606   4.24150
 Alpha virt. eigenvalues --    4.28113   4.33650   4.46546   4.62872   4.68097
 Alpha virt. eigenvalues --    4.74299   4.77016   4.77823   4.78784   4.82348
 Alpha virt. eigenvalues --    4.85028   4.88371  23.40231  23.62776  23.69481
 Alpha virt. eigenvalues --   23.77531  23.79837  23.81572  23.85010  23.85810
 Alpha virt. eigenvalues --   23.89483  23.90114  23.91470  23.93718  23.94127
 Alpha virt. eigenvalues --   23.98054  23.98175  23.99267  24.02375  24.03808
 Alpha virt. eigenvalues --   24.05523  24.05833  24.06869  24.08162  24.11263
 Alpha virt. eigenvalues --   24.11638  24.12306  24.15001  24.17068  24.20074
 Alpha virt. eigenvalues --   24.21431  24.23112
          Condensed to atoms (all electrons):
               1          2          3          4          5          6
     1  C   10.621526   1.077822   0.555417   0.170252  -0.240520  -1.129567
     2  C    1.077822   7.868824   0.150459   0.566289   0.108856   1.187751
     3  C    0.555417   0.150459   8.071403   1.003745   0.696935  -0.782844
     4  C    0.170252   0.566289   1.003745  10.886778  -0.994829  -1.516958
     5  C   -0.240520   0.108856   0.696935  -0.994829   9.472498   1.623575
     6  C   -1.129567   1.187751  -0.782844  -1.516958   1.623575  11.279232
     7  C    0.110140  -0.348173  -0.129767   0.172770  -0.664720  -1.309942
     8  C   -0.116140   0.500624   0.040277   0.453358  -0.149714   0.545225
     9  C   -0.029950  -0.547282   1.435515  -0.864784   0.053964  -0.837551
    10  C    0.178185  -0.732463  -0.997404  -1.461574  -0.599439  -0.960238
    11  C   -0.532826  -0.292762  -0.664604  -0.122601  -0.369834  -0.291781
    12  C   -0.206711  -0.187442  -0.298555  -0.005593  -0.085477  -0.084809
    13  C    0.060309  -0.387191  -0.584341  -0.403459  -0.061505  -0.180163
    14  C   -0.067360  -0.192416  -0.772133  -0.574960  -0.086018   0.021582
    15  C    0.817378   0.391834  -0.432951  -0.238898  -0.714047  -0.478770
    16  C   -0.721077  -0.459607   0.078324  -0.576970  -0.461973   0.063473
    17  C   -1.405539  -0.029658  -0.088320  -0.096875  -0.528747  -0.101258
    18  C   -0.085001  -0.193874  -0.523448   0.240527  -0.490642  -0.751687
    19  C    0.047849  -0.085681   0.142668  -0.109829  -0.006004  -0.018186
    20  C    0.185577   0.049623  -0.239200   0.019239   0.066691  -0.002386
    21  C    0.034735   0.102166  -0.026905   0.028827   0.010415   0.000223
    22  C   -0.010994  -0.092695  -0.085666  -0.059100  -0.004497  -0.005214
    23  C   -1.636461  -1.190335   0.045559  -0.276143  -0.258136  -0.060220
    24  C    0.107507  -0.222501   0.048757  -0.037002  -0.142266  -0.000424
    25  C   -0.152866  -0.676220   0.035274  -0.103609  -0.028498   0.019297
    26  C   -1.174349  -0.293290  -0.330578   0.013702  -0.061157  -0.136829
    27  C   -0.599605  -0.007428  -0.386843  -0.036642   0.036270  -0.186115
    28  C   -0.056777   0.334584  -0.178116  -0.004739   0.031822  -0.033626
    29  C   -0.204150  -0.250679  -0.047160  -0.016638   0.005727  -0.005017
    30  C    0.004187  -0.049025   0.038647   0.002252  -0.010389   0.003024
    31  H    0.000041  -0.000010   0.000006  -0.000000   0.000002  -0.000000
    32  H   -0.000090  -0.000237   0.000481   0.000046  -0.000027   0.000007
    33  H    0.000629  -0.001419  -0.005734  -0.000749   0.000071  -0.000294
    34  H    0.000266  -0.000199   0.000017  -0.000002   0.000017   0.000001
    35  H    0.001467   0.000244  -0.000013   0.000001   0.000313   0.000016
    36  H    0.059530   0.010100   0.001367   0.000397   0.009871   0.000627
    37  H   -0.031800   0.022463  -0.006755   0.005325  -0.000570   0.008628
    38  H   -0.098181   0.024110  -0.004689  -0.047322   0.387242   0.008457
    39  H    0.012101   0.001234   0.027665  -0.089531  -0.011188   0.373602
    40  H    0.004362  -0.016218   0.028162  -0.099634   0.005477   0.006065
    41  H    0.000966  -0.003336  -0.016228  -0.037201  -0.001394   0.004302
    42  H    0.000043   0.003833  -0.006303   0.011309   0.000029   0.000612
    43  H    0.000006   0.000164   0.001227   0.000069   0.000003   0.000004
    44  H    0.000013  -0.000006   0.000135   0.000015   0.000001  -0.000001
    45  H    0.000147   0.000606  -0.001774  -0.000057   0.000040  -0.000040
    46  H   -0.000096  -0.000129   0.000124   0.000006  -0.000010  -0.000002
               7          8          9         10         11         12
     1  C    0.110140  -0.116140  -0.029950   0.178185  -0.532826  -0.206711
     2  C   -0.348173   0.500624  -0.547282  -0.732463  -0.292762  -0.187442
     3  C   -0.129767   0.040277   1.435515  -0.997404  -0.664604  -0.298555
     4  C    0.172770   0.453358  -0.864784  -1.461574  -0.122601  -0.005593
     5  C   -0.664720  -0.149714   0.053964  -0.599439  -0.369834  -0.085477
     6  C   -1.309942   0.545225  -0.837551  -0.960238  -0.291781  -0.084809
     7  C    7.272883   0.034744   0.022243   1.015033   0.544936   0.199825
     8  C    0.034744  10.549055  -0.629689  -1.311188  -0.006781  -1.139634
     9  C    0.022243  -0.629689  10.820132   1.208766  -1.054396  -0.624286
    10  C    1.015033  -1.311188   1.208766   9.961536  -0.231023  -0.022735
    11  C    0.544936  -0.006781  -1.054396  -0.231023   8.716184   1.845279
    12  C    0.199825  -1.139634  -0.624286  -0.022735   1.845279   8.938931
    13  C   -0.454307  -1.400938  -0.601991  -0.206947   0.109881   0.200290
    14  C    0.334319   0.731065  -1.557162   0.167437   1.288559   0.342057
    15  C    0.208642  -0.039718  -0.087287   0.115567  -0.001015   0.005114
    16  C   -0.456847   0.164867  -0.169591  -0.152481  -0.480745  -0.447281
    17  C    0.084773  -0.095613  -0.199284   0.026349   0.691030   0.206515
    18  C    0.415989  -0.485994  -0.445808   0.085426  -0.190495   0.117837
    19  C   -0.731686  -0.348293   0.118558  -0.147994  -1.467665  -1.880279
[...]
 32,0.00004534,0.00006168,-0.00000228,0.00000552,0.00000075,0.00000927,
 -0.00001338,-0.00004590,0.00004257,-0.00000765,0.00006011,0.00000012,-
 0.00000690,-0.00000149,-0.00000276,-0.00000165,-0.00000104,0.00000426,
 -0.00000315,0.00000021,0.00000021,-0.00000196,-0.00000262,-0.00000284,
 -0.00000185,-0.00000415,0.00000260,0.00000128,-0.00000104,0.00000360,-
 0.00000749,-0.00000560,-0.00000428,0.00001156,0.00000469,-0.00009243,-
 0.00033490,-0.00015454,0.15029650,0.00005585,0.00002317,-0.00003088,-0
 .00012585,-0.00015717,-0.00002514,0.00010786,0.00014150,-0.00003156,0.
 00007885,0.00001069,0.00000328,0.00002191,-0.00001864,-0.00000613,-0.0
 0000964,-0.00002525,-0.00000110,0.00006342,0.00017073,-0.00011564,0.00
 049602,-0.00004424,0.00025524,-0.00013318,0.00003516,-0.00000599,-0.00
 004370,-0.00013211,-0.00000398,-0.00125597,-0.00082856,0.00009597,0.00
 373357,-0.00249114,-0.00023842,-0.01648916,-0.01927861,-0.00450420,-0.
 00208206,0.00108327,0.00035295,-0.00002870,0.00001524,0.00000204,0.000
 01451,-0.00002499,-0.00000349,0.00001432,-0.00001074,0.00000617,0.0002
 3826,-0.00014870,0.00027621,-0.12437329,-0.23599233,-0.04130438,0.0006
 3242,0.00025773,0.00026969,0.00135250,0.00116176,-0.00047111,0.0037758
 3,0.00572821,0.00081808,-0.00000874,-0.00000444,-0.00000508,0.00001891
 ,-0.00000787,0.00000496,-0.00005991,0.00004529,-0.00001427,0.00000436,
 -0.00002712,0.00002580,-0.00003627,0.00002876,0.00002978,-0.00006533,-
 0.00004136,0.00002674,-0.00001898,-0.00005323,-0.00003472,0.00004011,0
 .00003140,0.00000111,-0.00001218,0.00000106,0.00000074,-0.00001008,0.0
 0000755,0.00001873,-0.00000226,-0.00002529,-0.00005618,-0.00000294,-0.
 00000516,0.00000507,-0.00000531,-0.00000137,-0.00000140,-0.00000011,-0
 .00000698,-0.00000369,-0.00000086,-0.00000686,0.00000102,0.00000519,-0
 .00000694,0.00000421,0.00000665,-0.00000704,-0.00000108,0.00001068,-0.
 00000198,0.00000400,0.00002944,0.00000126,-0.00000689,0.00113996,0.000
 27366,-0.00028751,0.13314221,0.24928058,-0.00005887,0.00001229,0.00000
 583,0.00004914,-0.00004339,-0.00002035,-0.00000516,-0.00000082,0.00000
 759,0.00002080,0.00003440,-0.00000989,0.00004374,0.00000171,0.00000021
 ,-0.00001325,-0.00002828,-0.00000448,-0.00007017,-0.00002012,0.0000580
 4,0.00008797,0.00031773,-0.00016775,0.00000241,-0.00001127,-0.00001005
 ,0.00001628,-0.00001321,0.00001212,-0.00028683,0.00018634,0.00018332,-
 0.00017557,-0.00019289,0.00262477,-0.00196480,0.00288814,0.00235354,0.
 00052564,-0.00003051,-0.00110138,0.00003641,-0.00000383,-0.00000140,-0
 .00001648,0.00000742,0.00001023,0.00004852,-0.00004515,0.00000725,0.00
 000036,0.00006771,-0.00009150,-0.02759775,-0.04326918,-0.04605413,0.00
 021743,-0.00043599,-0.00099942,-0.00289043,-0.00015865,0.01083411,-0.0
 0470735,-0.00479443,0.00313649,0.00000166,-0.00000724,-0.00000433,0.00
 000862,0.00000745,-0.00000453,0.00002320,-0.00002640,-0.00000810,-0.00
 008629,0.00004819,0.00005179,-0.00014660,-0.00027097,0.00001425,0.0000
 9671,-0.00004160,0.00003863,0.00000449,0.00003753,0.00000541,-0.000005
 45,-0.00001388,-0.00002026,-0.00000495,-0.00000044,0.00000284,0.000012
 97,-0.00000646,-0.00002893,-0.00001746,0.00003387,-0.00007709,-0.00000
 440,-0.00000539,0.00000133,-0.00000325,-0.00000403,0.00000023,0.000001
 06,-0.00000230,-0.00000158,0.00000008,-0.00000210,0.00000072,0.0000018
 4,-0.00000257,0.00000033,0.00000253,-0.00000154,0.00000234,0.00000130,
 -0.00000039,0.00000049,0.00000859,0.00000083,0.00001381,0.00018699,0.0
 0002740,0.00026281,0.03481250,0.04428114,0.03539479,0.00012679,-0.0000
 6657,-0.00001135,-0.00004883,0.00009674,0.00000286,-0.00001017,0.00002
 907,-0.00003834,-0.00005429,-0.00017566,-0.00000701,-0.00016342,-0.000
 03237,0.00000669,0.00006404,0.00015000,0.00001628,-0.00019319,-0.00017
 342,0.00005101,-0.00053043,0.00031976,0.00018834,0.00011328,0.00008191
 ,0.00000444,-0.00001698,0.00014079,-0.00001062,0.00032653,0.00000334,0
 .00027933,-0.00081430,-0.00040918,0.00003330,-0.00449650,-0.00139091,-
 0.00252547,0.00045609,0.00123671,-0.00026676,-0.00005705,0.00001139,-0
 .00000056,0.00001932,-0.00005700,-0.00001518,-0.00016377,0.00008791,-0
 .00000654,0.00002277,-0.00000983,-0.00000603,-0.00986524,0.03025177,0.
 00056185,-0.00144605,-0.00257226,-0.00047110,0.00925613,-0.01608957,-0
 .00004694,-0.10781459,0.10564531,0.00021257,0.00000538,-0.00001227,-0.
 00000677,-0.00000110,0.00000561,-0.00000535,0.00001359,-0.00005434,0.0
 0003860,0.00005278,-0.00022651,0.00004889,0.00070745,0.00019235,-0.000
 75088,-0.00030149,0.00005898,-0.00005134,0.00000955,-0.00008900,-0.000
 04707,0.00007918,0.00012640,0.00010627,-0.00000197,-0.00000424,0.00000
 823,0.00000134,0.00000182,-0.00000908,0.00008575,0.00005002,0.00012839
 ,0.00000276,0.00000178,-0.00000075,0.00000229,-0.00000245,0.00000057,0
 .00000030,0.00000253,0.00000202,0.00000041,0.00000210,0.00000212,-0.00
 000311,0.00000292,0.00000018,-0.00000206,0.00000454,-0.00000244,-0.000
 00926,0.00002062,-0.00000139,-0.00000385,-0.00000853,0.00000221,-0.000
 01477,-0.00007132,-0.00011857,0.00068400,-0.00033359,0.00127759,0.1127
 4597,0.00012364,-0.00014870,-0.00001869,-0.00007001,0.00011545,0.00000
 063,-0.00004972,0.00001312,-0.00002523,0.00002919,-0.00012824,-0.00001
 686,-0.00020287,-0.00002186,0.00000691,0.00006831,0.00015998,0.0000192
 9,-0.00026653,-0.00007666,0.00002286,0.00017665,0.00042805,0.00013618,
 -0.00002145,-0.00004014,-0.00006138,0.00006024,0.00006499,-0.00000530,
 0.00024385,0.00012117,0.00033027,-0.00074074,0.00029066,-0.00005747,-0
 .00020274,0.00207593,-0.00171014,0.00023006,-0.00040048,0.00023911,-0.
 00004978,0.00001665,-0.00000248,0.00004793,-0.00012919,-0.00002886,-0.
 00028757,0.00014129,0.00003107,0.00004647,-0.00006738,-0.00001797,-0.0
 0120402,0.00025003,-0.00126094,-0.00297388,-0.00290882,-0.00054407,0.0
 1041040,-0.01475408,0.00061246,0.11115497,-0.27800421,-0.01002585,0.00
 002440,-0.00001217,-0.00000869,0.00002922,0.00003196,0.00000292,0.0000
 5875,0.00000233,0.00010446,0.00001835,-0.00057193,0.00009770,0.0013450
 4,0.00078946,-0.00145406,-0.00063121,0.00003818,0.00002538,-0.00012771
 ,-0.00017914,-0.00015854,0.00023156,0.00021674,0.00019405,-0.00003169,
 -0.00000094,0.00001424,-0.00001035,0.00002278,-0.00003139,0.00010839,-
 0.00000697,0.00020174,-0.00000160,-0.00000431,-0.00000380,-0.00000929,
 -0.00000766,-0.00000047,0.00000581,-0.00000994,-0.00000044,-0.00000008
 ,-0.00000793,-0.00000057,-0.00000225,-0.00000904,-0.00000142,0.0000091
 9,0.00000042,-0.00000349,0.00000729,-0.00000481,0.00001145,0.00001353,
 0.00000703,-0.00000219,0.00004578,0.00001533,-0.00008817,0.00017801,0.
 00094026,0.00110514,-0.11758788,0.29164102,0.00009260,-0.00003664,0.00
 003529,-0.00019501,0.00015785,-0.00000583,-0.00001235,0.00023887,0.000
 09706,0.00033341,0.00023438,-0.00003900,-0.00000917,0.00018391,0.00001
 190,0.00010218,-0.00013954,-0.00001894,0.00134733,0.00034523,-0.000008
 96,0.00033193,-0.00170510,-0.00083656,-0.00033556,0.00040935,-0.000067
 75,-0.00011926,-0.00047161,0.00009335,-0.00119865,0.00044743,-0.001060
 27,0.00214534,0.00003798,-0.00022800,-0.00118529,-0.00262766,0.0102276
 6,-0.00209559,0.00167531,0.00003963,-0.00012981,0.00008544,-0.00001689
 ,0.00007996,-0.00017592,-0.00006562,-0.00066965,0.00022751,0.00007254,
 0.00012318,-0.00002950,0.00004207,-0.00490017,0.00629079,0.00555164,-0
 .00454735,-0.00046432,0.00063406,0.00516917,-0.00812158,0.00313511,0.0
 0262072,-0.01139521,-0.03557344,0.00005178,-0.00007190,-0.00002675,0.0
 0009560,0.00010889,0.00006454,0.00014981,0.00017027,0.00008409,0.00011
 612,-0.00081821,0.00002421,0.00139565,0.00127018,-0.00059671,-0.000750
 62,0.00020091,0.00018771,-0.00049116,-0.00020278,-0.00027746,0.0003546
 5,0.00005436,0.00003883,-0.00003004,0.00000616,0.00002584,0.00000307,0
 .00000154,0.00005141,-0.00021547,-0.00028648,0.00041540,0.00000662,-0.
 00001675,0.00001521,-0.00000690,-0.00000349,0.00000646,0.00001388,-0.0
 0001338,0.00000421,0.00000513,-0.00000634,0.00000728,0.00000716,-0.000
 00214,-0.00000776,-0.00000489,0.00001218,0.00000517,-0.00000578,0.0000
 0404,0.00000777,-0.00000686,0.00000364,0.00000007,0.00001037,0.0001505
 7,0.00047268,0.00133199,0.00066853,-0.00638303,0.00149380,0.01249084,0
 .02376530,-0.00021901,-0.00022616,-0.00006752,-0.00021015,0.00007870,-
 0.00003714,0.00003083,0.00021042,-0.00002454,0.00021109,0.00023380,0.0
 0002623,0.00013723,-0.00000817,0.00000067,-0.00012565,-0.00013080,0.00
 001985,0.00025424,0.00004289,-0.00044952,0.00054279,-0.00072396,0.0000
 4673,-0.00045925,0.00029219,0.00006111,0.00000641,-0.00039433,0.000010
 88,-0.00015271,0.00052335,0.00027928,-0.00233062,0.00073749,0.00276203
 ,0.00174746,-0.00030727,-0.00063866,-0.00119622,0.00054172,-0.00022609
 ,0.00032718,-0.00000817,0.00002068,-0.00019281,0.00021452,0.00002622,0
 .00037002,-0.00022599,-0.00006306,-0.00009098,-0.00029963,0.00020096,-
 0.00110834,-0.00161355,0.00022482,-0.00230300,0.00648818,-0.01145632,-
 0.03255731,-0.00312164,-0.02992787,-0.00498416,-0.00389423,-0.01942386
 ,0.00005084,0.00004576,0.00001572,-0.00006054,0.00000301,-0.00000665,-
 0.00001808,-0.00008814,0.00004451,-0.00025109,0.00001945,0.00001967,0.
 00047282,0.00000311,-0.00039625,-0.00107844,-0.00119058,0.00004166,0.0
 0006273,-0.00052871,-0.00022874,0.00041255,0.00059755,0.00068007,-0.00
 003638,-0.00001219,0.00006558,0.00009830,0.00016431,-0.00053842,-0.000
 23369,-0.00009698,0.00003278,0.00001172,0.00002262,-0.00009142,-0.0000
 0123,-0.00000253,0.00000235,-0.00000468,0.00000152,-0.00000269,0.00000
 417,0.00000087,-0.00000134,-0.00000424,0.00000042,0.00000042,-0.000000
 19,-0.00000386,-0.00000719,-0.00000360,-0.00001112,-0.00000566,0.00000
 262,0.00000618,-0.00001223,0.00004287,-0.00000788,0.00005313,-0.000612
 02,-0.00006493,0.00129832,0.00018937,-0.00016464,0.00011550,0.04108860
 ,0.00068155,0.00025405,0.00003247,0.00012419,0.00000177,0.00002828,-0.
 00037399,0.00034116,0.00008731,0.00040667,-0.00039784,-0.00013152,-0.0
 0054814,0.00005739,0.00004002,0.00028765,0.00051573,0.00001024,0.00115
 333,0.00005987,0.00067913,-0.00041500,0.00001991,0.00005785,0.00029106
 ,-0.00017962,-0.00015346,-0.00015286,0.00013769,0.00002893,-0.00111791
 ,0.00080901,-0.00093753,0.00589651,-0.00102259,-0.00289130,0.00019953,
 -0.00049389,-0.00077064,0.00049655,0.00008298,0.00049021,-0.00093331,0
 .00018567,-0.00002566,0.00089670,-0.00051900,-0.00004186,-0.00037406,0
 .00052756,0.00026180,-0.00015450,-0.00012466,-0.00024955,0.00036227,-0
 .00321207,-0.00025241,0.00213910,-0.00262067,0.02542387,-0.00048772,-0
 .03411725,0.00486230,-0.00767265,-0.00210318,-0.02499099,-0.00061350,-
 0.00005518,-0.00007152,0.00041315,-0.00034506,-0.00010211,-0.00232453,
 0.00059715,-0.00044473,0.00045546,0.00143744,0.00111582,-0.00385882,-0
 .00440910,0.00242800,0.00083740,-0.00070765,-0.00040536,0.00088965,-0.
 00119603,-0.00029801,0.00043757,0.00006677,0.00010705,-0.00004535,0.00
 001148,0.00003606,-0.00000950,0.00003906,0.00005654,0.00084374,0.00071
 226,-0.00115523,0.00000279,-0.00005415,0.00004878,-0.00000449,0.000001
 53,-0.00000703,0.00001835,-0.00000652,0.00000944,-0.00000800,-0.000000
 72,0.00001739,-0.00000513,-0.00000360,-0.00000052,0.00000438,0.0000169
 7,0.00000510,0.00000272,0.00001116,0.00001563,0.00000467,-0.00000170,0
 .00000223,0.00009235,-0.00003714,-0.00008858,-0.00056227,-0.00005103,0
 .00167465,0.00015034,-0.00066420,0.00119603,0.00293048,0.04624108,0.00
 049548,0.00014540,0.00002905,-0.00008625,-0.00000869,0.00000791,-0.000
 03906,0.00023051,0.00001057,0.00000368,-0.00033339,0.00000824,-0.00033
 813,0.00001129,0.00001436,0.00020938,0.00028442,0.00001175,0.00061183,
 0.00002451,-0.00002730,-0.00048679,0.00021590,0.00001295,0.00035931,-0
 .00021825,-0.00002355,-0.00006173,0.00029304,-0.00000484,-0.00117776,-
 0.00009263,-0.00012689,0.00195050,0.00102753,-0.00099704,-0.00085827,0
 .00061574,-0.00017519,0.00074470,-0.00012337,0.00028899,-0.00053811,0.
 00007516,-0.00002237,0.00030421,-0.00041425,-0.00008258,-0.00106782,0.
 00056708,0.00019783,0.00017270,0.00019304,-0.00003622,0.00246118,-0.00
 224108,0.00072081,-0.00554371,0.00795620,-0.00806378,-0.01991848,-0.00
 341981,-0.26313067,-0.00572879,-0.00464076,-0.00864438,0.00000580,-0.0
 0004223,-0.00004081,0.00004949,0.00004538,0.00005911,-0.00022598,0.000
 24127,0.00001962,0.00074292,-0.00118709,-0.00047681,0.00234222,0.00215
 190,-0.00088852,-0.00126498,0.00103792,-0.00043227,-0.00022137,-0.0003
 2422,-0.00004123,0.00016658,0.00000491,-0.00008558,0.00001840,0.000014
 74,0.00000377,-0.00008292,-0.00007667,0.00036861,-0.00027294,-0.000656
 42,0.00065833,0.00000696,-0.00000896,0.00004995,-0.00000347,0.00000640
 ,0.00001003,0.00000932,-0.00000671,-0.00000062,-0.00000343,-0.00000618
 ,0.00001368,-0.00000023,-0.00000140,-0.00000149,-0.00000086,0.00001016
 ,-0.00000470,0.00000248,0.00000979,-0.00000050,0.00000148,-0.00000605,
 0.00000737,0.00003826,-0.00002702,-0.00008033,-0.00027941,0.00001307,0
 .00031882,-0.00067641,-0.00059732,-0.00014079,0.02806588,-0.00075603,0
 .29498248,0.00078774,0.00039292,0.00010143,-0.00003012,-0.00013640,0.0
 0001572,-0.00012039,0.00023454,-0.00004496,-0.00001163,-0.00058287,-0.
 00001544,-0.00050854,0.00006706,0.00002139,0.00034252,0.00041014,0.000
 02392,0.00072928,0.00007887,0.00017712,-0.00040504,-0.00007871,0.00000
 701,0.00033852,-0.00007836,-0.00002637,-0.00017493,0.00031581,0.000015
 24,-0.00125422,-0.00084267,-0.00063160,0.00109369,0.00316836,-0.001579
 89,0.00032314,-0.00030649,0.00081934,0.00000948,0.00030979,0.00016528,
 -0.00090180,0.00017039,-0.00004108,0.00072275,-0.00040772,-0.00010532,
 -0.00064127,0.00046990,0.00023416,-0.00000702,-0.00016047,-0.00008671,
 0.00016322,-0.00344214,0.00000531,-0.01201832,0.00577513,0.00176445,-0
 .27444077,0.02176060,0.08661002,-0.01713843,0.00178905,0.00449251,-0.0
 0054762,-0.00017034,-0.00008232,0.00039137,-0.00023141,-0.00005358,-0.
 00214736,0.00045861,-0.00038354,0.00050606,0.00104340,0.00090550,-0.00
 238005,-0.00255642,0.00227671,-0.00057605,-0.00308644,0.00068436,0.000
 94947,-0.00196923,-0.00081306,0.00136434,0.00138206,0.00105100,-0.0001
 1518,-0.00002422,0.00010644,0.00003537,-0.00045809,-0.00015363,0.00009
 767,-0.00007413,-0.00032339,0.00001850,-0.00004276,-0.00004894,-0.0000
 0103,-0.00000817,-0.00000649,0.00001997,-0.00000407,0.00000671,-0.0000
 0626,-0.00000440,0.00002753,0.00000136,0.00000225,-0.00000412,-0.00000
 246,0.00002111,-0.00000234,0.00000453,0.00001861,-0.00000406,-0.000019
 87,-0.00000764,0.00000515,0.00002303,-0.00002636,-0.00009506,-0.000693
 20,0.00018025,-0.00073210,0.00104737,-0.00003101,-0.00058739,0.0021705
 2,-0.00035644,0.00011413,0.30300169,0.00162225,0.00067075,0.00017683,-
 0.00047829,-0.00027255,-0.00005176,0.00013926,0.00100685,-0.00015291,0
 .00014630,-0.00117885,0.00004523,-0.00096787,0.00007094,0.00003326,0.0
 0065637,0.00081135,0.00006084,0.00259007,-0.00076974,-0.00024856,-0.00
 112422,-0.00066371,0.00014458,0.00069608,-0.00020492,0.00004037,-0.000
 43533,0.00053616,0.00001056,-0.00180557,0.00022565,-0.00030913,0.00383
 735,-0.00304542,0.00125517,0.00010576,-0.00212675,0.00061866,-0.000390
 07,0.00103187,0.00021513,-0.00185090,0.00037102,-0.00009224,0.00131636
 ,-0.00107487,-0.00022128,-0.00206938,0.00139182,0.00055857,0.00018999,
 -0.00033224,0.00005281,-0.00261645,-0.00295797,-0.00159885,0.02206013,
 0.00399709,-0.01047746,0.02763153,-0.05220323,-0.01089917,-0.02426466,
 0.00424906,0.00925186,-0.00065255,-0.00014631,-0.00012171,0.00053964,-
 0.00031685,-0.00000094,-0.00249978,0.00112328,-0.00020323,0.00150081,-
 0.00054634,0.00074386,-0.00035156,-0.00079806,0.00162417,-0.00155536,-
 0.00160512,0.00034454,0.00039782,-0.00215638,-0.00098438,0.00116992,0.
 00101525,0.00035025,-0.00007876,0.00001245,0.00008112,-0.00058740,-0.0
 0001934,0.00099472,0.00009607,-0.00054543,0.00014789,0.00003560,-0.000
 03822,0.00009051,0.00000302,0.00001938,0.,0.00002931,-0.00001290,0.000
 00560,-0.00001144,-0.00001168,0.00004641,-0.00000018,0.00000553,-0.000
 00549,-0.00000683,0.00002737,-0.00001016,0.00000997,0.00003141,-0.0000
 2332,-0.00003078,-0.00001559,0.00000939,0.00007828,-0.00004249,-0.0002
 2332,-0.00077177,0.00016186,-0.00129895,0.00069218,0.00077595,-0.00008
 362,-0.00003306,0.00019518,0.00001315,-0.02296188,0.05335472,-0.000259
 00,-0.00011576,-0.00002959,0.00022899,0.00007148,0.00001995,-0.0001947
 5,-0.00025560,-0.00000806,0.00008124,0.00023516,-0.00000920,0.00010472
 ,-0.00000513,0.00000081,-0.00010492,-0.00007498,-0.00000205,-0.0005234
 6,0.00034148,-0.00003352,0.00001823,0.00050273,0.00000693,-0.00000315,
 -0.00009429,-0.00000752,0.00007221,-0.00004268,-0.00000468,-0.00040215
 ,0.00050766,0.00026163,0.00026165,0.00184066,0.00001261,-0.00096194,0.
 00044776,0.00017528,0.00075220,-0.00054133,0.00001175,0.00019381,-0.00
 005733,0.00002194,-0.00003458,0.00005020,0.00003795,0.00031290,-0.0001
 3584,-0.00003981,-0.00007977,0.00006352,-0.00015591,0.00052859,-0.0026
 7238,0.00023800,-0.01070366,0.00269834,-0.00162011,0.08730035,-0.01062
 171,-0.06073616,-0.01309348,0.00052824,0.00192080,0.00002976,0.0000636
 5,0.00001471,-0.00003978,-0.00001719,-0.00002496,0.00006846,-0.0000854
 2,0.00000145,-0.00008463,0.00013112,-0.00002693,0.00020946,-0.00048461
 ,0.00004457,0.00004498,0.00166902,0.00004130,-0.00003353,0.00010470,-0
 .00000813,-0.00003679,-0.00023017,-0.00042608,-0.00003134,-0.00000313,
 0.00005987,0.00065256,0.00037104,-0.00040733,-0.00005711,0.00026266,-0
 .00019494,-0.00001331,-0.00005958,0.00004757,-0.00001049,-0.00000657,0
 .00000312,-0.00000188,-0.00000396,-0.00000030,0.00000067,-0.00000127,-
 0.00001228,-0.00000112,-0.00000822,0.00000091,0.00000819,-0.00000484,0
 .00000136,0.00000196,-0.00000681,0.00000200,0.00001888,0.00000540,-0.0
 0000068,0.00002225,0.00001670,-0.00001542,-0.00053273,-0.00001168,-0.0
 0035390,0.00061040,0.00047911,0.00023727,0.02949012,-0.00494110,-0.014
 26578,-0.09380904,0.01009096,0.07522156\\0.00000359,0.00000320,0.00000
 289,0.00000122,0.00000036,0.00000022,0.00000194,0.00000239,0.00000082,
 -0.00000095,0.00000114,0.00000168,0.00000115,0.00000041,0.00000315,0.0
 0000254,0.00000286,0.00000275,-0.00000106,0.00000246,0.00000039,-0.000
 00313,0.00000353,-0.00000079,0.00000104,0.00000047,0.00000041,0.000000
 42,0.00000426,0.00000039,-0.00000163,-0.00000032,-0.00000145,0.0000012
 5,0.00000244,-0.00000022,-0.00000312,-0.00000035,-0.00000114,0.0000010
 0,0.00000030,-0.00000077,0.00000005,0.00000040,0.00000183,0.00000306,0
 .00000004,0.00000081,-0.00000135,-0.00000050,0.00000169,-0.00000143,0.
 00000065,0.00000022,-0.00000276,0.00000008,-0.00000282,0.00000192,0.00
 000135,-0.00000618,0.00000056,-0.00000199,-0.00000215,-0.00000350,0.00
 000047,-0.00000297,0.00000176,-0.00000175,0.00000107,0.00000104,-0.000
 00158,0.00000177,-0.00000052,0.00000041,0.00000147,0.00000054,-0.00000
 194,0.00000297,-0.00000408,-0.00000505,0.00000297,0.00000208,-0.000001
 40,-0.00000133,0.00000085,-0.00000483,-0.00000104,0.00000082,-0.000003
 14,-0.00000334,-0.00000058,-0.00000276,-0.00000171,-0.00000163,-0.0000
 0111,-0.00000128,-0.00000084,-0.00000033,-0.00000170,0.00000061,-0.000
 00330,0.00000010,0.00000209,-0.00000273,0.00000105,0.00000262,-0.00000
 135,0.00000264,0.00000253,-0.00000020,0.00000298,0.00000218,0.00000181
 ,0.00000337,0.00000175,0.00000287,0.00000311,0.00000008,0.00000340,0.0
 0000147,-0.00000138,0.00000299,-0.00000010,-0.00000214,0.00000159,-0.0
 0000200,-0.00000264,0.00000081,-0.00000313,-0.00000298,-0.00000076,-0.
 00000342,-0.00000097,-0.00000244,-0.00000185,-0.00000200,-0.00000288,-
 0.00000284\\\@


 THEREFORE SHALL EVIL COME UPON THEE...
 THOU SHALT NOT KNOW FROM WHENCE IT RISETH...
 AND MISCHIEF SHALL FALL UPON THEE...
 THOU SHALT NOT BE ABLE TO PUT IT OFF...
 AND DESOLATION SHALL COME UPON THEE SUDDENLY...
 WHICH THOU SHALT NOT KNOW...

                                         ISAIAH 47.11
 Job cpu time:       0 days 23 hours 38 minutes 24.4 seconds.
 Elapsed time:       0 days  1 hours 11 minutes  7.4 seconds.
 File lengths (MBytes):  RWF=   2276 Int=      0 D2E=      0 Chk=     47 Scr=      1
 Normal termination of Gaussian 16 at Fri Jun 14 21:14:08 2019.
