 Entering Gaussian System, Link 0=/share/apps/gaussian16/g16/g16
 Initial command:
 /share/apps/gaussian16/g16/l1.exe "/home/amen01//scratch/501/Gau-28602.inp" -scrdir="/home/amen01//scratch/501/"
 Entering Link 1 = /share/apps/gaussian16/g16/l1.exe PID=     28603.
  
 Copyright (c) 1988-2017, Gaussian, Inc.  All Rights Reserved.
  
 This is part of the Gaussian(R) 16 program.  It is based on
 the Gaussian(R) 09 system (copyright 2009, Gaussian, Inc.),
 the Gaussian(R) 03 system (copyright 2003, Gaussian, Inc.),
 the Gaussian(R) 98 system (copyright 1998, Gaussian, Inc.),
 the Gaussian(R) 94 system (copyright 1995, Gaussian, Inc.),
 the Gaussian 92(TM) system (copyright 1992, Gaussian, Inc.),
 the Gaussian 90(TM) system (copyright 1990, Gaussian, Inc.),
 the Gaussian 88(TM) system (copyright 1988, Gaussian, Inc.),
 the Gaussian 86(TM) system (copyright 1986, Carnegie Mellon
 University), and the Gaussian 82(TM) system (copyright 1983,
 Carnegie Mellon University). Gaussian is a federally registered
 trademark of Gaussian, Inc.
  
 This software contains proprietary and confidential information,
 including trade secrets, belonging to Gaussian, Inc.
  
 This software is provided under written license and may be
 used, copied, transmitted, or stored only in accord with that
 written license.
  
 The following legend is applicable only to US Government
 contracts under FAR:
  
                    RESTRICTED RIGHTS LEGEND
  
 Use, reproduction and disclosure by the US Government is
 subject to restrictions as set forth in subparagraphs (a)
 and (c) of the Commercial Computer Software - Restricted
 Rights clause in FAR 52.227-19.
  
 Gaussian, Inc.
 340 Quinnipiac St., Bldg. 40, Wallingford CT 06492
  
  
 ---------------------------------------------------------------
 Warning -- This program may not be used in any manner that
 competes with the business of Gaussian, Inc. or will provide
 assistance to any competitor of Gaussian, Inc.  The licensee
 of this program is prohibited from giving any competitor of
 Gaussian, Inc. access to this program.  By using this program,
 the user acknowledges that Gaussian, Inc. is engaged in the
 business of creating and licensing software in the field of
 computational chemistry and represents and warrants to the
 licensee that it is not a competitor of Gaussian, Inc. and that
 it will not use this program in any manner prohibited above.
 ---------------------------------------------------------------
  

 Cite this work as:
 Gaussian 16, Revision B.01,
 M. J. Frisch, G. W. Trucks, H. B. Schlegel, G. E. Scuseria, 
 M. A. Robb, J. R. Cheeseman, G. Scalmani, V. Barone, 
 G. A. Petersson, H. Nakatsuji, X. Li, M. Caricato, A. V. Marenich, 
 J. Bloino, B. G. Janesko, R. Gomperts, B. Mennucci, H. P. Hratchian, 
 J. V. Ortiz, A. F. Izmaylov, J. L. Sonnenberg, D. Williams-Young, 
 F. Ding, F. Lipparini, F. Egidi, J. Goings, B. Peng, A. Petrone, 
 T. Henderson, D. Ranasinghe, V. G. Zakrzewski, J. Gao, N. Rega, 
 G. Zheng, W. Liang, M. Hada, M. Ehara, K. Toyota, R. Fukuda, 
 J. Hasegawa, M. Ishida, T. Nakajima, Y. Honda, O. Kitao, H. Nakai, 
 T. Vreven, K. Throssell, J. A. Montgomery, Jr., J. E. Peralta, 
 F. Ogliaro, M. J. Bearpark, J. J. Heyd, E. N. Brothers, K. N. Kudin, 
 V. N. Staroverov, T. A. Keith, R. Kobayashi, J. Normand, 
 K. Raghavachari, A. P. Rendell, J. C. Burant, S. S. Iyengar, 
 J. Tomasi, M. Cossi, J. M. Millam, M. Klene, C. Adamo, R. Cammi, 
 J. W. Ochterski, R. L. Martin, K. Morokuma, O. Farkas, 
 J. B. Foresman, and D. J. Fox, Gaussian, Inc., Wallingford CT, 2016.
 
 ******************************************
 Gaussian 16:  ES64L-G16RevB.01 20-Dec-2017
                14-Jun-2019 
 ******************************************
 %nprocshared=20
 Will use up to   20 processors via shared memory.
 %mem=100GB
 %chk=7-memb-carbTSguess-2b.chk
 ---------------------------------------------------------------------
 # opt=(ts,modredundant,noeigen) freq b3lyp/6-311+g(d,p) int=grid=fine
 ---------------------------------------------------------------------
 1/5=1,11=1,18=120,26=3,38=1/1,3;
 2/9=110,12=2,17=6,18=5,40=1/2;
 3/5=4,6=6,7=111,11=2,25=1,30=1,71=1,74=-5,75=-4/1,2,3;
 4//1;
 5/5=2,38=5/2;
 6/7=2,8=2,9=2,10=2,28=1/1;
 7//1,2,3,16;
 1/5=1,11=1,18=20,26=3/3(2);
 2/9=110/2;
 99//99;
 2/9=110/2;
 3/5=4,6=6,7=111,11=2,25=1,30=1,71=1,74=-5,75=-4/1,2,3;
 4/5=5,16=3,69=1/1;
 5/5=2,38=5/2;
 7//1,2,3,16;
 1/5=1,11=1,18=20,26=3/3(-5);
 2/9=110/2;
 6/7=2,8=2,9=2,10=2,19=2,28=1/1;
 99/9=1/99;
 ---------------------
 7-memb-carbTSguess-2b
 ---------------------
 Symbolic Z-matrix:
 Charge =  0 Multiplicity = 1
 C                     1.49573  -2.87702  -0.12498 
 C                     1.38241  -1.48849  -0.18807 
 C                     2.5076   -0.66433  -0.07977 
 C                     3.80438  -1.08416   0.09119 
 C                     2.85639  -3.36786  -0.00073 
 C                     3.94919  -2.52498   0.10437 
 C                     2.07142   0.66333  -0.06192 
 C                     2.95245   1.73146   0.12374 
 C                     4.33938   1.32898   0.28125 
 C                     4.74449   0.00469   0.26561 
 C                     0.67603   0.70667  -0.19461 
 C                     0.07944   1.95567  -0.2617 
 C                     0.92727   3.11307  -0.01674 
 C                     2.32911   2.99129   0.17039 
 C                     0.26049  -3.54758  -0.14322 
 C                    -0.95375  -2.82217  -0.13885 
 C                    -1.01317  -1.36209  -0.12607 
 C                     0.20958  -0.70068  -0.22258 
 C                     0.2889    4.38988   0.02095 
 C                    -1.3249    2.1147   -0.57096 
 C                    -1.84906   3.40924  -0.60185 
 C                    -1.05628   4.52006  -0.24942 
 C                    -2.19027  -3.53923  -0.10705 
 C                    -3.39744  -2.9001   -0.05316 
 C                    -3.48247  -1.48359   0.02394 
 C                    -2.29694  -0.69154   0.08504 
 C                    -2.38394   0.64896   0.55432 
 C                    -3.75013   1.16541   0.89825 
 C                    -4.77716  -0.83876  -0.03119 
 C                    -4.92266   0.45574   0.30545 
 H                    -5.86883   0.97301   0.17826 
 H                    -3.78177   0.99422   1.9923 
 H                    -5.61819  -1.42744  -0.38413 
 H                    -4.31621  -3.4775   -0.06907 
 H                    -2.15417  -4.6235   -0.1327 
 H                     0.20874  -4.63198  -0.13047 
 H                     3.02409  -4.43959   0.02947 
 H                     4.93478  -2.96588   0.21451 
 H                     5.79868  -0.21433   0.40226 
 H                     5.09281   2.09616   0.42865 
 H                     2.90312   3.89513   0.35029 
 H                     0.88816   5.2677    0.23684 
 H                    -1.50536   5.50764  -0.24939 
 H                    -2.87113   3.57242  -0.92469 
 H                    -1.77199   1.38587  -1.2515 
 H                    -3.81914   2.24873   0.79968 
 
 The following ModRedundant input section has been read:
 

 GradGradGradGradGradGradGradGradGradGradGradGradGradGradGradGradGradGrad
 Berny optimization.
 Initialization pass.
                           ----------------------------
                           !    Initial Parameters    !
                           ! (Angstroms and Degrees)  !
 --------------------------                            --------------------------
 ! Name  Definition              Value          Derivative Info.                !
 --------------------------------------------------------------------------------
 ! R1    R(1,2)                  1.3946         estimate D2E/DX2                !
 ! R2    R(1,5)                  1.4518         estimate D2E/DX2                !
 ! R3    R(1,15)                 1.4056         estimate D2E/DX2                !
 ! R4    R(2,3)                  1.3989         estimate D2E/DX2                !
 ! R5    R(2,18)                 1.4133         estimate D2E/DX2                !
 ! R6    R(3,4)                  1.3737         estimate D2E/DX2                !
 ! R7    R(3,7)                  1.3976         estimate D2E/DX2                !
 ! R8    R(4,6)                  1.4481         estimate D2E/DX2                !
 ! R9    R(4,10)                 1.4491         estimate D2E/DX2                !
 ! R10   R(5,6)                  1.3841         estimate D2E/DX2                !
 ! R11   R(5,37)                 1.0852         estimate D2E/DX2                !
 ! R12   R(6,38)                 1.0853         estimate D2E/DX2                !
 ! R13   R(7,8)                  1.397          estimate D2E/DX2                !
 ! R14   R(7,11)                 1.4024         estimate D2E/DX2                !
 ! R15   R(8,9)                  1.4527         estimate D2E/DX2                !
 ! R16   R(8,14)                 1.4064         estimate D2E/DX2                !
 ! R17   R(9,10)                 1.385          estimate D2E/DX2                !
 ! R18   R(9,40)                 1.0853         estimate D2E/DX2                !
 ! R19   R(10,39)                1.0853         estimate D2E/DX2                !
 ! R20   R(11,12)                1.3858         estimate D2E/DX2                !
 ! R21   R(11,18)                1.4829         estimate D2E/DX2                !
 ! R22   R(12,13)                1.4555         estimate D2E/DX2                !
 ! R23   R(12,20)                1.4468         estimate D2E/DX2                !
 ! R24   R(13,14)                1.4195         estimate D2E/DX2                !
 ! R25   R(13,19)                1.428          estimate D2E/DX2                !
 ! R26   R(14,41)                1.0857         estimate D2E/DX2                !
 ! R27   R(15,16)                1.4144         estimate D2E/DX2                !
 ! R28   R(15,36)                1.0857         estimate D2E/DX2                !
 ! R29   R(16,17)                1.4613         estimate D2E/DX2                !
 ! R30   R(16,23)                1.4297         estimate D2E/DX2                !
 ! R31   R(17,18)                1.3935         estimate D2E/DX2                !
 ! R32   R(17,26)                1.4637         estimate D2E/DX2                !
 ! R33   R(19,22)                1.3782         estimate D2E/DX2                !
 ! R34   R(19,42)                1.0846         estimate D2E/DX2                !
 ! R35   R(20,21)                1.397          estimate D2E/DX2                !
 ! R36   R(20,45)                1.0928         estimate D2E/DX2                !
 ! R37   R(21,22)                1.4095         estimate D2E/DX2                !
 ! R38   R(21,44)                1.0842         estimate D2E/DX2                !
 ! R39   R(22,43)                1.0849         estimate D2E/DX2                !
 ! R40   R(23,24)                1.367          estimate D2E/DX2                !
 ! R41   R(23,35)                1.0852         estimate D2E/DX2                !
 ! R42   R(24,25)                1.4211         estimate D2E/DX2                !
 ! R43   R(24,34)                1.0853         estimate D2E/DX2                !
 ! R44   R(25,26)                1.4271         estimate D2E/DX2                !
 ! R45   R(25,29)                1.4474         estimate D2E/DX2                !
 ! R46   R(26,27)                1.4229         estimate D2E/DX2                !
 ! R47   R(27,28)                1.5005         estimate D2E/DX2                !
 ! R48   R(28,30)                1.4933         estimate D2E/DX2                !
 ! R49   R(28,32)                1.1078         estimate D2E/DX2                !
 ! R50   R(28,46)                1.09           estimate D2E/DX2                !
 ! R51   R(29,30)                1.3455         estimate D2E/DX2                !
 ! R52   R(29,33)                1.0856         estimate D2E/DX2                !
 ! R53   R(30,31)                1.0858         estimate D2E/DX2                !
 ! A1    A(2,1,5)              114.6234         estimate D2E/DX2                !
 ! A2    A(2,1,15)             113.7653         estimate D2E/DX2                !
 ! A3    A(5,1,15)             131.5618         estimate D2E/DX2                !
 ! A4    A(1,2,3)              121.1794         estimate D2E/DX2                !
 ! A5    A(1,2,18)             128.5764         estimate D2E/DX2                !
 ! A6    A(3,2,18)             109.9354         estimate D2E/DX2                !
 ! A7    A(2,3,4)              126.0759         estimate D2E/DX2                !
 ! A8    A(2,3,7)              108.0365         estimate D2E/DX2                !
 ! A9    A(4,3,7)              125.686          estimate D2E/DX2                !
 ! A10   A(3,4,6)              113.5528         estimate D2E/DX2                !
 ! A11   A(3,4,10)             113.4386         estimate D2E/DX2                !
 ! A12   A(6,4,10)             132.9722         estimate D2E/DX2                !
 ! A13   A(1,5,6)              122.7233         estimate D2E/DX2                !
 ! A14   A(1,5,37)             118.7579         estimate D2E/DX2                !
 ! A15   A(6,5,37)             118.509          estimate D2E/DX2                !
 ! A16   A(4,6,5)              121.753          estimate D2E/DX2                !
 ! A17   A(4,6,38)             119.7304         estimate D2E/DX2                !
 ! A18   A(5,6,38)             118.5098         estimate D2E/DX2                !
 ! A19   A(3,7,8)              122.0871         estimate D2E/DX2                !
 ! A20   A(3,7,11)             109.7971         estimate D2E/DX2                !
 ! A21   A(8,7,11)             128.0595         estimate D2E/DX2                !
 ! A22   A(7,8,9)              113.871          estimate D2E/DX2                !
 ! A23   A(7,8,14)             114.1925         estimate D2E/DX2                !
 ! A24   A(9,8,14)             131.8931         estimate D2E/DX2                !
 ! A25   A(8,9,10)             122.8853         estimate D2E/DX2                !
 ! A26   A(8,9,40)             118.7925         estimate D2E/DX2                !
 ! A27   A(10,9,40)            118.3188         estimate D2E/DX2                !
 ! A28   A(4,10,9)             122.0112         estimate D2E/DX2                !
 ! A29   A(4,10,39)            119.5821         estimate D2E/DX2                !
 ! A30   A(9,10,39)            118.4015         estimate D2E/DX2                !
 ! A31   A(7,11,12)            117.4385         estimate D2E/DX2                !
 ! A32   A(7,11,18)            106.5856         estimate D2E/DX2                !
 ! A33   A(12,11,18)           135.9756         estimate D2E/DX2                !
 ! A34   A(11,12,13)           117.2446         estimate D2E/DX2                !
 ! A35   A(11,12,20)           121.8234         estimate D2E/DX2                !
 ! A36   A(13,12,20)           120.9306         estimate D2E/DX2                !
 ! A37   A(12,13,14)           121.9535         estimate D2E/DX2                !
 ! A38   A(12,13,19)           117.0684         estimate D2E/DX2                !
 ! A39   A(14,13,19)           120.9772         estimate D2E/DX2                !
 ! A40   A(8,14,13)            120.676          estimate D2E/DX2                !
 ! A41   A(8,14,41)            121.1252         estimate D2E/DX2                !
 ! A42   A(13,14,41)           118.1989         estimate D2E/DX2                !
 ! A43   A(1,15,16)            120.6435         estimate D2E/DX2                !
 ! A44   A(1,15,36)            121.2123         estimate D2E/DX2                !
 ! A45   A(16,15,36)           118.1184         estimate D2E/DX2                !
 ! A46   A(15,16,17)           123.1855         estimate D2E/DX2                !
 ! A47   A(15,16,23)           119.032          estimate D2E/DX2                !
 ! A48   A(17,16,23)           117.758          estimate D2E/DX2                !
 ! A49   A(16,17,18)           115.9725         estimate D2E/DX2                !
 ! A50   A(16,17,26)           119.6473         estimate D2E/DX2                !
 ! A51   A(18,17,26)           124.2056         estimate D2E/DX2                !
 ! A52   A(2,18,11)            105.518          estimate D2E/DX2                !
 ! A53   A(2,18,17)            117.5096         estimate D2E/DX2                !
 ! A54   A(11,18,17)           136.4813         estimate D2E/DX2                !
 ! A55   A(13,19,22)           121.0368         estimate D2E/DX2                !
 ! A56   A(13,19,42)           118.8123         estimate D2E/DX2                !
 ! A57   A(22,19,42)           120.1237         estimate D2E/DX2                !
 ! A58   A(12,20,21)           118.086          estimate D2E/DX2                !
 ! A59   A(12,20,45)           117.1891         estimate D2E/DX2                !
 ! A60   A(21,20,45)           116.7925         estimate D2E/DX2                !
 ! A61   A(20,21,22)           120.914          estimate D2E/DX2                !
 ! A62   A(20,21,44)           119.9842         estimate D2E/DX2                !
 ! A63   A(22,21,44)           119.083          estimate D2E/DX2                !
 ! A64   A(19,22,21)           121.5727         estimate D2E/DX2                !
 ! A65   A(19,22,43)           119.3399         estimate D2E/DX2                !
 ! A66   A(21,22,43)           118.9859         estimate D2E/DX2                !
 ! A67   A(16,23,24)           122.0141         estimate D2E/DX2                !
 ! A68   A(16,23,35)           118.1523         estimate D2E/DX2                !
 ! A69   A(24,23,35)           119.8326         estimate D2E/DX2                !
 ! A70   A(23,24,25)           121.3991         estimate D2E/DX2                !
 ! A71   A(23,24,34)           119.8864         estimate D2E/DX2                !
 ! A72   A(25,24,34)           118.7144         estimate D2E/DX2                !
 ! A73   A(24,25,26)           120.3861         estimate D2E/DX2                !
 ! A74   A(24,25,29)           119.7021         estimate D2E/DX2                !
 ! A75   A(26,25,29)           119.831          estimate D2E/DX2                !
 ! A76   A(17,26,25)           117.9172         estimate D2E/DX2                !
 ! A77   A(17,26,27)           122.1939         estimate D2E/DX2                !
 ! A78   A(25,26,27)           119.0908         estimate D2E/DX2                !
 ! A79   A(26,27,28)           117.0977         estimate D2E/DX2                !
 ! A80   A(27,28,30)           117.4104         estimate D2E/DX2                !
 ! A81   A(27,28,32)           101.4895         estimate D2E/DX2                !
 ! A82   A(27,28,46)           112.2718         estimate D2E/DX2                !
 ! A83   A(30,28,32)           107.2288         estimate D2E/DX2                !
 ! A84   A(30,28,46)           112.7504         estimate D2E/DX2                !
 ! A85   A(32,28,46)           103.9505         estimate D2E/DX2                !
 ! A86   A(25,29,30)           121.0528         estimate D2E/DX2                !
 ! A87   A(25,29,33)           117.6316         estimate D2E/DX2                !
 ! A88   A(30,29,33)           121.2862         estimate D2E/DX2                !
 ! A89   A(28,30,29)           118.1419         estimate D2E/DX2                !
 ! A90   A(28,30,31)           120.2869         estimate D2E/DX2                !
 ! A91   A(29,30,31)           121.5524         estimate D2E/DX2                !
 ! D1    D(5,1,2,3)             -2.5614         estimate D2E/DX2                !
 ! D2    D(5,1,2,18)          -175.5079         estimate D2E/DX2                !
 ! D3    D(15,1,2,3)           175.1806         estimate D2E/DX2                !
 ! D4    D(15,1,2,18)            2.2341         estimate D2E/DX2                !
 ! D5    D(2,1,5,6)              2.6346         estimate D2E/DX2                !
 ! D6    D(2,1,5,37)          -178.5183         estimate D2E/DX2                !
 ! D7    D(15,1,5,6)          -174.6032         estimate D2E/DX2                !
 ! D8    D(15,1,5,37)            4.2439         estimate D2E/DX2                !
 ! D9    D(2,1,15,16)           -3.8075         estimate D2E/DX2                !
 ! D10   D(2,1,15,36)          178.0757         estimate D2E/DX2                !
 ! D11   D(5,1,15,16)          173.4489         estimate D2E/DX2                !
 ! D12   D(5,1,15,36)           -4.668          estimate D2E/DX2                !
 ! D13   D(1,2,3,4)              0.1235         estimate D2E/DX2                !
 ! D14   D(1,2,3,7)           -174.9364         estimate D2E/DX2                !
 ! D15   D(18,2,3,4)           174.2624         estimate D2E/DX2                !
 ! D16   D(18,2,3,7)            -0.7975         estimate D2E/DX2                !
 ! D17   D(1,2,18,11)          176.2885         estimate D2E/DX2                !
 ! D18   D(1,2,18,17)            3.0106         estimate D2E/DX2                !
 ! D19   D(3,2,18,11)            2.7049         estimate D2E/DX2                !
 ! D20   D(3,2,18,17)         -170.573          estimate D2E/DX2                !
 ! D21   D(2,3,4,6)              2.2656         estimate D2E/DX2                !
 ! D22   D(2,3,4,10)          -175.8305         estimate D2E/DX2                !
 ! D23   D(7,3,4,6)            176.4797         estimate D2E/DX2                !
 ! D24   D(7,3,4,10)            -1.6164         estimate D2E/DX2                !
 ! D25   D(2,3,7,8)            175.8696         estimate D2E/DX2                !
 ! D26   D(2,3,7,11)            -1.6054         estimate D2E/DX2                !
 ! D27   D(4,3,7,8)              0.7853         estimate D2E/DX2                !
 ! D28   D(4,3,7,11)          -176.6897         estimate D2E/DX2                !
 ! D29   D(3,4,6,5)             -2.1264         estimate D2E/DX2                !
 ! D30   D(3,4,6,38)           178.8378         estimate D2E/DX2                !
 ! D31   D(10,4,6,5)           175.4861         estimate D2E/DX2                !
 ! D32   D(10,4,6,38)           -3.5498         estimate D2E/DX2                !
 ! D33   D(3,4,10,9)             1.2463         estimate D2E/DX2                !
 ! D34   D(3,4,10,39)         -179.5942         estimate D2E/DX2                !
 ! D35   D(6,4,10,9)          -176.3682         estimate D2E/DX2                !
 ! D36   D(6,4,10,39)            2.7913         estimate D2E/DX2                !
 ! D37   D(1,5,6,4)             -0.2739         estimate D2E/DX2                !
 ! D38   D(1,5,6,38)           178.7733         estimate D2E/DX2                !
 ! D39   D(37,5,6,4)          -179.1238         estimate D2E/DX2                !
 ! D40   D(37,5,6,38)           -0.0765         estimate D2E/DX2                !
 ! D41   D(3,7,8,9)              0.4928         estimate D2E/DX2                !
 ! D42   D(3,7,8,14)          -177.401          estimate D2E/DX2                !
 ! D43   D(11,7,8,9)           177.475          estimate D2E/DX2                !
 ! D44   D(11,7,8,14)           -0.4187         estimate D2E/DX2                !
 ! D45   D(3,7,11,12)         -176.9452         estimate D2E/DX2                !
 ! D46   D(3,7,11,18)            3.2315         estimate D2E/DX2                !
 ! D47   D(8,7,11,12)            5.7719         estimate D2E/DX2                !
 ! D48   D(8,7,11,18)         -174.0514         estimate D2E/DX2                !
 ! D49   D(7,8,9,10)            -0.7992         estimate D2E/DX2                !
 ! D50   D(7,8,9,40)           179.8857         estimate D2E/DX2                !
 ! D51   D(14,8,9,10)          176.6195         estimate D2E/DX2                !
 ! D52   D(14,8,9,40)           -2.6956         estimate D2E/DX2                !
 ! D53   D(7,8,14,13)           -2.4448         estimate D2E/DX2                !
 ! D54   D(7,8,14,41)          177.5205         estimate D2E/DX2                !
 ! D55   D(9,8,14,13)         -179.857          estimate D2E/DX2                !
 ! D56   D(9,8,14,41)            0.1082         estimate D2E/DX2                !
 ! D57   D(8,9,10,4)            -0.088          estimate D2E/DX2                !
 ! D58   D(8,9,10,39)         -179.257          estimate D2E/DX2                !
 ! D59   D(40,9,10,4)          179.2302         estimate D2E/DX2                !
 ! D60   D(40,9,10,39)           0.0611         estimate D2E/DX2                !
 ! D61   D(7,11,12,13)          -7.707          estimate D2E/DX2                !
 ! D62   D(7,11,12,20)         171.8644         estimate D2E/DX2                !
 ! D63   D(18,11,12,13)        172.0494         estimate D2E/DX2                !
 ! D64   D(18,11,12,20)         -8.3792         estimate D2E/DX2                !
 ! D65   D(7,11,18,2)           -3.5904         estimate D2E/DX2                !
 ! D66   D(7,11,18,17)         167.7381         estimate D2E/DX2                !
 ! D67   D(12,11,18,2)         176.6352         estimate D2E/DX2                !
 ! D68   D(12,11,18,17)        -12.0363         estimate D2E/DX2                !
 ! D69   D(11,12,13,14)          5.3009         estimate D2E/DX2                !
 ! D70   D(11,12,13,19)       -175.0475         estimate D2E/DX2                !
 ! D71   D(20,12,13,14)       -174.2746         estimate D2E/DX2                !
 ! D72   D(20,12,13,19)          5.377          estimate D2E/DX2                !
 ! D73   D(11,12,20,21)        179.2153         estimate D2E/DX2                !
 ! D74   D(11,12,20,45)        -32.7336         estimate D2E/DX2                !
 ! D75   D(13,12,20,21)         -1.2289         estimate D2E/DX2                !
 ! D76   D(13,12,20,45)        146.8222         estimate D2E/DX2                !
 ! D77   D(12,13,14,8)           0.0363         estimate D2E/DX2                !
 ! D78   D(12,13,14,41)       -179.9299         estimate D2E/DX2                !
 ! D79   D(19,13,14,8)        -179.6019         estimate D2E/DX2                !
 ! D80   D(19,13,14,41)          0.4319         estimate D2E/DX2                !
 ! D81   D(12,13,19,22)         -4.0638         estimate D2E/DX2                !
 ! D82   D(12,13,19,42)        177.8296         estimate D2E/DX2                !
 ! D83   D(14,13,19,22)        175.5914         estimate D2E/DX2                !
 ! D84   D(14,13,19,42)         -2.5151         estimate D2E/DX2                !
 ! D85   D(1,15,16,17)           0.4858         estimate D2E/DX2                !
 ! D86   D(1,15,16,23)        -177.6715         estimate D2E/DX2                !
 ! D87   D(36,15,16,17)        178.6598         estimate D2E/DX2                !
 ! D88   D(36,15,16,23)          0.5024         estimate D2E/DX2                !
 ! D89   D(15,16,17,18)          4.7797         estimate D2E/DX2                !
 ! D90   D(15,16,17,26)       -170.6195         estimate D2E/DX2                !
 ! D91   D(23,16,17,18)       -177.0409         estimate D2E/DX2                !
 ! D92   D(23,16,17,26)          7.56           estimate D2E/DX2                !
 ! D93   D(15,16,23,24)        177.627          estimate D2E/DX2                !
 ! D94   D(15,16,23,35)         -2.7242         estimate D2E/DX2                !
 ! D95   D(17,16,23,24)         -0.6304         estimate D2E/DX2                !
 ! D96   D(17,16,23,35)        179.0184         estimate D2E/DX2                !
 ! D97   D(16,17,18,2)          -6.1524         estimate D2E/DX2                !
 ! D98   D(16,17,18,11)       -176.7254         estimate D2E/DX2                !
 ! D99   D(26,17,18,2)         169.0122         estimate D2E/DX2                !
 ! D100  D(26,17,18,11)         -1.5608         estimate D2E/DX2                !
 ! D101  D(16,17,26,25)        -11.4241         estimate D2E/DX2                !
 ! D102  D(16,17,26,27)        158.2437         estimate D2E/DX2                !
 ! D103  D(18,17,26,25)        173.5782         estimate D2E/DX2                !
 ! D104  D(18,17,26,27)        -16.754          estimate D2E/DX2                !
 ! D105  D(13,19,22,21)         -1.427          estimate D2E/DX2                !
 ! D106  D(13,19,22,43)       -177.7276         estimate D2E/DX2                !
 ! D107  D(42,19,22,21)        176.6548         estimate D2E/DX2                !
 ! D108  D(42,19,22,43)          0.3543         estimate D2E/DX2                !
 ! D109  D(12,20,21,22)         -4.4146         estimate D2E/DX2                !
 ! D110  D(12,20,21,44)        173.9936         estimate D2E/DX2                !
 ! D111  D(45,20,21,22)       -152.5914         estimate D2E/DX2                !
 ! D112  D(45,20,21,44)         25.8169         estimate D2E/DX2                !
 ! D113  D(20,21,22,19)          5.9065         estimate D2E/DX2                !
 ! D114  D(20,21,22,43)       -177.7802         estimate D2E/DX2                !
 ! D115  D(44,21,22,19)       -172.5158         estimate D2E/DX2                !
 ! D116  D(44,21,22,43)          3.7975         estimate D2E/DX2                !
 ! D117  D(16,23,24,25)         -2.3562         estimate D2E/DX2                !
 ! D118  D(16,23,24,34)        177.6402         estimate D2E/DX2                !
 ! D119  D(35,23,24,25)        178.0008         estimate D2E/DX2                !
 ! D120  D(35,23,24,34)         -2.0028         estimate D2E/DX2                !
 ! D121  D(23,24,25,26)         -1.7728         estimate D2E/DX2                !
 ! D122  D(23,24,25,29)        174.9541         estimate D2E/DX2                !
 ! D123  D(34,24,25,26)        178.2308         estimate D2E/DX2                !
 ! D124  D(34,24,25,29)         -5.0423         estimate D2E/DX2                !
 ! D125  D(24,25,26,17)          8.557          estimate D2E/DX2                !
 ! D126  D(24,25,26,27)       -161.4405         estimate D2E/DX2                !
 ! D127  D(29,25,26,17)       -168.1657         estimate D2E/DX2                !
 ! D128  D(29,25,26,27)         21.8368         estimate D2E/DX2                !
 ! D129  D(24,25,29,30)        166.4583         estimate D2E/DX2                !
 ! D130  D(24,25,29,33)        -15.489          estimate D2E/DX2                !
 ! D131  D(26,25,29,30)        -16.7964         estimate D2E/DX2                !
 ! D132  D(26,25,29,33)        161.2563         estimate D2E/DX2                !
 ! D133  D(17,26,27,28)       -172.3487         estimate D2E/DX2                !
 ! D134  D(25,26,27,28)         -2.7978         estimate D2E/DX2                !
 ! D135  D(26,27,28,30)        -20.4824         estimate D2E/DX2                !
 ! D136  D(26,27,28,32)         95.9969         estimate D2E/DX2                !
 ! D137  D(26,27,28,46)       -153.5712         estimate D2E/DX2                !
 ! D138  D(27,28,30,29)         25.9104         estimate D2E/DX2                !
 ! D139  D(27,28,30,31)       -155.6446         estimate D2E/DX2                !
 ! D140  D(32,28,30,29)        -87.4013         estimate D2E/DX2                !
 ! D141  D(32,28,30,31)         91.0438         estimate D2E/DX2                !
 ! D142  D(46,28,30,29)        158.7864         estimate D2E/DX2                !
 ! D143  D(46,28,30,31)        -22.7686         estimate D2E/DX2                !
 ! D144  D(25,29,30,28)         -7.4467         estimate D2E/DX2                !
 ! D145  D(25,29,30,31)        174.129          estimate D2E/DX2                !
 ! D146  D(33,29,30,28)        174.5721         estimate D2E/DX2                !
 ! D147  D(33,29,30,31)         -3.8522         estimate D2E/DX2                !
 --------------------------------------------------------------------------------
 Trust Radius=3.00D-01 FncErr=1.00D-07 GrdErr=1.00D-06 EigMax=2.50D+02 EigMin=1.00D-04
 Number of steps in this run=    276 maximum allowed number of steps=    276.
 Search for a saddle point of order  1.
 GradGradGradGradGradGradGradGradGradGradGradGradGradGradGradGradGradGrad

                          Input orientation:                          
 ---------------------------------------------------------------------
 Center     Atomic      Atomic             Coordinates (Angstroms)
 Number     Number       Type             X           Y           Z
 ---------------------------------------------------------------------
      1          6           0        1.495728   -2.877017   -0.124977
      2          6           0        1.382407   -1.488490   -0.188066
      3          6           0        2.507598   -0.664331   -0.079772
      4          6           0        3.804382   -1.084158    0.091194
      5          6           0        2.856389   -3.367858   -0.000729
      6          6           0        3.949190   -2.524977    0.104369
      7          6           0        2.071420    0.663332   -0.061924
      8          6           0        2.952451    1.731461    0.123741
      9          6           0        4.339378    1.328978    0.281246
     10          6           0        4.744489    0.004689    0.265609
     11          6           0        0.676026    0.706666   -0.194607
     12          6           0        0.079439    1.955667   -0.261702
     13          6           0        0.927268    3.113066   -0.016740
     14          6           0        2.329113    2.991290    0.170386
     15          6           0        0.260487   -3.547582   -0.143216
     16          6           0       -0.953751   -2.822171   -0.138850
     17          6           0       -1.013168   -1.362087   -0.126069
     18          6           0        0.209581   -0.700678   -0.222578
     19          6           0        0.288904    4.389876    0.020945
     20          6           0       -1.324903    2.114698   -0.570957
     21          6           0       -1.849059    3.409244   -0.601848
     22          6           0       -1.056281    4.520059   -0.249421
     23          6           0       -2.190273   -3.539232   -0.107049
     24          6           0       -3.397438   -2.900099   -0.053161
     25          6           0       -3.482465   -1.483593    0.023936
     26          6           0       -2.296943   -0.691541    0.085036
     27          6           0       -2.383940    0.648957    0.554317
     28          6           0       -3.750128    1.165407    0.898253
     29          6           0       -4.777164   -0.838762   -0.031194
     30          6           0       -4.922664    0.455742    0.305445
     31          1           0       -5.868829    0.973005    0.178264
     32          1           0       -3.781770    0.994223    1.992299
     33          1           0       -5.618193   -1.427442   -0.384131
     34          1           0       -4.316207   -3.477497   -0.069065
     35          1           0       -2.154175   -4.623501   -0.132698
     36          1           0        0.208741   -4.631978   -0.130471
     37          1           0        3.024091   -4.439590    0.029468
     38          1           0        4.934782   -2.965879    0.214506
     39          1           0        5.798675   -0.214326    0.402263
     40          1           0        5.092807    2.096162    0.428645
     41          1           0        2.903116    3.895133    0.350294
     42          1           0        0.888155    5.267702    0.236835
     43          1           0       -1.505362    5.507636   -0.249393
     44          1           0       -2.871132    3.572420   -0.924687
     45          1           0       -1.771989    1.385865   -1.251501
     46          1           0       -3.819140    2.248728    0.799680
 ---------------------------------------------------------------------
                    Distance matrix (angstroms):
                    1          2          3          4          5
     1  C    0.000000
     2  C    1.394571   0.000000
     3  C    2.433496   1.398935   0.000000
     4  C    2.931033   2.471322   1.373730   0.000000
     5  C    1.451813   2.395776   2.727079   2.474354   0.000000
     6  C    2.489178   2.783559   2.360953   1.448138   1.384091
     7  C    3.587404   2.262960   1.397590   2.465831   4.107361
     8  C    4.839625   3.595879   2.445226   2.941863   5.101742
     9  C    5.093305   4.111211   2.731123   2.479025   4.933461
    10  C    4.360187   3.706616   2.360203   1.449072   3.874265
    11  C    3.676893   2.306020   2.290737   3.615985   4.625291
    12  C    5.037797   3.683119   3.576792   4.820817   6.009948
    13  C    6.017969   4.627183   4.095137   5.089806   6.761963
    14  C    5.934543   4.592730   3.668515   4.334970   6.383264
    15  C    1.405635   2.345331   3.656046   4.322337   2.606014
    16  C    2.450132   2.690495   4.079301   5.070842   3.851496
    17  C    2.930797   2.399709   3.589540   4.830449   4.360309
    18  C    2.529852   1.413280   2.302737   3.628788   3.764128
    19  C    7.367866   5.982861   5.520666   6.506041   8.171590
    20  C    5.750833   4.523173   4.759446   6.081175   6.918582
    21  C    7.136672   5.882294   5.987240   7.254817   8.272345
    22  C    7.825917   6.484877   6.293482   7.426258   8.808523
    23  C    3.745057   4.120212   5.507794   6.480940   5.050690
    24  C    4.893747   4.985755   6.314176   7.428640   6.271515
    25  C    5.171674   4.869492   6.046718   7.298096   6.613028
    26  C    4.382324   3.774563   4.807444   6.113947   5.807483
    27  C    5.286375   4.393766   5.104306   6.443097   6.626004
    28  C    6.701283   5.879300   6.592694   7.923541   8.062551
    29  C    6.596397   6.195730   7.287012   8.585926   8.041666
    30  C    7.244881   6.616458   7.524078   8.864453   8.673369
    31  H    8.315728   7.666393   8.538851   9.889920   9.747028
    32  H    6.879051   6.130789   6.826451   8.092192   8.189326
    33  H    7.264730   7.003611   8.167218   9.440800   8.702342
    34  H    5.843140   6.036929   7.380944   8.467451   7.173759
    35  H    4.046240   4.726391   6.116368   6.934081   5.167186
    36  H    2.176294   3.355939   4.585797   5.056164   2.936813
    37  H    2.191205   3.383997   3.811991   3.445517   1.085194
    38  H    3.456912   3.868347   3.357818   2.198610   2.127823
    39  H    5.087559   4.634156   3.356494   2.197857   4.331768
    40  H    6.162628   5.195876   3.816034   3.447948   5.919581
    41  H    6.933155   5.620123   4.596749   5.066829   7.271619
    42  H    8.175359   6.787559   6.157260   6.990831   8.860208
    43  H    8.906426   7.568933   7.363817   8.471194   9.892477
    44  H    7.829702   6.651918   6.898890   8.202330   9.045753
    45  H    5.488096   4.398071   4.887854   6.244979   6.751607
    46  H    7.441510   6.480627   7.020467   8.350339   8.760672
                    6          7          8          9         10
     6  C    0.000000
     7  C    3.703915   0.000000
     8  C    4.371628   1.396992   0.000000
     9  C    3.877693   2.388406   1.452710   0.000000
    10  C    2.656635   2.772433   2.492643   1.384955   0.000000
    11  C    4.609393   1.402358   2.516677   3.746179   4.154150
    12  C    5.931707   2.382862   2.907410   4.339886   5.084001
    13  C    6.397985   2.704131   2.455592   3.861899   4.930812
    14  C    5.749627   2.353670   1.406377   2.610888   3.842251
    15  C    3.835824   4.584527   5.931798   6.371684   5.735158
    16  C    4.917958   4.615876   6.005242   6.739862   6.373748
    17  C    5.102001   3.690680   5.035730   6.004789   5.930607
    18  C    4.173684   2.313607   3.682197   4.629100   4.615329
    19  C    7.824311   4.131750   3.764601   5.083620   6.256354
    20  C    7.056820   3.728349   4.350314   5.781668   6.479931
    21  C    8.326669   4.816815   5.137697   6.588180   7.471168
    22  C    8.649418   4.969106   4.897495   6.291084   7.369040
    23  C    6.226268   5.985450   7.367569   8.153931   7.796741
    24  C    7.357885   6.527367   7.861535   8.823562   8.650456
    25  C    7.504695   5.955023   7.194072   8.316128   8.363980
    26  C    6.509688   4.576011   5.781745   6.939867   7.078072
    27  C    7.098228   4.497799   5.462076   6.763135   7.163305
    28  C    8.574887   5.921523   6.770883   8.114651   8.596861
    29  C    8.888811   7.011443   8.147208   9.375929   9.563544
    30  C    9.361352   7.006801   7.979844   9.303147   9.677752
    31  H   10.422804   7.949915   8.853994  10.214931  10.657757
    32  H    8.701540   6.212017   7.027429   8.306191   8.755440
    33  H    9.642512   7.975293   9.148363  10.353444  10.481333
    34  H    8.321909   7.612378   8.944485   9.906769   9.712561
    35  H    6.458411   6.768402   8.156527   8.818707   8.316872
    36  H    4.299484   5.613785   6.934402   7.263929   6.498351
    37  H    2.127713   5.191892   6.172187   5.921972   4.771493
    38  H    1.085319   4.631029   5.099302   4.336445   2.977095
    39  H    2.974633   3.857225   3.458996   2.127435   1.085334
    40  H    4.771576   3.379710   2.192509   1.085335   2.126538
    41  H    6.509421   3.362466   2.176060   2.941559   4.305041
    42  H    8.373370   4.763360   4.096231   5.237028   6.524680
    43  H    9.715974   6.024599   5.854129   7.204425   8.343158
    44  H    9.206193   5.799653   6.196971   7.647141   8.493715
    45  H    7.061512   4.087657   4.932652   6.300901   6.831819
    46  H    9.144324   6.160726   6.824874   8.226550   8.868860
                   11         12         13         14         15
    11  C    0.000000
    12  C    1.385793   0.000000
    13  C    2.426009   1.455470   0.000000
    14  C    2.843488   2.514010   1.419512   0.000000
    15  C    4.274803   5.507501   6.695134   6.865450   0.000000
    16  C    3.887412   4.889817   6.227374   6.683498   1.414431
    17  C    2.671669   3.495666   4.878959   5.496419   2.529601
    18  C    1.482893   2.659819   3.886140   4.275215   2.848465
    19  C    3.709766   2.459500   1.427996   2.478069   7.939206
    20  C    2.475462   1.446757   2.525108   3.830122   5.895578
    21  C    3.720998   2.438789   2.852729   4.269444   7.284089
    22  C    4.188778   2.804660   2.442997   3.738217   8.175083
    23  C    5.123572   5.947220   7.347128   7.946668   2.451041
    24  C    5.442598   5.975837   7.406927   8.218992   3.715879
    25  C    4.705108   4.959562   6.369982   7.336243   4.277579
    26  C    3.297230   3.574231   4.988079   5.913622   3.840510
    27  C    3.150811   2.905446   4.166778   5.277006   5.009040
    28  C    4.582098   4.078675   5.148652   6.389117   6.275504
    29  C    5.670303   5.607902   6.939575   8.075216   5.720855
    30  C    5.626575   5.252853   6.433263   7.683457   6.564522
    31  H    6.560876   6.044922   7.127750   8.442736   7.622832
    32  H    4.973650   4.573164   5.540828   6.682106   6.444242
    33  H    6.648874   6.627475   7.974600   9.110014   6.253952
    34  H    6.515011   6.991286   8.422131   9.277005   4.577831
    35  H    6.035276   6.949182   8.328458   8.841763   2.643540
    36  H    5.359439   6.590221   7.779134   7.918378   1.085705
    37  H    5.661057   7.046635   7.838457   7.464639   2.909124
    38  H    5.638436   6.929844   7.284725   6.502255   4.723915
    39  H    5.238894   6.152998   5.914195   4.729440   6.486884
    40  H    4.671948   5.062625   4.310937   2.916497   7.451858
    41  H    3.927234   3.479830   2.156460   1.085716   7.913346
    42  H    4.586305   3.445597   2.169859   2.694963   8.845769
    43  H    5.273592   3.889502   3.421371   4.605585   9.226401
    44  H    4.618213   3.429185   3.932330   5.345975   7.817427
    45  H    2.751566   2.175353   3.434217   4.627979   5.449601
    46  H    4.855212   4.051091   4.893057   6.224823   7.150498
                   16         17         18         19         20
    16  C    0.000000
    17  C    1.461348   0.000000
    18  C    2.420968   1.393517   0.000000
    19  C    7.320065   5.899329   5.096993   0.000000
    20  C    4.969622   3.518968   3.225268   2.851518   0.000000
    21  C    6.312407   4.867307   4.612299   2.433186   1.396976
    22  C    7.343778   5.883597   5.372078   1.378248   2.441578
    23  C    1.429746   2.475055   3.718875   8.308637   5.738554
    24  C    2.446430   2.838228   4.228090   8.169354   5.450844
    25  C    2.865778   2.476831   3.782186   6.980034   4.237531
    26  C    2.528611   1.463651   2.525346   5.701887   3.041409
    27  C    3.817676   2.527101   3.025133   4.628505   2.129835
    28  C    4.979567   3.863730   4.518609   5.242199   2.990225
    29  C    4.308595   3.801386   4.992326   7.280551   4.575191
    30  C    5.166661   4.332997   5.287349   6.535961   4.057598
    31  H    6.217871   5.396547   6.317354   7.043964   4.744687
    32  H    5.206184   4.207712   4.869215   5.655712   3.723163
    33  H    4.874674   4.612713   5.875137   8.300546   5.569021
    34  H    3.426431   3.922789   5.311972   9.116507   6.361795
    35  H    2.164681   3.455251   4.580825   9.339872   6.803168
    36  H    2.151014   3.490740   3.932379   9.023481   6.932801
    37  H    4.297395   5.078846   4.686625   9.243419   7.888786
    38  H    5.900876   6.169785   5.258298   8.702228   8.100177
    39  H    7.258713   6.928037   5.644904   7.190386   7.557571
    40  H    7.814916   7.039185   5.665007   5.338991   6.495117
    41  H    7.761241   6.572866   5.357685   2.680923   4.679188
    42  H    8.305408   6.906579   6.024374   1.084568   3.935935
    43  H    8.348783   6.888437   6.440878   2.131164   3.412916
    44  H    6.721955   5.332840   5.314425   3.398276   2.154275
    45  H    4.428891   3.064906   3.055972   3.858819   1.092805
    46  H    5.899602   4.665670   5.096528   4.697549   2.849180
                   21         22         23         24         25
    21  C    0.000000
    22  C    1.409472   0.000000
    23  C    6.974423   8.139925   0.000000
    24  C    6.519689   7.783205   1.366983   0.000000
    25  C    5.196102   6.481121   2.431577   1.421148   0.000000
    26  C    4.181967   5.367670   2.856155   2.471420   1.427075
    27  C    3.040066   4.170624   4.244507   3.740589   2.456793
    28  C    3.301389   4.452826   5.057411   4.190217   2.802369
    29  C    5.190857   6.527600   3.740361   2.480572   1.447443
    30  C    4.358142   5.636973   4.857564   3.703590   2.431962
    31  H    4.764702   5.993757   5.828676   4.600246   3.428327
    32  H    4.036991   4.988499   5.243314   4.415582   3.178617
    33  H    6.135740   7.496796   4.035724   2.685147   2.175088
    34  H    7.334704   8.638319   2.127169   1.085255   2.163199
    35  H    8.052216   9.209977   1.085173   2.126533   3.412904
    36  H    8.313723   9.239817   2.636268   4.001238   4.853985
    37  H    9.260148   9.848986   5.293286   6.604006   7.146553
    38  H    9.345005   9.599340   7.155316   8.336778   8.548891
    39  H    8.522109   8.356406   8.668200   9.591104   9.375166
    40  H    7.139720   6.644271   9.224310   9.863013   9.301275
    41  H    4.870917   4.053025   9.023389   9.275502   8.355408
    42  H    3.413150   2.139216   9.335795   9.228401   8.045348
    43  H    2.155366   1.084888   9.073874   8.620236   7.270552
    44  H    1.084198   2.155850   7.190806   6.552103   5.180433
    45  H    2.126512   3.367428   5.073590   4.737889   3.575788
    46  H    2.681846   3.727324   6.080777   5.235990   3.826924
                   26         27         28         29         30
    26  C    0.000000
    27  C    1.422929   0.000000
    28  C    2.494258   1.500494   0.000000
    29  C    2.487304   2.878133   2.436261   0.000000
    30  C    2.873891   2.558200   1.493280   1.345450   0.000000
    31  H    3.941798   3.520067   2.245951   2.125583   1.085801
    32  H    2.946891   2.034927   1.107809   2.906057   2.106437
    33  H    3.434002   3.956325   3.443406   1.085559   2.122653
    34  H    3.444231   4.598900   4.776265   2.678962   3.997301
    35  H    3.940571   5.321992   6.092732   4.605934   5.801311
    36  H    4.674606   5.922770   7.095110   6.265588   7.239215
    37  H    6.508791   7.444164   8.835204   8.592393   9.337631
    38  H    7.582033   8.169835   9.641716   9.945194  10.434798
    39  H    8.115873   8.229433   9.660709  10.603121  10.742694
    40  H    7.905552   7.616557   8.904175  10.307355  10.149671
    41  H    6.938916   6.207435   7.212303   9.030061   8.548348
    42  H    6.758733   5.669233   6.227356   8.334062   7.544885
    43  H    6.258453   5.002460   5.021058   7.143463   6.124331
    44  H    4.419343   3.312317   3.144751   4.887721   3.928828
    45  H    2.525376   2.044137   2.929689   3.933089   3.635377
    46  H    3.387179   2.163162   1.089983   3.337777   2.162598
                   31         32         33         34         35
    31  H    0.000000
    32  H    2.765319   0.000000
    33  H    2.478155   3.858022   0.000000
    34  H    4.720040   4.952890   2.448910   0.000000
    35  H    6.724302   6.222821   4.719897   2.447807   0.000000
    36  H    8.273331   7.216957   6.654814   4.670305   2.362932
    37  H   10.411645   8.927417   9.161505   7.403736   5.184068
    38  H   11.499310   9.737620  10.681312   9.269464   7.288455
    39  H   11.729901   9.786405  11.508038  10.638669   9.109052
    40  H   11.021871   9.078403  11.304951  10.947280   9.898875
    41  H    9.247456   7.469884  10.073822  10.327156   9.918498
    42  H    8.006540   6.569054   9.356448  10.181231  10.355106
    43  H    6.307584   5.529748   8.064046   9.416262  10.152562
    44  H    4.118209   3.998146   5.730372   7.247183   8.265252
    45  H    4.358759   3.835993   4.843585   5.614578   6.124563
    46  H    2.492960   1.731335   4.260543   5.813041   7.132248
                   36         37         38         39         40
    36  H    0.000000
    37  H    2.826445   0.000000
    38  H    5.022983   2.420083   0.000000
    39  H    7.144706   5.068545   2.890088   0.000000
    40  H    8.332741   6.866949   5.069032   2.416051   0.000000
    41  H    8.955580   8.341773   7.156786   5.027387   2.834992
    42  H    9.929762   9.941667   9.174287   7.361603   5.270157
    43  H   10.284166  10.933481  10.653221   9.301315   7.458802
    44  H    8.799349   9.992816  10.245946   9.553313   8.211892
    45  H    6.433851   7.653704   8.128200   7.912680   7.103016
    46  H    8.027024   9.599825  10.206160   9.936143   8.920972
                   41         42         43         44         45
    41  H    0.000000
    42  H    2.440673   0.000000
    43  H    4.732279   2.454162   0.000000
    44  H    5.922133   4.284315   2.463008   0.000000
    45  H    5.542453   4.935602   4.250213   2.468997   0.000000
    46  H    6.935512   5.620465   4.132143   2.371565   3.023690
                   46
    46  H    0.000000
 Stoichiometry    C30H16
 Framework group  C1[X(C30H16)]
 Deg. of freedom   132
 Full point group                 C1      NOp   1
 Largest Abelian subgroup         C1      NOp   1
 Largest concise Abelian subgroup C1      NOp   1
                         Standard orientation:                         
 ---------------------------------------------------------------------
 Center     Atomic      Atomic             Coordinates (Angstroms)
 Number     Number       Type             X           Y           Z
 ---------------------------------------------------------------------
      1          6           0        1.495728   -2.877017   -0.124977
      2          6           0        1.382407   -1.488490   -0.188066
      3          6           0        2.507598   -0.664331   -0.079772
      4          6           0        3.804382   -1.084158    0.091194
      5          6           0        2.856389   -3.367858   -0.000729
      6          6           0        3.949190   -2.524977    0.104369
      7          6           0        2.071420    0.663332   -0.061924
      8          6           0        2.952451    1.731461    0.123741
      9          6           0        4.339378    1.328978    0.281246
     10          6           0        4.744489    0.004689    0.265609
     11          6           0        0.676026    0.706666   -0.194607
     12          6           0        0.079439    1.955667   -0.261702
     13          6           0        0.927268    3.113066   -0.016740
     14          6           0        2.329113    2.991290    0.170386
     15          6           0        0.260487   -3.547582   -0.143216
     16          6           0       -0.953751   -2.822171   -0.138850
     17          6           0       -1.013168   -1.362087   -0.126069
     18          6           0        0.209581   -0.700678   -0.222578
     19          6           0        0.288904    4.389876    0.020945
     20          6           0       -1.324903    2.114698   -0.570957
     21          6           0       -1.849059    3.409244   -0.601848
     22          6           0       -1.056281    4.520059   -0.249421
     23          6           0       -2.190273   -3.539232   -0.107049
     24          6           0       -3.397438   -2.900099   -0.053161
     25          6           0       -3.482465   -1.483593    0.023936
     26          6           0       -2.296943   -0.691541    0.085036
     27          6           0       -2.383940    0.648957    0.554317
     28          6           0       -3.750128    1.165407    0.898253
     29          6           0       -4.777164   -0.838762   -0.031194
     30          6           0       -4.922664    0.455742    0.305445
     31          1           0       -5.868829    0.973005    0.178264
     32          1           0       -3.781770    0.994223    1.992299
     33          1           0       -5.618193   -1.427442   -0.384131
     34          1           0       -4.316207   -3.477497   -0.069065
     35          1           0       -2.154175   -4.623501   -0.132698
     36          1           0        0.208741   -4.631978   -0.130471
     37          1           0        3.024091   -4.439590    0.029468
     38          1           0        4.934782   -2.965879    0.214506
     39          1           0        5.798675   -0.214326    0.402263
     40          1           0        5.092807    2.096162    0.428645
     41          1           0        2.903116    3.895133    0.350294
     42          1           0        0.888155    5.267702    0.236835
     43          1           0       -1.505362    5.507636   -0.249393
     44          1           0       -2.871132    3.572420   -0.924687
     45          1           0       -1.771989    1.385865   -1.251501
     46          1           0       -3.819140    2.248728    0.799680
 ---------------------------------------------------------------------
 Rotational constants (GHZ):           0.2318693           0.1743797           0.1010222
 Standard basis: 6-311+G(d,p) (5D, 7F)
 There are   786 symmetry adapted cartesian basis functions of A   symmetry.
 There are   756 symmetry adapted basis functions of A   symmetry.
   756 basis functions,  1208 primitive gaussians,   786 cartesian basis functions
    98 alpha electrons       98 beta electrons
       nuclear repulsion energy      2607.4679812474 Hartrees.
 NAtoms=   46 NActive=   46 NUniq=   46 SFac= 1.00D+00 NAtFMM=   60 NAOKFM=F Big=F
 Integral buffers will be    131072 words long.
 Raffenetti 2 integral format.
 Two-electron integral symmetry is turned on.
 One-electron integrals computed using PRISM.
 NBasis=   756 RedAO= T EigKep=  1.26D-06  NBF=   756
 NBsUse=   735 1.00D-06 EigRej=  8.91D-07 NBFU=   735
 ExpMin= 4.38D-02 ExpMax= 4.56D+03 ExpMxC= 6.82D+02 IAcc=2 IRadAn=         4 AccDes= 0.00D+00
 Harris functional with IExCor=  402 and IRadAn=       4 diagonalized for initial guess.
 HarFok:  IExCor=  402 AccDes= 0.00D+00 IRadAn=         4 IDoV= 1 UseB2=F ITyADJ=14
 ICtDFT=  3500011 ScaDFX=  1.000000  1.000000  1.000000  1.000000
 FoFCou: FMM=F IPFlag=           0 FMFlag=      100000 FMFlg1=           0
         NFxFlg=           0 DoJE=T BraDBF=F KetDBF=T FulRan=T
         wScrn=  0.000000 ICntrl=       500 IOpCl=  0 I1Cent=   200000004 NGrid=           0
         NMat0=    1 NMatS0=      1 NMatT0=    0 NMatD0=    1 NMtDS0=    0 NMtDT0=    0
 Petite list used in FoFCou.
 Requested convergence on RMS density matrix=1.00D-08 within 128 cycles.
 Requested convergence on MAX density matrix=1.00D-06.
 Requested convergence on             energy=1.00D-06.
 No special actions if energy rises.
 SCF Done:  E(RB3LYP) =  -1152.98658714     A.U. after   19 cycles
            NFock= 19  Conv=0.53D-08     -V/T= 2.0045

 **********************************************************************

            Population analysis using the SCF Density.

 **********************************************************************

 Orbital symmetries:
       Occupied  (A) (A) (A) (A) (A) (A) (A) (A) (A) (A) (A) (A)
                 (A) (A) (A) (A) (A) (A) (A) (A) (A) (A) (A) (A)
                 (A) (A) (A) (A) (A) (A) (A) (A) (A) (A) (A) (A)
                 (A) (A) (A) (A) (A) (A) (A) (A) (A) (A) (A) (A)
                 (A) (A) (A) (A) (A) (A) (A) (A) (A) (A) (A) (A)
                 (A) (A) (A) (A) (A) (A) (A) (A) (A) (A) (A) (A)
                 (A) (A) (A) (A) (A) (A) (A) (A) (A) (A) (A) (A)
                 (A) (A) (A) (A) (A) (A) (A) (A) (A) (A) (A) (A)
                 (A) (A)
       Virtual   (A) (A) (A) (A) (A) (A) (A) (A) (A) (A) (A) (A)
                 (A) (A) (A) (A) (A) (A) (A) (A) (A) (A) (A) (A)
                 (A) (A) (A) (A) (A) (A) (A) (A) (A) (A) (A) (A)
                 (A) (A) (A) (A) (A) (A) (A) (A) (A) (A) (A) (A)
                 (A) (A) (A) (A) (A) (A) (A) (A) (A) (A) (A) (A)
                 (A) (A) (A) (A) (A) (A) (A) (A) (A) (A) (A) (A)
                 (A) (A) (A) (A) (A) (A) (A) (A) (A) (A) (A) (A)
                 (A) (A) (A) (A) (A) (A) (A) (A) (A) (A) (A) (A)
                 (A) (A) (A) (A) (A) (A) (A) (A) (A) (A) (A) (A)
                 (A) (A) (A) (A) (A) (A) (A) (A) (A) (A) (A) (A)
                 (A) (A) (A) (A) (A) (A) (A) (A) (A) (A) (A) (A)
                 (A) (A) (A) (A) (A) (A) (A) (A) (A) (A) (A) (A)
                 (A) (A) (A) (A) (A) (A) (A) (A) (A) (A) (A) (A)
                 (A) (A) (A) (A) (A) (A) (A) (A) (A) (A) (A) (A)
                 (A) (A) (A) (A) (A) (A) (A) (A) (A) (A) (A) (A)
                 (A) (A) (A) (A) (A) (A) (A) (A) (A) (A) (A) (A)
                 (A) (A) (A) (A) (A) (A) (A) (A) (A) (A) (A) (A)
                 (A) (A) (A) (A) (A) (A) (A) (A) (A) (A) (A) (A)
                 (A) (A) (A) (A) (A) (A) (A) (A) (A) (A) (A) (A)
                 (A) (A) (A) (A) (A) (A) (A) (A) (A) (A) (A) (A)
                 (A) (A) (A) (A) (A) (A) (A) (A) (A) (A) (A) (A)
                 (A) (A) (A) (A) (A) (A) (A) (A) (A) (A) (A) (A)
                 (A) (A) (A) (A) (A) (A) (A) (A) (A) (A) (A) (A)
                 (A) (A) (A) (A) (A) (A) (A) (A) (A) (A) (A) (A)
                 (A) (A) (A) (A) (A) (A) (A) (A) (A) (A) (A) (A)
                 (A) (A) (A) (A) (A) (A) (A) (A) (A) (A) (A) (A)
                 (A) (A) (A) (A) (A) (A) (A) (A) (A) (A) (A) (A)
                 (A) (A) (A) (A) (A) (A) (A) (A) (A) (A) (A) (A)
                 (A) (A) (A) (A) (A) (A) (A) (A) (A) (A) (A) (A)
                 (A) (A) (A) (A) (A) (A) (A) (A) (A) (A) (A) (A)
                 (A) (A) (A) (A) (A) (A) (A) (A) (A) (A) (A) (A)
                 (A) (A) (A) (A) (A) (A) (A) (A) (A) (A) (A) (A)
                 (A) (A) (A) (A) (A) (A) (A) (A) (A) (A) (A) (A)
                 (A) (A) (A) (A) (A) (A) (A) (A) (A) (A) (A) (A)
                 (A) (A) (A) (A) (A) (A) (A) (A) (A) (A) (A) (A)
                 (A) (A) (A) (A) (A) (A) (A) (A) (A) (A) (A) (A)
                 (A) (A) (A) (A) (A) (A) (A) (A) (A) (A) (A) (A)
                 (A) (A) (A) (A) (A) (A) (A) (A) (A) (A) (A) (A)
                 (A) (A) (A) (A) (A) (A) (A) (A) (A) (A) (A) (A)
                 (A) (A) (A) (A) (A) (A) (A) (A) (A) (A) (A) (A)
                 (A) (A) (A) (A) (A) (A) (A) (A) (A) (A) (A) (A)
                 (A) (A) (A) (A) (A) (A) (A) (A) (A) (A) (A) (A)
                 (A) (A) (A) (A) (A) (A) (A) (A) (A) (A) (A) (A)
                 (A) (A) (A) (A) (A) (A) (A) (A) (A) (A) (A) (A)
                 (A) (A) (A) (A) (A) (A) (A) (A) (A) (A) (A) (A)
                 (A) (A) (A) (A) (A) (A) (A) (A) (A) (A) (A) (A)
                 (A) (A) (A) (A) (A) (A) (A) (A) (A) (A) (A) (A)
                 (A) (A) (A) (A) (A) (A) (A) (A) (A) (A) (A) (A)
                 (A) (A) (A) (A) (A) (A) (A) (A) (A) (A) (A) (A)
                 (A) (A) (A) (A) (A) (A) (A) (A) (A) (A) (A) (A)
                 (A) (A) (A) (A) (A) (A) (A) (A) (A) (A) (A) (A)
                 (A) (A) (A) (A) (A) (A) (A) (A) (A) (A) (A) (A)
                 (A) (A) (A) (A) (A) (A) (A) (A) (A) (A) (A) (A)
                 (A)
 The electronic state is 1-A.
 Alpha  occ. eigenvalues --  -10.20333 -10.20262 -10.20018 -10.19491 -10.19357
 Alpha  occ. eigenvalues --  -10.19332 -10.19330 -10.19327 -10.19298 -10.19293
 Alpha  occ. eigenvalues --  -10.19254 -10.19091 -10.19084 -10.19016 -10.18991
 Alpha  occ. eigenvalues --  -10.18968 -10.18917 -10.18751 -10.18730 -10.18675
 Alpha  occ. eigenvalues --  -10.18533 -10.18447 -10.18224 -10.18104 -10.17784
 Alpha  occ. eigenvalues --  -10.17650 -10.17510 -10.17165 -10.16686 -10.16504
 Alpha  occ. eigenvalues --   -0.92040  -0.88623  -0.87383  -0.85235  -0.83612
 Alpha  occ. eigenvalues --   -0.83047  -0.80291  -0.79235  -0.77762  -0.76976
 Alpha  occ. eigenvalues --   -0.75259  -0.74411  -0.72507  -0.71549  -0.70990
 Alpha  occ. eigenvalues --   -0.66568  -0.64941  -0.63854  -0.63063  -0.62575
 Alpha  occ. eigenvalues --   -0.59469  -0.59117  -0.58703  -0.56202  -0.55579
 Alpha  occ. eigenvalues --   -0.53044  -0.52067  -0.51505  -0.50630  -0.49555
 Alpha  occ. eigenvalues --   -0.48732  -0.47591  -0.47415  -0.45916  -0.45328
 Alpha  occ. eigenvalues --   -0.44809  -0.44359  -0.43780  -0.43583  -0.42988
 Alpha  occ. eigenvalues --   -0.42515  -0.41999  -0.41419  -0.40445  -0.40398
 Alpha  occ. eigenvalues --   -0.40027  -0.39676  -0.39059  -0.38862  -0.37768
 Alpha  occ. eigenvalues --   -0.36760  -0.35756  -0.35270  -0.35008  -0.34358
 Alpha  occ. eigenvalues --   -0.34038  -0.33546  -0.32743  -0.32128  -0.29978
 Alpha  occ. eigenvalues --   -0.29534  -0.27876  -0.27614  -0.24600  -0.22650
 Alpha  occ. eigenvalues --   -0.22151  -0.21452  -0.17116
 Alpha virt. eigenvalues --   -0.10458  -0.09481  -0.05180  -0.03177  -0.01681
 Alpha virt. eigenvalues --   -0.00837  -0.00036   0.00520   0.00722   0.00890
 Alpha virt. eigenvalues --    0.01576   0.01657   0.01807   0.02706   0.02841
 Alpha virt. eigenvalues --    0.03013   0.03109   0.03961   0.04148   0.04425
 Alpha virt. eigenvalues --    0.04691   0.04730   0.04824   0.05500   0.05701
 Alpha virt. eigenvalues --    0.06599   0.06769   0.07186   0.07341   0.07547
 Alpha virt. eigenvalues --    0.07926   0.08530   0.08876   0.09318   0.09536
 Alpha virt. eigenvalues --    0.09657   0.09877   0.09986   0.10782   0.11409
 Alpha virt. eigenvalues --    0.11629   0.11708   0.12008   0.12194   0.12593
 Alpha virt. eigenvalues --    0.12695   0.12825   0.13324   0.14023   0.14475
 Alpha virt. eigenvalues --    0.14696   0.15047   0.15111   0.15510   0.15847
 Alpha virt. eigenvalues --    0.15936   0.16081   0.16187   0.16528   0.16758
 Alpha virt. eigenvalues --    0.16887   0.17053   0.17436   0.17568   0.17989
 Alpha virt. eigenvalues --    0.18394   0.18637   0.18789   0.19148   0.19190
 Alpha virt. eigenvalues --    0.19320   0.19523   0.19865   0.19899   0.20191
 Alpha virt. eigenvalues --    0.20353   0.20485   0.20716   0.20812   0.21035
 Alpha virt. eigenvalues --    0.21336   0.21526   0.21624   0.22000   0.22101
 Alpha virt. eigenvalues --    0.22413   0.22440   0.22911   0.22990   0.23283
 Alpha virt. eigenvalues --    0.23605   0.23774   0.24027   0.24075   0.24301
 Alpha virt. eigenvalues --    0.24541   0.24885   0.25100   0.25488   0.25825
 Alpha virt. eigenvalues --    0.25948   0.26063   0.26250   0.26545   0.26666
 Alpha virt. eigenvalues --    0.26910   0.27050   0.27130   0.27512   0.27725
 Alpha virt. eigenvalues --    0.28288   0.28645   0.28814   0.28916   0.29381
 Alpha virt. eigenvalues --    0.29525   0.29762   0.30153   0.30434   0.30607
 Alpha virt. eigenvalues --    0.30950   0.31300   0.31597   0.31818   0.32075
 Alpha virt. eigenvalues --    0.32644   0.32998   0.33166   0.33726   0.33799
 Alpha virt. eigenvalues --    0.34113   0.34746   0.34916   0.35371   0.36099
 Alpha virt. eigenvalues --    0.36373   0.36863   0.37112   0.37297   0.37686
 Alpha virt. eigenvalues --    0.38511   0.38962   0.39723   0.39969   0.40896
 Alpha virt. eigenvalues --    0.41251   0.41768   0.42647   0.42768   0.43196
 Alpha virt. eigenvalues --    0.43562   0.43814   0.44385   0.45692   0.46262
 Alpha virt. eigenvalues --    0.46921   0.47277   0.47485   0.47860   0.49289
 Alpha virt. eigenvalues --    0.49809   0.50499   0.51353   0.51479   0.51931
 Alpha virt. eigenvalues --    0.52162   0.53068   0.53207   0.53504   0.53938
 Alpha virt. eigenvalues --    0.54100   0.54681   0.54990   0.55584   0.56257
 Alpha virt. eigenvalues --    0.56608   0.56811   0.57330   0.57507   0.58195
 Alpha virt. eigenvalues --    0.58613   0.58690   0.58722   0.59052   0.59279
 Alpha virt. eigenvalues --    0.59940   0.60237   0.60596   0.60965   0.61289
 Alpha virt. eigenvalues --    0.61688   0.62287   0.62538   0.62776   0.63162
 Alpha virt. eigenvalues --    0.64172   0.64742   0.64811   0.65173   0.65321
 Alpha virt. eigenvalues --    0.65807   0.66338   0.66945   0.67179   0.67322
 Alpha virt. eigenvalues --    0.68099   0.68643   0.68935   0.69304   0.69475
 Alpha virt. eigenvalues --    0.70051   0.70178   0.70487   0.71327   0.71517
 Alpha virt. eigenvalues --    0.71728   0.72122   0.72508   0.72744   0.73117
 Alpha virt. eigenvalues --    0.73204   0.73612   0.74080   0.74565   0.74811
 Alpha virt. eigenvalues --    0.75166   0.75429   0.75533   0.75986   0.76737
 Alpha virt. eigenvalues --    0.77238   0.77657   0.77783   0.78592   0.79014
 Alpha virt. eigenvalues --    0.79352   0.79774   0.80459   0.81425   0.82697
 Alpha virt. eigenvalues --    0.83474   0.83666   0.84658   0.84859   0.85261
 Alpha virt. eigenvalues --    0.86215   0.87236   0.87770   0.87914   0.88621
 Alpha virt. eigenvalues --    0.89190   0.89760   0.89997   0.90403   0.91042
 Alpha virt. eigenvalues --    0.91325   0.92318   0.92470   0.93085   0.93508
 Alpha virt. eigenvalues --    0.94336   0.94436   0.94676   0.95691   0.96047
 Alpha virt. eigenvalues --    0.96305   0.96476   0.96764   0.97172   0.97271
 Alpha virt. eigenvalues --    0.97738   0.98148   0.98395   0.98915   0.99884
 Alpha virt. eigenvalues --    1.00128   1.00899   1.01047   1.02068   1.02715
 Alpha virt. eigenvalues --    1.03042   1.03424   1.04384   1.04861   1.05417
 Alpha virt. eigenvalues --    1.05631   1.06425   1.06669   1.07311   1.07676
 Alpha virt. eigenvalues --    1.08099   1.08628   1.09230   1.09904   1.10895
 Alpha virt. eigenvalues --    1.11985   1.12723   1.12986   1.14246   1.15047
 Alpha virt. eigenvalues --    1.15614   1.16339   1.16863   1.17579   1.17729
 Alpha virt. eigenvalues --    1.18465   1.19687   1.21054   1.21893   1.22960
 Alpha virt. eigenvalues --    1.22992   1.24929   1.26032   1.29909   1.31294
 Alpha virt. eigenvalues --    1.32712   1.34338   1.34845   1.35037   1.36679
 Alpha virt. eigenvalues --    1.37277   1.39088   1.40328   1.40794   1.41470
 Alpha virt. eigenvalues --    1.42073   1.43009   1.44789   1.45516   1.46317
 Alpha virt. eigenvalues --    1.46547   1.47367   1.47601   1.47843   1.48964
 Alpha virt. eigenvalues --    1.49306   1.49567   1.50589   1.50874   1.51452
 Alpha virt. eigenvalues --    1.51744   1.52279   1.52623   1.53501   1.53856
 Alpha virt. eigenvalues --    1.55267   1.55985   1.56731   1.57265   1.57867
 Alpha virt. eigenvalues --    1.58458   1.59628   1.60242   1.60427   1.61048
 Alpha virt. eigenvalues --    1.62023   1.62750   1.63904   1.64330   1.64949
 Alpha virt. eigenvalues --    1.65635   1.66463   1.67642   1.68532   1.69180
 Alpha virt. eigenvalues --    1.69490   1.70215   1.70633   1.72147   1.73256
 Alpha virt. eigenvalues --    1.73455   1.73795   1.74650   1.75098   1.75228
 Alpha virt. eigenvalues --    1.75756   1.76636   1.76863   1.77168   1.78199
 Alpha virt. eigenvalues --    1.79144   1.79466   1.81325   1.81841   1.82435
 Alpha virt. eigenvalues --    1.83239   1.83675   1.84123   1.84342   1.84998
 Alpha virt. eigenvalues --    1.85968   1.86183   1.87441   1.87862   1.88285
 Alpha virt. eigenvalues --    1.88767   1.89183   1.89723   1.90438   1.90604
 Alpha virt. eigenvalues --    1.90794   1.92047   1.92139   1.93579   1.94029
 Alpha virt. eigenvalues --    1.94357   1.94709   1.95563   1.96111   1.97499
 Alpha virt. eigenvalues --    1.97721   1.98142   1.99239   1.99733   2.00733
 Alpha virt. eigenvalues --    2.01105   2.01593   2.02677   2.04146   2.04603
 Alpha virt. eigenvalues --    2.04934   2.05871   2.06207   2.07440   2.07584
 Alpha virt. eigenvalues --    2.08837   2.09589   2.10695   2.11261   2.11864
 Alpha virt. eigenvalues --    2.12638   2.13423   2.14431   2.15141   2.15349
 Alpha virt. eigenvalues --    2.17463   2.18690   2.19578   2.20481   2.20742
 Alpha virt. eigenvalues --    2.21363   2.21730   2.22531   2.23485   2.24994
 Alpha virt. eigenvalues --    2.25753   2.26453   2.27220   2.27683   2.30466
 Alpha virt. eigenvalues --    2.31405   2.33075   2.33985   2.36048   2.36713
 Alpha virt. eigenvalues --    2.38618   2.39469   2.41080   2.42258   2.43657
 Alpha virt. eigenvalues --    2.43940   2.44412   2.45549   2.46201   2.46688
 Alpha virt. eigenvalues --    2.47898   2.48823   2.50487   2.52715   2.54170
 Alpha virt. eigenvalues --    2.55111   2.56187   2.57580   2.58438   2.59003
 Alpha virt. eigenvalues --    2.60438   2.60621   2.62711   2.63400   2.63903
 Alpha virt. eigenvalues --    2.64993   2.66298   2.67048   2.67986   2.68547
 Alpha virt. eigenvalues --    2.69422   2.70020   2.71611   2.72069   2.72517
 Alpha virt. eigenvalues --    2.73050   2.73302   2.74227   2.74509   2.74623
 Alpha virt. eigenvalues --    2.74849   2.76021   2.76417   2.76923   2.77162
 Alpha virt. eigenvalues --    2.77667   2.77905   2.78169   2.78476   2.79142
 Alpha virt. eigenvalues --    2.80105   2.80169   2.81699   2.82398   2.82675
 Alpha virt. eigenvalues --    2.83115   2.83938   2.85101   2.85448   2.85644
 Alpha virt. eigenvalues --    2.86396   2.88071   2.89467   2.89567   2.90448
 Alpha virt. eigenvalues --    2.91391   2.92154   2.93422   2.93680   2.94335
 Alpha virt. eigenvalues --    2.97411   2.98583   3.00891   3.01458   3.01900
 Alpha virt. eigenvalues --    3.03702   3.04412   3.06380   3.06937   3.09433
 Alpha virt. eigenvalues --    3.12145   3.13208   3.13808   3.14420   3.16046
 Alpha virt. eigenvalues --    3.17274   3.19667   3.20057   3.21438   3.21981
 Alpha virt. eigenvalues --    3.22622   3.23530   3.25536   3.26863   3.29459
 Alpha virt. eigenvalues --    3.30598   3.33469   3.34567   3.36921   3.37466
 Alpha virt. eigenvalues --    3.37896   3.38774   3.41135   3.41968   3.43525
 Alpha virt. eigenvalues --    3.44759   3.45570   3.47751   3.48516   3.49048
 Alpha virt. eigenvalues --    3.49775   3.50831   3.51412   3.54538   3.56175
 Alpha virt. eigenvalues --    3.57013   3.58160   3.60403   3.63084   3.65923
 Alpha virt. eigenvalues --    3.68886   3.70446   3.71182   3.78562   3.83055
 Alpha virt. eigenvalues --    3.83698   3.88169   3.89719   3.96575   4.02754
 Alpha virt. eigenvalues --    4.03757   4.06162   4.06970   4.07045   4.08371
 Alpha virt. eigenvalues --    4.10989   4.12713   4.17812   4.20854   4.24509
 Alpha virt. eigenvalues --    4.28807   4.33954   4.49183   4.62851   4.66813
 Alpha virt. eigenvalues --    4.75117   4.77938   4.79207   4.79654   4.82579
 Alpha virt. eigenvalues --    4.87115   4.88662  23.40830  23.62194  23.69659
 Alpha virt. eigenvalues --   23.77921  23.81597  23.82497  23.84769  23.85787
 Alpha virt. eigenvalues --   23.89159  23.89960  23.91643  23.93903  23.96499
 Alpha virt. eigenvalues --   23.96766  23.98802  23.99364  23.99746  24.04291
 Alpha virt. eigenvalues --   24.06496  24.07214  24.08398  24.10637  24.11822
 Alpha virt. eigenvalues --   24.12592  24.12775  24.16682  24.17009  24.18151
 Alpha virt. eigenvalues --   24.21562  24.22248
          Condensed to atoms (all electrons):
               1          2          3          4          5          6
     1  C    9.306358   1.075727   0.120731   0.437478  -0.644603  -0.847663
     2  C    1.075727   7.565748  -0.129994   0.441665  -0.010498   1.176703
     3  C    0.120731  -0.129994   7.762756   0.866856   0.598067  -1.372663
     4  C    0.437478   0.441665   0.866856  10.423491  -1.193370  -1.694947
     5  C   -0.644603  -0.010498   0.598067  -1.193370   9.183522   1.094446
     6  C   -0.847663   1.176703  -1.372663  -1.694947   1.094446  10.554665
     7  C    0.031598  -0.419535   0.346295   0.493268  -0.389807  -1.099248
     8  C   -0.091394   0.200195  -0.212857   0.224201  -0.268722   0.496766
     9  C   -0.072542  -0.796323   1.534771  -1.460028   0.152998  -0.661082
    10  C    0.139672  -0.999364  -0.632800  -1.673774  -0.397511  -1.154012
    11  C   -0.198595   0.154128  -0.523898   0.473159  -0.354341   0.074145
    12  C   -0.144221  -0.185877  -0.161894   0.043936  -0.057522  -0.141758
    13  C    0.125578  -0.318787  -0.093669  -0.429309  -0.083748  -0.124931
    14  C   -0.004435   0.002980  -0.743046  -0.230262  -0.117892   0.225927
    15  C    1.341217   0.326852  -0.120085  -0.393879  -0.267886   0.130966
    16  C   -1.080172  -0.505417  -0.192989  -0.468425  -0.149100  -0.061502
    17  C   -0.490811   0.339758  -0.157922  -0.115749  -0.242716   0.164816
    18  C    0.439117   0.081844  -0.396951   0.355083  -0.509372  -0.496009
    19  C    0.077388   0.042132   0.102416  -0.057399  -0.005729   0.016029
    20  C    0.162755   0.246285  -0.359660   0.076266   0.029923   0.009120
    21  C   -0.043533   0.088551  -0.026970   0.000105   0.007502  -0.015434
    22  C   -0.003504  -0.049791  -0.038623  -0.023932  -0.005115   0.000291
    23  C   -1.729218  -0.798831  -0.050542  -0.119249  -0.241521  -0.182904
    24  C    0.030567  -0.121727   0.000083  -0.011469  -0.203274   0.003114
    25  C   -0.346878  -0.451804   0.029482  -0.074229   0.010062   0.003507
    26  C   -1.162599  -0.254359  -0.229092  -0.000952  -0.026823  -0.186634
    27  C   -0.281142  -0.382563   0.017910  -0.021060   0.045922  -0.051797
    28  C    0.022148  -0.080736   0.015237   0.004763   0.020626  -0.003074
    29  C   -0.155560  -0.324499  -0.005076  -0.009241   0.005704  -0.003036
    30  C   -0.014167   0.022036   0.003476   0.000798  -0.008114   0.001235
    31  H    0.000062   0.000027   0.000027   0.000002   0.000002  -0.000000
    32  H    0.000202   0.001369   0.000242   0.000062   0.000001  -0.000004
    33  H    0.000227   0.000015  -0.000027  -0.000004   0.000016   0.000001
    34  H   -0.000149   0.000925  -0.000057   0.000024  -0.000025  -0.000007
    35  H    0.057528   0.008317   0.001164   0.000371   0.008587   0.001054
    36  H   -0.047432   0.029029  -0.009116   0.006087   0.006104   0.005100
    37  H   -0.096571   0.018502  -0.008063  -0.046204   0.381065   0.009105
    38  H    0.010804   0.000965   0.033028  -0.110380   0.033710   0.381436
    39  H    0.003658  -0.012662   0.034381  -0.094256   0.001716  -0.001709
    40  H    0.001403  -0.002596  -0.014521  -0.044005  -0.001880   0.002009
    41  H   -0.000146   0.003302  -0.006496   0.008631   0.000148  -0.000016
    42  H    0.000024  -0.000299   0.000945  -0.000229   0.000006  -0.000037
    43  H   -0.000001   0.000056   0.000074   0.000063   0.000001   0.000003
    44  H   -0.000025  -0.000601  -0.000263   0.000097  -0.000008   0.000010
    45  H   -0.003077  -0.007424  -0.003328  -0.001316   0.000180  -0.000590
    46  H   -0.000151  -0.000400   0.000216  -0.000024   0.000001  -0.000006
               7          8          9         10         11         12
     1  C    0.031598  -0.091394  -0.072542   0.139672  -0.198595  -0.144221
     2  C   -0.419535   0.200195  -0.796323  -0.999364   0.154128  -0.185877
     3  C    0.346295  -0.212857   1.534771  -0.632800  -0.523898  -0.161894
     4  C    0.493268   0.224201  -1.460028  -1.673774   0.473159   0.043936
     5  C   -0.389807  -0.268722   0.152998  -0.397511  -0.354341  -0.057522
     6  C   -1.099248   0.496766  -0.661082  -1.154012   0.074145  -0.141758
     7  C    7.023604   0.169863   0.298696   1.031255  -0.026102   0.286531
     8  C    0.169863  10.023690  -0.668532  -1.496458   0.156339  -1.447812
     9  C    0.298696  -0.668532  11.169984   1.963312  -1.260034  -0.822447
    10  C    1.031255  -1.496458   1.963312  10.845147  -0.681468  -0.023501
    11  C   -0.026102   0.156339  -1.260034  -0.681468   8.303934   1.395721
    12  C    0.286531  -1.447812  -0.822447  -0.023501   1.395721   8.668407
    13  C   -0.579520   0.350203  -0.196262  -0.181199   0.083510  -0.661698
    14  C    0.154193   0.965011  -1.701002  -0.088296   0.885497   0.387726
    15  C   -0.113346  -0.008559  -0.108459  -0.021393  -0.152147  -0.092537
    16  C   -0.474802   0.063236  -0.119794  -0.189086  -0.658018  -0.463437
    17  C   -0.225760  -0.333042  -0.290223  -0.121651   0.323016   0.080941
    18  C    0.042010  -0.415611  -0.564689   0.153972  -0.473845   0.330365
    19  C   -0.601759  -0.940545  -0.114672  -0.227202  -0.849188  -0.580932
    20  C   -0.215059  -1.205178  -0.261553  -0.231108  -1.083184   0.133908
    21  C    0.116171   0.169466   0.057721   0.000471  -0.334534  -1.528862
    22  C   -0.193654  -0.368196  -0.111575  -0.000453  -0.179563   0.526528
    23  C    0.006913   0.080827  -0.003338   0.000116   0.421086   0.119852
    24  C   -0.058984   0.013667  -0.006438   0.003197   0.132208  -0.064687
    25  C    0.014603  -0.019041  -0.013439  -0.012419  -0.350241  -0.224291
    26  C    0.048043   0.088037   0.000631   0.009300   0.559951   0.250311
    27  C    0.194836   0.105006   0.026124   0.042767   0.447578   0.189836
    28  C    0.126381   0.029032   0.002938   0.005998  -0.170028  -0.069122
    29  C    0.020569  -0.002383  -0.004193   0.000993  -0.052155  -0.007223
    30  C   -0.002571   0.004992   0.001706  -0.000584   0.011659   0.036326
    31  H   -0.000038   0.000024   0.000000   0.000000   0.000841   0.000350
    32  H   -0.000404   0.000598   0.000038   0.000014   0.006789  -0.002279
    33  H    0.000014  -0.000009   0.000000  -0.000000  -0.000968  -0.000760
    34  H    0.000040   0.000006   0.000001   0.000001   0.000715   0.000647
    35  H   -0.000382  -0.000020  -0.000001   0.000018  -0.000685  -0.000656
    36  H    0.002694  -0.000140   0.000229  -0.000353   0.002716   0.000243
    37  H   -0.003827   0.002693  -0.002060   0.001461   0.000798  -0.000611
    38  H   -0.014862   0.003551  -0.002168  -0.010838   0.001313  -0.000113
    39  H    0.000237   0.007390   0.027646   0.365208   0.002047   0.000256
    40  H    0.019060  -0.078056   0.365039  -0.005391  -0.009337   0.004697
    41  H    0.023954  -0.038206   0.029308   0.004865  -0.013843  -0.010625
    42  H    0.003718   0.039415   0.008659   0.000961  -0.007682   0.004435
    43  H    0.002671   0.002350   0.000206  -0.000004   0.001535   0.009557
    44  H    0.003664  -0.002443  -0.000148   0.000002  -0.009130   0.068034
    45  H    0.003444   0.012436   0.001440   0.000631  -0.007292  -0.016014
    46  H    0.000304   0.001122   0.000082   0.000011   0.002870  -0.000590
              13         14         15         16         17         18
     1  C    0.125578  -0.004435   1.341217  -1.080172  -0.490811   0.439117
     2  C   -0.318787   0.002980   0.326852  -0.505417   0.339758   0.081844
     3  C   -0.093669  -0.743046  -0.120085  -0.192989  -0.157922  -0.396951
     4  C   -0.429309  -0.230262  -0.393879  -0.468425  -0.115749   0.355083
[...]
 0576,-0.00000955,0.00000341,0.00001180,0.00000877,-0.00001956,0.000027
 86,-0.00000296,0.00003848,-0.00000861,-0.00004375,0.00011562,0.0000496
 7,0.00018060,-0.00041561,0.00000675,-0.00000264,0.00003767,-0.00000833
 ,0.00002271,0.00000720,-0.00000195,-0.00003454,-0.00001890,-0.00000030
 ,-0.00000217,0.00000685,-0.00000677,0.00000384,0.00001080,0.00000099,0
 .00000424,-0.00000092,0.00000283,0.00000162,-0.00000504,0.00000029,0.0
 0000385,0.00000109,0.00000060,0.00000403,-0.00000112,-0.00000023,0.000
 00436,-0.00000014,-0.00000347,0.00000266,-0.00000095,-0.00000706,0.000
 02048,-0.00000523,-0.00001087,-0.00000889,-0.00000264,-0.00002737,-0.0
 0004102,-0.00007474,0.00070491,-0.00048996,0.00117417,0.10781930,0.000
 01169,-0.00001502,-0.00000022,-0.00000139,0.00002381,-0.00000627,0.000
 00535,-0.00002856,0.00000124,0.00000482,-0.00004354,-0.00000201,-0.000
 04720,0.00001256,-0.00000597,0.00002513,0.00004828,0.00000404,-0.00008
 165,-0.00000861,-0.00002182,0.00007188,0.00013061,0.00008719,0.0000192
 3,-0.00003314,0.00001011,0.00002339,0.00004082,0.00000017,0.00010151,-
 0.00002261,0.00009228,-0.00058105,0.00046859,-0.00003090,-0.00011439,0
 .00185534,-0.00050100,0.00007898,-0.00024762,-0.00003935,-0.00001460,0
 .00001354,-0.00000161,0.00000184,-0.00000061,0.00000012,-0.00006023,-0
 .00001945,-0.00002466,0.00002601,0.00002477,-0.00001302,-0.00074794,0.
 00017045,-0.00046126,-0.00340239,-0.00172712,-0.00244781,0.01210969,-0
 .01850343,0.00136940,0.10433692,-0.28553744,-0.00347266,-0.00007172,-0
 .00008920,-0.00000038,0.00008975,0.00000555,0.00000200,0.00007129,-0.0
 0000667,0.00007207,0.00001600,-0.00005049,0.00003422,0.00030199,0.0002
 9171,-0.00049425,-0.00007178,0.00007211,0.00024477,0.00000984,0.000073
 33,0.00003736,-0.00006367,-0.00001675,-0.00010114,-0.00001672,0.000011
 43,-0.00004345,-0.00003270,-0.00003285,0.00001772,-0.00001060,0.000000
 24,-0.00001183,-0.00000941,-0.00000868,-0.00000771,0.00000410,-0.00000
 284,0.00000002,-0.00000172,-0.00000390,0.00000030,0.00000102,-0.000007
 05,0.00000076,0.00000743,-0.00000157,0.00000124,0.00000719,-0.00000289
 ,-0.00000101,0.00000833,0.00000494,0.00000142,0.00001769,0.00000808,-0
 .00001870,0.00018364,0.00082950,0.00051106,-0.11209040,0.30265673,0.00
 001288,-0.00006842,0.00001435,-0.00003644,0.00007022,0.00001877,-0.000
 00721,0.00006239,0.00001120,0.00006567,-0.00009306,-0.00001869,-0.0000
 3858,-0.00001266,-0.00000908,0.00000972,0.00008844,-0.00000666,-0.0000
 3001,-0.00017851,0.00012651,-0.00004364,0.00033508,-0.00074981,0.00010
 031,0.00000776,-0.00008445,-0.00005660,0.00004203,0.00005507,0.0000524
 0,0.00018552,-0.00049033,-0.00008044,-0.00023078,-0.00063286,-0.003043
 79,-0.00017024,0.00763498,0.00027858,0.00016325,0.00035879,0.00001044,
 0.00004986,-0.00000935,-0.00003195,-0.00008108,-0.00000423,0.00007676,
 0.00003436,-0.00003644,-0.00003339,-0.00006091,0.00000946,-0.00093482,
 0.00591033,0.00419784,-0.00214434,-0.00233234,0.00552862,0.00309903,-0
 .00586034,0.00322202,-0.00653636,-0.00370679,-0.03935753,0.00005760,-0
 .00005548,0.00000529,-0.00001686,0.00013907,-0.00005228,-0.00009481,-0
 .00020450,0.00005713,-0.00011139,0.00014221,0.00035420,0.00039766,0.00
 005868,-0.00106175,0.00005917,0.00006506,0.00009491,0.00003137,-0.0000
 0301,-0.00000070,0.00001662,-0.00003777,-0.00005307,0.00000805,0.00000
 734,0.00002926,-0.00003245,0.00006030,0.00002779,-0.00000573,-0.000001
 55,0.00000042,-0.00000222,-0.00000095,-0.00000822,0.00000588,0.0000032
 2,0.00000639,-0.00000027,0.00000394,0.00000200,-0.00000381,0.00000134,
 -0.00000185,0.00000148,0.00000082,0.00000355,-0.00000259,0.00000376,0.
 00001910,-0.00000622,-0.00000119,-0.00000011,-0.00004292,-0.00004315,0
 .00022505,0.00115830,0.00049932,-0.00440561,0.00690732,0.00450008,0.02
 760722,0.00007009,0.00004665,-0.00000213,-0.00005510,0.00006563,-0.000
 01100,-0.00005705,-0.00002290,0.00003446,-0.00009919,-0.00006156,-0.00
 001123,-0.00006704,0.00003607,-0.00000291,0.00005064,0.00003879,0.0000
 0792,0.00003297,0.00029296,0.00015528,-0.00011940,0.00008920,-0.000042
 62,0.00016763,-0.00006921,-0.00001468,0.00000687,0.00016493,0.00000999
 ,-0.00068192,-0.00051034,-0.00022570,0.00168217,0.00255513,-0.00131201
 ,0.00023575,0.00011626,0.00026826,0.00010543,-0.00009910,0.00022167,-0
 .00009331,0.00003578,0.00000233,0.00007107,0.00004915,0.00000751,-0.00
 017276,-0.00005660,0.00006628,0.00007381,-0.00007078,-0.00008377,0.001
 17613,-0.00328592,-0.00208706,-0.00769582,-0.00107161,-0.00278033,-0.2
 9898151,0.04195549,-0.08554315,-0.01356803,0.00471445,-0.00480164,-0.0
 0019396,-0.00008488,0.00000587,0.00020037,-0.00013747,0.00000674,0.000
 02239,0.00023545,-0.00006341,0.00024420,-0.00024154,-0.00033426,-0.000
 43149,0.00041554,0.00024464,-0.00007448,-0.00004448,0.00020285,0.00004
 319,-0.00004373,-0.00006414,0.00023735,-0.00014125,0.00016143,0.000001
 81,-0.00000780,0.00001867,0.00003475,0.00009416,-0.00001559,0.00000614
 ,-0.00001602,0.00000276,0.00000319,0.00000843,-0.00000537,0.00000169,0
 .00000662,-0.00000675,0.00000067,0.00000567,0.00000071,0.00000069,0.00
 000517,-0.00000058,-0.00000521,0.00001020,-0.00000565,-0.00000806,0.00
 000908,0.00000221,-0.00000712,-0.00000710,-0.00000461,0.00000985,-0.00
 000650,-0.00000683,-0.00075534,0.00021333,-0.00009620,0.00046956,-0.00
 051233,0.00126685,0.31818549,-0.00005974,-0.00001325,-0.00000213,0.000
 03700,-0.00004201,-0.00000612,0.00014444,0.00000989,0.00001128,0.00005
 642,0.00004681,-0.00000324,0.00005349,-0.00000061,0.00000254,-0.000017
 88,-0.00005288,0.00000281,0.00009930,-0.00040362,0.00007380,0.00008429
 ,-0.00021159,-0.00001599,-0.00010918,0.00010145,-0.00002244,-0.0000157
 0,-0.00012842,-0.00000836,0.00147034,0.00070813,0.00026099,0.00052776,
 -0.00551218,-0.00064304,0.00034573,-0.00074435,-0.00007371,-0.00030360
 ,0.00033231,0.00007413,0.00006162,-0.00002518,0.00000380,-0.00009501,-
 0.00002077,0.00002354,0.00009948,-0.00000303,-0.00000065,-0.00006344,0
 .00010025,-0.00002100,-0.00212712,-0.00379530,-0.00150054,0.02875881,0
 .00001387,0.00906469,0.04108329,-0.06377627,0.00936628,-0.02489525,0.0
 0697656,-0.00749744,0.00010173,0.00000180,-0.00000670,-0.00006938,0.00
 009156,0.00001208,0.00007530,-0.00013571,0.00003710,0.00001096,0.00003
 594,-0.00004023,0.00062449,0.00029722,-0.00017258,-0.00027294,-0.00027
 641,0.00021258,0.00001440,0.00010369,0.00002442,-0.00028272,-0.0000041
 8,-0.00019129,-0.00003950,-0.00000188,0.00000658,-0.00000113,0.0001260
 0,-0.00004828,-0.00000710,0.00002209,0.00000291,-0.00000083,0.00000044
 ,0.00000928,-0.00000389,0.00000181,-0.00000521,-0.00000240,0.00000044,
 -0.00000121,0.00000140,-0.00000155,0.00000055,0.00000155,-0.00000829,0
 .00000039,0.00000141,-0.00000130,0.00000224,0.00001010,0.00000103,0.00
 000174,0.00008423,0.00001329,0.00001247,-0.00122957,0.00007963,-0.0000
 7335,0.00035842,0.00086223,0.00048438,-0.04335662,0.06485030,-0.000079
 04,-0.00002202,0.00000705,0.00004144,-0.00006263,-0.00000396,-0.000069
 40,0.00004739,-0.00007707,0.00013302,0.00016212,0.00006552,0.00009140,
 -0.00001787,0.00000563,-0.00004954,-0.00011289,-0.00001067,0.00016960,
 0.00001925,-0.00063365,0.00018891,-0.00037167,0.00006320,-0.00028741,0
 .00014282,0.00009411,-0.00001332,-0.00027442,-0.00002545,0.00006626,0.
 00023725,0.00022810,-0.00084180,-0.00123285,0.00638938,0.00081554,-0.0
 0076750,-0.00050437,-0.00044685,0.00035599,-0.00068636,0.00009457,-0.0
 0009058,0.00000701,0.00007604,-0.00003214,-0.00006706,0.00012570,0.000
 11815,-0.00003856,-0.00005863,-0.00000245,0.00021358,-0.00262724,-0.00
 148701,0.00431813,-0.00049045,0.00299793,0.00070226,-0.08648370,0.0054
 7416,-0.06134678,-0.00587155,0.00358033,0.00144019,0.00016810,0.000325
 74,-0.00000275,-0.00030347,-0.00008533,-0.00000689,-0.00017511,0.00003
 749,-0.00001304,-0.00043858,0.00005157,0.00014362,-0.00126171,-0.00171
 333,0.00168725,-0.00004267,0.00030906,-0.00037032,-0.00019004,-0.00035
 473,-0.00015419,0.00043642,0.00037994,0.00039319,-0.00005226,0.0000032
 9,0.00002873,0.00010710,-0.00072385,0.00011773,0.00001217,-0.00005990,
 -0.00000701,0.00000698,-0.00001394,0.00001676,-0.00000475,-0.00001543,
 0.00001543,0.00000642,-0.00000777,0.00000184,0.00000184,-0.00000026,0.
 00000132,-0.00000319,-0.00000462,0.00000874,0.00000093,-0.00000692,-0.
 00001451,0.00000581,0.00000316,0.00000296,0.00002199,-0.00000378,0.000
 04767,-0.00050565,0.00010933,0.00019337,0.00114803,0.00063875,-0.00267
 531,0.09386272,-0.01022286,0.05258925,-0.00003934,0.00030982,-0.000009
 92,-0.00051475,-0.00002166,-0.00003539,0.00039927,-0.00043428,-0.00015
 707,-0.00098464,-0.00004105,-0.00010984,0.00000606,0.00009763,0.000017
 56,0.00006235,-0.00025366,0.00000025,-0.00107963,0.00044671,0.00024543
 ,-0.00053435,0.00030033,0.00000707,0.00050254,-0.00019596,0.00001890,0
 .00007666,0.00070779,0.00008104,0.00190749,-0.00282649,0.00162326,-0.0
 1489928,-0.01730088,-0.01778137,-0.00358728,0.00277147,-0.00222077,0.0
 0000577,-0.00134985,0.00022101,-0.00008856,-0.00005001,0.00002867,0.00
 007796,0.00025110,-0.00018140,-0.00135317,-0.00016230,0.00074393,0.000
 85882,0.00006094,-0.00011267,-0.00255776,0.00067059,-0.00030869,-0.080
 06635,-0.04794574,-0.06816645,0.00818258,-0.00076221,0.00695345,0.0047
 6394,0.00440431,-0.00197071,-0.00135134,-0.00013293,-0.00005221,0.0013
 2879,-0.00157234,-0.00016654,0.00219130,0.00214742,0.00026380,-0.00011
 896,-0.00660026,-0.00167294,0.00006719,0.00001370,0.00393100,-0.000937
 61,0.00052326,0.00093238,0.00014565,0.00030815,0.00011211,-0.00020628,
 0.00041387,-0.00097772,-0.00000486,0.00005967,-0.00010760,0.00050977,0
 .00012166,-0.00041161,-0.00001180,0.00001339,-0.00001956,-0.00000011,-
 0.00000924,0.00007279,-0.00000695,0.00000762,0.00006641,-0.00001218,0.
 00000144,-0.00002647,0.00002284,-0.00000470,-0.00000216,0.00000069,0.0
 0000481,-0.00000204,0.00000720,0.00002680,-0.00001013,0.00001330,-0.00
 001499,-0.00000885,-0.00038422,0.00003356,-0.00012160,-0.00005753,-0.0
 0011041,0.00042173,0.00034030,0.00040411,-0.00029111,-0.00015580,-0.00
 069962,0.00206900,0.08734154,-0.00005495,0.00053080,0.00000440,0.00094
 269,-0.00021981,-0.00030962,-0.00034091,-0.00117362,0.00003203,-0.0006
 5276,0.00004827,-0.00002847,-0.00000663,0.00007547,0.00002253,0.000035
 16,-0.00019841,0.00000363,-0.00282518,0.00057978,-0.00043447,0.0000095
 2,0.00099232,0.00012337,0.00003958,0.00002271,0.00000934,0.00015937,0.
 00027661,0.00004038,0.00368751,-0.00207218,0.00179030,-0.00437817,0.00
 556422,0.00273146,0.00031064,0.00125862,-0.00088319,0.00089493,-0.0003
 6475,-0.00009693,-0.00019874,0.00008907,0.00006369,-0.00007332,0.00001
 308,-0.00011674,-0.00096818,-0.00067865,0.00101951,0.00038276,0.000398
 96,-0.00054311,-0.00130638,0.00034857,-0.00020882,-0.05429484,-0.14182
 131,-0.11225651,-0.01306567,-0.02601486,-0.01783004,0.00804259,-0.0015
 4310,-0.00150889,-0.00161399,-0.00029815,-0.00009126,0.00171181,-0.001
 69389,-0.00032424,0.00269404,0.00256164,0.00068631,-0.00154475,-0.0100
 0383,0.00084674,-0.00204352,0.00176583,0.00379228,-0.00107751,0.000573
 51,-0.00087104,-0.00001849,0.00082859,0.00036978,-0.00051280,-0.000266
 71,-0.00069013,0.00016980,0.00011334,-0.00014630,0.00108586,-0.0001208
 1,-0.00044920,0.00000855,0.00006551,-0.00005949,0.00001656,0.00003039,
 0.00006423,0.00000790,0.00003575,0.00000093,-0.00004418,0.00002559,0.0
 0001709,0.00000945,-0.00000253,0.00000846,0.00000025,0.00000270,-0.000
 00643,-0.00000135,0.00000864,-0.00000130,0.00000388,-0.00000888,0.0000
 0545,0.00002927,0.00002029,-0.00021452,-0.00017120,-0.00003821,0.00033
 498,-0.00088927,-0.00112212,0.00020833,-0.00069606,0.00054121,0.002570
 16,0.06633264,0.17076800,0.00009790,-0.00024398,0.00011227,-0.00048450
 ,0.00030913,-0.00008396,0.00008966,0.00073866,-0.00000618,0.00044945,-
 0.00012886,0.00001257,-0.00010294,0.00005710,-0.00002951,0.00007078,0.
 00020300,0.00001253,0.00194423,-0.00013700,0.00041953,-0.00000569,-0.0
 0059716,-0.00018436,0.00013662,0.00003030,-0.00000361,-0.00018266,-0.0
 0008599,-0.00002531,-0.00228214,0.00236572,-0.00003118,0.00623897,-0.0
 0414088,-0.00021729,0.00026538,0.00001086,0.00082760,-0.00034910,0.000
 05210,0.00008530,-0.00003749,0.00021424,-0.00003945,-0.00020374,-0.000
 12056,-0.00007311,-0.00085061,0.00042268,-0.00035979,-0.00022237,-0.00
 005611,-0.00033006,0.00194968,0.00013743,0.00026956,-0.08807614,-0.142
 92742,-0.13426704,-0.00098291,0.01024252,0.00304271,-0.00409693,-0.001
 68200,0.00223963,0.00014054,-0.00050183,0.00001258,0.00000851,0.000484
 38,-0.00082512,0.00100557,-0.00098208,0.00169154,-0.00049380,-0.001358
 59,0.00403088,0.00732594,0.01580440,-0.02957950,0.00172012,0.00015173,
 0.00258069,-0.00028469,0.00020356,0.00001559,0.00054954,-0.00059791,-0
 .00042855,0.00004012,0.00000206,0.00052135,-0.00124086,-0.00020632,0.0
 0080173,-0.00005477,0.00003261,-0.00009624,-0.00000285,-0.00004242,-0.
 00011628,0.00002238,-0.00000148,0.00007344,0.00001006,0.00000086,0.000
 02165,-0.00000675,0.00000096,0.00000004,0.00000314,0.00000898,0.000003
 87,0.00000249,0.00000462,0.00000072,-0.00001303,0.00000021,0.00000826,
 -0.00004850,0.00000716,0.00022391,0.00007754,0.00001439,-0.00048851,-0
 .00011880,0.00013150,-0.00001241,0.00078029,0.00017472,-0.00156332,0.0
 7704163,0.12234138,0.15212662,0.00025825,0.00042976,0.,0.00056277,-0.0
 0040449,-0.00001452,-0.00003445,-0.00033413,0.00001177,-0.00004429,-0.
 00010049,-0.00000727,-0.00005718,0.00007779,-0.00000388,0.00005926,0.0
 0006144,0.00001423,-0.00006225,0.00022988,-0.00002716,-0.00004119,-0.0
 0007855,0.00000307,0.00014992,-0.00006584,0.00001688,0.00000923,0.0001
 4619,0.00000855,-0.00003262,-0.00017159,-0.00005871,-0.00028196,0.0001
 2710,0.00017187,0.00004021,-0.00014679,0.00012867,-0.00006019,0.000059
 23,-0.00000526,-0.00048296,0.00025830,-0.00005060,0.00016487,0.0003019
 8,0.00002281,0.00117032,0.00047115,0.00049954,-0.00060413,0.00023094,-
 0.00000789,0.00005184,-0.00033314,-0.00007755,-0.00020831,0.00026750,0
 .00011043,-0.00037138,-0.00035621,0.00064230,-0.00031444,-0.00010227,-
 0.00028761,-0.00082176,-0.00032307,0.00007864,0.00071223,-0.00045260,0
 .00011187,-0.00319160,0.00001702,-0.00045060,-0.00436433,0.00384786,0.
 00258192,0.00069946,0.02405350,-0.00461284,-0.05053824,0.01852817,-0.0
 0331567,-0.00223701,-0.00315607,-0.00285196,0.00348356,-0.02521400,0.0
 0430749,0.00085032,0.00065186,0.00017925,0.00005287,-0.00088889,0.0002
 1162,0.00027971,-0.00079877,-0.00107299,0.00001243,0.00007875,-0.00002
 789,0.00001460,0.00001112,0.00001987,-0.00004266,0.00002232,-0.0000484
 1,0.00000220,-0.00000404,0.00000124,0.00000290,0.00000517,-0.00000216,
 0.,0.00000534,-0.00000014,-0.00000014,-0.00000033,-0.00000163,0.000018
 89,0.00000785,-0.00000108,0.00002147,0.00001743,0.00000691,0.00000983,
 -0.00000698,0.00001184,0.00008868,-0.00045333,0.00064635,0.00014069,0.
 00020411,0.00017077,0.05493459,0.00012657,0.00008143,-0.00001536,-0.00
 017410,0.00011230,0.00001159,0.00002290,0.00013734,-0.00000663,-0.0000
 0062,-0.00013182,-0.00000892,-0.00012922,0.00009021,-0.00001448,0.0001
 0292,0.00010099,0.00001097,0.00054760,0.00015362,0.00006364,-0.0002273
 4,-0.00024582,-0.00002096,0.00021670,-0.00006070,0.00002488,-0.0000540
 7,0.00015931,0.00000273,-0.00049136,0.00018529,-0.00006494,0.00134132,
 -0.00034574,0.00047761,0.00014994,-0.00058815,-0.00014694,-0.00014404,
 0.00012848,-0.00005684,-0.00021167,0.00011211,-0.00002638,0.00029336,0
 .00002773,0.00004271,-0.00048325,-0.00024714,-0.00020036,0.00016629,-0
 .00031245,-0.00003467,-0.00063209,0.00005950,-0.00015293,-0.00208970,-
 0.00242853,0.00196873,-0.00215866,0.00052828,0.00111478,0.00028073,0.0
 0039098,0.00025233,-0.00064792,-0.00018293,-0.00000749,0.00063942,-0.0
 0048198,0.00010037,-0.00061193,0.00097132,0.00052974,0.00169261,0.0002
 7985,-0.00130617,0.00419857,-0.00936912,-0.00029534,0.01521323,-0.3086
 6774,0.02493730,-0.00229682,-0.00031521,-0.00070268,0.00176859,-0.0132
 7489,0.00154491,-0.00000747,0.00097486,-0.00043756,0.00067367,-0.00519
 066,0.00195896,0.00024138,-0.00052438,-0.00050344,-0.00001631,0.000011
 82,-0.00002420,0.00000976,0.00000134,0.00000360,0.00000401,-0.00000100
 ,0.00001848,0.00000176,-0.00000554,0.00000257,0.00000614,0.00000769,0.
 00000063,0.00000552,0.00000847,0.00000166,-0.00000294,0.00000094,-0.00
 000357,-0.00000746,0.00000754,-0.00000682,-0.00001292,0.00001458,-0.00
 005243,-0.00001839,-0.00007248,0.00001565,-0.00062030,-0.00015917,0.00
 012284,0.00005580,0.00010236,-0.00033670,-0.01672019,0.33795710,0.0000
 1583,-0.00006492,0.00000365,0.00007212,-0.00001200,0.00002665,-0.00001
 806,0.00003057,-0.00001827,0.00009873,0.00003118,0.00001851,0.00003652
 ,-0.00003031,0.00000357,-0.00002217,-0.00001156,-0.00000542,0.00007886
 ,-0.00005257,0.00003559,0.00007986,-0.00005809,0.00000138,-0.00008893,
 0.00003772,-0.00000892,-0.00001100,-0.00011203,-0.00001122,-0.00021970
 ,0.00012910,-0.00002442,0.00024311,-0.00014883,0.00003591,0.00004262,-
 0.00005101,-0.00004862,-0.00009966,0.00002822,-0.00000521,0.00002765,-
 0.00011953,-0.00001541,0.00015246,-0.00012894,-0.00004438,0.00013220,-
 0.00051206,0.00005203,-0.00027617,0.00004410,-0.00005071,-0.00009571,-
 0.00000585,-0.00011451,-0.00043757,-0.00104515,0.00075293,0.00088905,0
 .00018685,0.00006274,-0.00017089,0.00016661,-0.00011229,0.00071958,0.0
 0013632,-0.00002505,-0.00060494,0.00068126,0.00004578,0.00033588,-0.00
 074589,0.00061910,0.00297280,0.00021066,0.00066836,0.00329507,-0.01086
 167,-0.00426073,-0.00425879,0.02689312,-0.03720833,-0.00406770,0.00062
 848,0.00001734,0.00069014,-0.01801673,-0.00101232,0.00053447,0.0008049
 9,0.00016165,-0.00330105,0.03090701,-0.00483212,0.00007605,-0.00077584
 ,-0.00048263,0.00000987,0.00003804,-0.00002323,-0.00000025,-0.00001371
 ,0.00000188,0.00002675,-0.00001430,0.00001814,-0.00000292,0.00000683,-
 0.00000008,-0.00000784,0.00000112,0.00000007,-0.00000779,-0.00000196,0
 .00000028,-0.00000637,-0.00000334,0.00000146,-0.00000773,-0.00000869,-
 0.00000950,-0.00005390,-0.00001048,0.00002535,-0.00000400,-0.00005080,
 0.00006081,0.00019218,0.00069104,-0.00058076,0.00007342,-0.00001608,-0
 .00037374,0.00296793,-0.02878087,0.04665469\\-0.00000750,-0.00000466,-
 0.00001032,-0.00000067,-0.00000271,-0.00002937,0.00000078,0.00000142,-
 0.00000921,0.00000238,0.00000148,-0.00001830,0.00000277,0.00000128,0.0
 0000153,-0.00000560,-0.00000463,0.00000609,-0.00000400,0.00000118,-0.0
 0000136,0.00000389,0.00000463,-0.00000660,0.00000053,-0.00000222,-0.00
 000635,-0.00000222,0.00000072,0.00000248,0.00000200,0.00000747,0.00003
 029,-0.00000542,-0.00000678,-0.00000502,-0.00000537,-0.00000234,-0.000
 00455,-0.00000459,-0.00000145,0.00000703,0.00000146,0.00000426,-0.0000
 0284,0.00000080,0.00000100,-0.00000094,-0.00000376,-0.00001036,0.00004
 022,0.00000175,0.00000256,-0.00003995,-0.00000746,0.00000561,0.0000028
 3,0.00000155,0.00003176,0.00002380,0.00000951,-0.00000620,-0.00001024,
 0.00001456,0.00000303,0.00001148,-0.00000477,0.00000252,-0.00000271,0.
 00000597,-0.00000846,-0.00000695,0.00000420,0.00001478,0.00000782,-0.0
 0000945,-0.00001680,-0.00001674,0.00001267,0.00001587,0.00001171,-0.00
 001934,-0.00004126,0.00000780,0.00000810,-0.00001015,-0.00001147,0.000
 00577,0.00002277,0.00001220,0.00000047,-0.00000018,0.00001487,0.000003
 01,0.00000641,0.00001160,-0.00000174,-0.00000015,0.00001645,-0.0000001
 7,0.00000121,-0.00000080,-0.00000040,-0.00000003,-0.00000457,-0.000000
 68,0.00000002,-0.00000430,0.00000073,-0.00000021,-0.00001477,0.0000011
 1,-0.00000041,-0.00001824,0.00000098,-0.00000013,-0.00001234,0.0000006
 9,-0.00000074,-0.00000495,0.00000045,0.00000061,-0.00000057,0.00000247
 ,-0.00000108,0.00000517,-0.00000123,-0.00000101,0.00000794,0.00000020,
 0.00000296,0.00001557,-0.00000968,-0.00000928,0.00000169,0.00000523,-0
 .00000232,0.00000490\\\@


 DEPRESSION IS WAITING FOR YOUR SHIP TO COME IN,
 AND FINDING OUT IT'S THE TITANIC.
 Job cpu time:       0 days 22 hours 15 minutes 30.1 seconds.
 Elapsed time:       0 days  1 hours  6 minutes 57.9 seconds.
 File lengths (MBytes):  RWF=   2284 Int=      0 D2E=      0 Chk=     53 Scr=      1
 Normal termination of Gaussian 16 at Fri Jun 14 23:39:43 2019.
