 Entering Gaussian System, Link 0=/share/apps/gaussian16/g16/g16
 Initial command:
 /share/apps/gaussian16/g16/l1.exe "/home/amen01//scratch/1083/Gau-48320.inp" -scrdir="/home/amen01//scratch/1083/"
 Entering Link 1 = /share/apps/gaussian16/g16/l1.exe PID=     48321.
  
 Copyright (c) 1988-2017, Gaussian, Inc.  All Rights Reserved.
  
 This is part of the Gaussian(R) 16 program.  It is based on
 the Gaussian(R) 09 system (copyright 2009, Gaussian, Inc.),
 the Gaussian(R) 03 system (copyright 2003, Gaussian, Inc.),
 the Gaussian(R) 98 system (copyright 1998, Gaussian, Inc.),
 the Gaussian(R) 94 system (copyright 1995, Gaussian, Inc.),
 the Gaussian 92(TM) system (copyright 1992, Gaussian, Inc.),
 the Gaussian 90(TM) system (copyright 1990, Gaussian, Inc.),
 the Gaussian 88(TM) system (copyright 1988, Gaussian, Inc.),
 the Gaussian 86(TM) system (copyright 1986, Carnegie Mellon
 University), and the Gaussian 82(TM) system (copyright 1983,
 Carnegie Mellon University). Gaussian is a federally registered
 trademark of Gaussian, Inc.
  
 This software contains proprietary and confidential information,
 including trade secrets, belonging to Gaussian, Inc.
  
 This software is provided under written license and may be
 used, copied, transmitted, or stored only in accord with that
 written license.
  
 The following legend is applicable only to US Government
 contracts under FAR:
  
                    RESTRICTED RIGHTS LEGEND
  
 Use, reproduction and disclosure by the US Government is
 subject to restrictions as set forth in subparagraphs (a)
 and (c) of the Commercial Computer Software - Restricted
 Rights clause in FAR 52.227-19.
  
 Gaussian, Inc.
 340 Quinnipiac St., Bldg. 40, Wallingford CT 06492
  
  
 ---------------------------------------------------------------
 Warning -- This program may not be used in any manner that
 competes with the business of Gaussian, Inc. or will provide
 assistance to any competitor of Gaussian, Inc.  The licensee
 of this program is prohibited from giving any competitor of
 Gaussian, Inc. access to this program.  By using this program,
 the user acknowledges that Gaussian, Inc. is engaged in the
 business of creating and licensing software in the field of
 computational chemistry and represents and warrants to the
 licensee that it is not a competitor of Gaussian, Inc. and that
 it will not use this program in any manner prohibited above.
 ---------------------------------------------------------------
  

 Cite this work as:
 Gaussian 16, Revision B.01,
 M. J. Frisch, G. W. Trucks, H. B. Schlegel, G. E. Scuseria, 
 M. A. Robb, J. R. Cheeseman, G. Scalmani, V. Barone, 
 G. A. Petersson, H. Nakatsuji, X. Li, M. Caricato, A. V. Marenich, 
 J. Bloino, B. G. Janesko, R. Gomperts, B. Mennucci, H. P. Hratchian, 
 J. V. Ortiz, A. F. Izmaylov, J. L. Sonnenberg, D. Williams-Young, 
 F. Ding, F. Lipparini, F. Egidi, J. Goings, B. Peng, A. Petrone, 
 T. Henderson, D. Ranasinghe, V. G. Zakrzewski, J. Gao, N. Rega, 
 G. Zheng, W. Liang, M. Hada, M. Ehara, K. Toyota, R. Fukuda, 
 J. Hasegawa, M. Ishida, T. Nakajima, Y. Honda, O. Kitao, H. Nakai, 
 T. Vreven, K. Throssell, J. A. Montgomery, Jr., J. E. Peralta, 
 F. Ogliaro, M. J. Bearpark, J. J. Heyd, E. N. Brothers, K. N. Kudin, 
 V. N. Staroverov, T. A. Keith, R. Kobayashi, J. Normand, 
 K. Raghavachari, A. P. Rendell, J. C. Burant, S. S. Iyengar, 
 J. Tomasi, M. Cossi, J. M. Millam, M. Klene, C. Adamo, R. Cammi, 
 J. W. Ochterski, R. L. Martin, K. Morokuma, O. Farkas, 
 J. B. Foresman, and D. J. Fox, Gaussian, Inc., Wallingford CT, 2016.
 
 ******************************************
 Gaussian 16:  ES64L-G16RevB.01 20-Dec-2017
                12-Sep-2019 
 ******************************************
 %nprocshared=20
 Will use up to   20 processors via shared memory.
 %mem=160GB
 %chk=7-memb-haddTSguess-3b.chk
 ----------------------------------------------------------------------
 # opt=(ts,calcfc,noeigen) freq b3lyp/6-311+g(d,p) int=grid=fine scf=xq
 c
 ----------------------------------------------------------------------
 1/5=1,10=4,11=1,18=20,26=3,38=1/1,3;
 2/9=110,12=2,17=6,18=5,40=1/2;
 3/5=4,6=6,7=111,11=2,25=1,30=1,71=2,74=-5,75=-4,140=1/1,2,3;
 4//1;
 5/5=2,8=3,13=1,38=5/2,8;
 8/6=4,10=90,11=11/1;
 11/6=1,8=1,9=11,15=111,16=1/1,2,10;
 10/6=1,13=1/2;
 6/7=2,8=2,9=2,10=2,28=1/1;
 7/10=1,18=20,25=1/1,2,3,16;
 1/5=1,10=4,11=1,18=20,26=3/3(2);
 2/9=110/2;
 99//99;
 2/9=110/2;
 3/5=4,6=6,7=111,11=2,25=1,30=1,71=1,74=-5,75=-4/1,2,3;
 4/5=5,16=3,69=1/1;
 5/5=2,8=3,13=1,38=5/2,8;
 7//1,2,3,16;
 1/5=1,11=1,18=20,26=3/3(-5);
 2/9=110/2;
 6/7=2,8=2,9=2,10=2,19=2,28=1/1;
 99/9=1/99;
 ---------------------
 7-memb-haddTSguess-3b
 ---------------------
 Symbolic Z-matrix:
 Charge =  0 Multiplicity = 2
 C                     1.89324  -2.64885   0.12446 
 C                     1.61594  -1.32931   0.50482 
 C                     2.61187  -0.33255   0.48459 
 C                     3.91907  -0.54417   0.11472 
 C                     3.29892  -2.92665  -0.1111 
 C                     4.25894  -1.93438  -0.11671 
 C                     1.97072   0.92128   0.47121 
 C                     2.64261   2.08078   0.06712 
 C                     4.06583   1.90723  -0.16529 
 C                     4.67143   0.66721  -0.146 
 C                     0.57809   0.73222   0.50195 
 C                    -0.25283   1.80562   0.1667 
 C                     0.40121   3.04893  -0.20633 
 C                     1.81407   3.1734   -0.23894 
 C                     0.76594  -3.43399  -0.17759 
 C                    -0.53747  -2.87801  -0.15182 
 C                    -0.77314  -1.49645   0.23481 
 C                     0.35338  -0.72166   0.53341 
 C                    -0.43402   4.12785  -0.62367 
 C                    -1.68857   1.67171   0.11191 
 C                    -2.42301   2.77177  -0.29537 
 C                    -1.79568   3.98229  -0.68231 
 C                    -1.6685   -3.61337  -0.61979 
 C                    -2.8943   -3.01845  -0.73985 
 C                    -3.12413  -1.6692   -0.32608 
 C                    -2.07832  -0.92995   0.2038 
 C                    -2.3147    0.45495   0.83079 
 C                    -3.80392   0.61934   1.21917 
 C                    -4.44897  -1.06302  -0.46144 
 C                    -4.77221   0.04101   0.22323 
 H                    -5.75839   0.48415   0.12938 
 H                    -3.95695   0.08623   2.16795 
 H                    -1.76606   0.42463   1.77949 
 H                    -5.16319  -1.53941  -1.12576 
 H                    -3.73053  -3.58334  -1.13892 
 H                    -1.53418  -4.64831  -0.91639 
 H                     0.8817   -4.45584  -0.52619 
 H                     3.59865  -3.9412   -0.35374 
 H                     5.28206  -2.20055  -0.36225 
 H                     5.72631   0.59851  -0.39201 
 H                     4.66382   2.77495  -0.42488 
 H                     2.23786   4.11048  -0.58692 
 H                     0.02838   5.06774  -0.90607 
 H                    -2.41373   4.8095   -1.01299 
 H                    -1.67225   0.83324  -1.819 
 H                    -3.50373   2.72086  -0.33047 
 H                    -4.02868   1.66487   1.43644 
 
 Add virtual bond connecting atoms H45        and C20        Dist= 3.98D+00.

 GradGradGradGradGradGradGradGradGradGradGradGradGradGradGradGradGradGrad
 Berny optimization.
 Initialization pass.
                           ----------------------------
                           !    Initial Parameters    !
                           ! (Angstroms and Degrees)  !
 --------------------------                            --------------------------
 ! Name  Definition              Value          Derivative Info.                !
 --------------------------------------------------------------------------------
 ! R1    R(1,2)                  1.401          calculate D2E/DX2 analytically  !
 ! R2    R(1,5)                  1.4521         calculate D2E/DX2 analytically  !
 ! R3    R(1,15)                 1.4066         calculate D2E/DX2 analytically  !
 ! R4    R(2,3)                  1.4092         calculate D2E/DX2 analytically  !
 ! R5    R(2,18)                 1.4015         calculate D2E/DX2 analytically  !
 ! R6    R(3,4)                  1.3749         calculate D2E/DX2 analytically  !
 ! R7    R(3,7)                  1.4083         calculate D2E/DX2 analytically  !
 ! R8    R(4,6)                  1.4497         calculate D2E/DX2 analytically  !
 ! R9    R(4,10)                 1.4496         calculate D2E/DX2 analytically  !
 ! R10   R(5,6)                  1.3807         calculate D2E/DX2 analytically  !
 ! R11   R(5,38)                 1.0854         calculate D2E/DX2 analytically  !
 ! R12   R(6,39)                 1.0853         calculate D2E/DX2 analytically  !
 ! R13   R(7,8)                  1.3997         calculate D2E/DX2 analytically  !
 ! R14   R(7,11)                 1.4057         calculate D2E/DX2 analytically  !
 ! R15   R(8,9)                  1.4525         calculate D2E/DX2 analytically  !
 ! R16   R(8,14)                 1.405          calculate D2E/DX2 analytically  !
 ! R17   R(9,10)                 1.3801         calculate D2E/DX2 analytically  !
 ! R18   R(9,41)                 1.0853         calculate D2E/DX2 analytically  !
 ! R19   R(10,40)                1.0854         calculate D2E/DX2 analytically  !
 ! R20   R(11,12)                1.3982         calculate D2E/DX2 analytically  !
 ! R21   R(11,18)                1.4715         calculate D2E/DX2 analytically  !
 ! R22   R(12,13)                1.4535         calculate D2E/DX2 analytically  !
 ! R23   R(12,20)                1.443          calculate D2E/DX2 analytically  !
 ! R24   R(13,14)                1.4187         calculate D2E/DX2 analytically  !
 ! R25   R(13,19)                1.4268         calculate D2E/DX2 analytically  !
 ! R26   R(14,42)                1.0857         calculate D2E/DX2 analytically  !
 ! R27   R(15,16)                1.4173         calculate D2E/DX2 analytically  !
 ! R28   R(15,37)                1.0859         calculate D2E/DX2 analytically  !
 ! R29   R(16,17)                1.4539         calculate D2E/DX2 analytically  !
 ! R30   R(16,23)                1.4279         calculate D2E/DX2 analytically  !
 ! R31   R(17,18)                1.3995         calculate D2E/DX2 analytically  !
 ! R32   R(17,26)                1.4232         calculate D2E/DX2 analytically  !
 ! R33   R(19,22)                1.3707         calculate D2E/DX2 analytically  !
 ! R34   R(19,43)                1.0849         calculate D2E/DX2 analytically  !
 ! R35   R(20,21)                1.384          calculate D2E/DX2 analytically  !
 ! R36   R(20,27)                1.5457         calculate D2E/DX2 analytically  !
 ! R37   R(20,45)                2.1052         calculate D2E/DX2 analytically  !
 ! R38   R(21,22)                1.4173         calculate D2E/DX2 analytically  !
 ! R39   R(21,46)                1.0825         calculate D2E/DX2 analytically  !
 ! R40   R(22,44)                1.0843         calculate D2E/DX2 analytically  !
 ! R41   R(23,24)                1.3678         calculate D2E/DX2 analytically  !
 ! R42   R(23,36)                1.085          calculate D2E/DX2 analytically  !
 ! R43   R(24,25)                1.4299         calculate D2E/DX2 analytically  !
 ! R44   R(24,35)                1.0852         calculate D2E/DX2 analytically  !
 ! R45   R(25,26)                1.386          calculate D2E/DX2 analytically  !
 ! R46   R(25,29)                1.4632         calculate D2E/DX2 analytically  !
 ! R47   R(26,27)                1.5385         calculate D2E/DX2 analytically  !
 ! R48   R(27,28)                1.5478         calculate D2E/DX2 analytically  !
 ! R49   R(27,33)                1.0963         calculate D2E/DX2 analytically  !
 ! R50   R(28,30)                1.5046         calculate D2E/DX2 analytically  !
 ! R51   R(28,32)                1.099          calculate D2E/DX2 analytically  !
 ! R52   R(28,47)                1.0913         calculate D2E/DX2 analytically  !
 ! R53   R(29,30)                1.3387         calculate D2E/DX2 analytically  !
 ! R54   R(29,34)                1.0855         calculate D2E/DX2 analytically  !
 ! R55   R(30,31)                1.0852         calculate D2E/DX2 analytically  !
 ! A1    A(2,1,5)              114.572          calculate D2E/DX2 analytically  !
 ! A2    A(2,1,15)             115.1764         calculate D2E/DX2 analytically  !
 ! A3    A(5,1,15)             129.3608         calculate D2E/DX2 analytically  !
 ! A4    A(1,2,3)              121.495          calculate D2E/DX2 analytically  !
 ! A5    A(1,2,18)             126.3151         calculate D2E/DX2 analytically  !
 ! A6    A(3,2,18)             109.2873         calculate D2E/DX2 analytically  !
 ! A7    A(2,3,4)              124.5364         calculate D2E/DX2 analytically  !
 ! A8    A(2,3,7)              107.9458         calculate D2E/DX2 analytically  !
 ! A9    A(4,3,7)              124.564          calculate D2E/DX2 analytically  !
 ! A10   A(3,4,6)              114.4209         calculate D2E/DX2 analytically  !
 ! A11   A(3,4,10)             114.4061         calculate D2E/DX2 analytically  !
 ! A12   A(6,4,10)             130.6128         calculate D2E/DX2 analytically  !
 ! A13   A(1,5,6)              122.4296         calculate D2E/DX2 analytically  !
 ! A14   A(1,5,38)             118.8439         calculate D2E/DX2 analytically  !
 ! A15   A(6,5,38)             118.611          calculate D2E/DX2 analytically  !
 ! A16   A(4,6,5)              121.7027         calculate D2E/DX2 analytically  !
 ! A17   A(4,6,39)             119.4916         calculate D2E/DX2 analytically  !
 ! A18   A(5,6,39)             118.6946         calculate D2E/DX2 analytically  !
 ! A19   A(3,7,8)              121.4479         calculate D2E/DX2 analytically  !
 ! A20   A(3,7,11)             109.334          calculate D2E/DX2 analytically  !
 ! A21   A(8,7,11)             126.3895         calculate D2E/DX2 analytically  !
 ! A22   A(7,8,9)              114.6812         calculate D2E/DX2 analytically  !
 ! A23   A(7,8,14)             115.089          calculate D2E/DX2 analytically  !
 ! A24   A(9,8,14)             129.4873         calculate D2E/DX2 analytically  !
 ! A25   A(8,9,10)             122.3491         calculate D2E/DX2 analytically  !
 ! A26   A(8,9,41)             118.8567         calculate D2E/DX2 analytically  !
 ! A27   A(10,9,41)            118.6801         calculate D2E/DX2 analytically  !
 ! A28   A(4,10,9)             121.7077         calculate D2E/DX2 analytically  !
 ! A29   A(4,10,40)            119.4913         calculate D2E/DX2 analytically  !
 ! A30   A(9,10,40)            118.6968         calculate D2E/DX2 analytically  !
 ! A31   A(7,11,12)            118.7009         calculate D2E/DX2 analytically  !
 ! A32   A(7,11,18)            106.5372         calculate D2E/DX2 analytically  !
 ! A33   A(12,11,18)           132.2902         calculate D2E/DX2 analytically  !
 ! A34   A(11,12,13)           116.7948         calculate D2E/DX2 analytically  !
 ! A35   A(11,12,20)           121.9473         calculate D2E/DX2 analytically  !
 ! A36   A(13,12,20)           121.1536         calculate D2E/DX2 analytically  !
 ! A37   A(12,13,14)           121.942          calculate D2E/DX2 analytically  !
 ! A38   A(12,13,19)           117.2885         calculate D2E/DX2 analytically  !
 ! A39   A(14,13,19)           120.6566         calculate D2E/DX2 analytically  !
 ! A40   A(8,14,13)            120.9341         calculate D2E/DX2 analytically  !
 ! A41   A(8,14,42)            120.7194         calculate D2E/DX2 analytically  !
 ! A42   A(13,14,42)           118.152          calculate D2E/DX2 analytically  !
 ! A43   A(1,15,16)            120.9429         calculate D2E/DX2 analytically  !
 ! A44   A(1,15,37)            120.5826         calculate D2E/DX2 analytically  !
 ! A45   A(16,15,37)           118.2319         calculate D2E/DX2 analytically  !
 ! A46   A(15,16,17)           121.7818         calculate D2E/DX2 analytically  !
 ! A47   A(15,16,23)           121.3634         calculate D2E/DX2 analytically  !
 ! A48   A(17,16,23)           116.6239         calculate D2E/DX2 analytically  !
 ! A49   A(16,17,18)           116.8952         calculate D2E/DX2 analytically  !
 ! A50   A(16,17,26)           121.4077         calculate D2E/DX2 analytically  !
 ! A51   A(18,17,26)           121.5003         calculate D2E/DX2 analytically  !
 ! A52   A(2,18,11)            106.8807         calculate D2E/DX2 analytically  !
 ! A53   A(2,18,17)            118.7365         calculate D2E/DX2 analytically  !
 ! A54   A(11,18,17)           131.7112         calculate D2E/DX2 analytically  !
 ! A55   A(13,19,22)           120.913          calculate D2E/DX2 analytically  !
 ! A56   A(13,19,43)           118.8002         calculate D2E/DX2 analytically  !
 ! A57   A(22,19,43)           120.2835         calculate D2E/DX2 analytically  !
 ! A58   A(12,20,21)           117.7366         calculate D2E/DX2 analytically  !
 ! A59   A(12,20,27)           117.285          calculate D2E/DX2 analytically  !
 ! A60   A(12,20,45)            93.6735         calculate D2E/DX2 analytically  !
 ! A61   A(21,20,27)           123.2015         calculate D2E/DX2 analytically  !
 ! A62   A(21,20,45)            92.9106         calculate D2E/DX2 analytically  !
 ! A63   A(27,20,45)            96.6721         calculate D2E/DX2 analytically  !
 ! A64   A(20,21,22)           121.6252         calculate D2E/DX2 analytically  !
 ! A65   A(20,21,46)           120.13           calculate D2E/DX2 analytically  !
 ! A66   A(22,21,46)           118.2438         calculate D2E/DX2 analytically  !
 ! A67   A(19,22,21)           121.2479         calculate D2E/DX2 analytically  !
 ! A68   A(19,22,44)           119.8876         calculate D2E/DX2 analytically  !
 ! A69   A(21,22,44)           118.8555         calculate D2E/DX2 analytically  !
 ! A70   A(16,23,24)           120.9719         calculate D2E/DX2 analytically  !
 ! A71   A(16,23,36)           118.8667         calculate D2E/DX2 analytically  !
 ! A72   A(24,23,36)           120.1223         calculate D2E/DX2 analytically  !
 ! A73   A(23,24,25)           121.9425         calculate D2E/DX2 analytically  !
 ! A74   A(23,24,35)           119.7653         calculate D2E/DX2 analytically  !
 ! A75   A(25,24,35)           118.278          calculate D2E/DX2 analytically  !
 ! A76   A(24,25,26)           119.5143         calculate D2E/DX2 analytically  !
 ! A77   A(24,25,29)           120.6435         calculate D2E/DX2 analytically  !
 ! A78   A(26,25,29)           119.8418         calculate D2E/DX2 analytically  !
 ! A79   A(17,26,25)           119.2111         calculate D2E/DX2 analytically  !
 ! A80   A(17,26,27)           119.3634         calculate D2E/DX2 analytically  !
 ! A81   A(25,26,27)           121.3316         calculate D2E/DX2 analytically  !
 ! A82   A(20,27,26)           117.1818         calculate D2E/DX2 analytically  !
 ! A83   A(20,27,28)           115.0137         calculate D2E/DX2 analytically  !
 ! A84   A(20,27,33)           102.7972         calculate D2E/DX2 analytically  !
 ! A85   A(26,27,28)           110.2247         calculate D2E/DX2 analytically  !
 ! A86   A(26,27,33)           104.5293         calculate D2E/DX2 analytically  !
 ! A87   A(28,27,33)           105.5031         calculate D2E/DX2 analytically  !
 ! A88   A(27,28,30)           114.3473         calculate D2E/DX2 analytically  !
 ! A89   A(27,28,32)           107.4027         calculate D2E/DX2 analytically  !
 ! A90   A(27,28,47)           110.4808         calculate D2E/DX2 analytically  !
 ! A91   A(30,28,32)           107.1799         calculate D2E/DX2 analytically  !
 ! A92   A(30,28,47)           111.5611         calculate D2E/DX2 analytically  !
 ! A93   A(32,28,47)           105.319          calculate D2E/DX2 analytically  !
 ! A94   A(25,29,30)           120.862          calculate D2E/DX2 analytically  !
 ! A95   A(25,29,34)           118.0687         calculate D2E/DX2 analytically  !
 ! A96   A(30,29,34)           121.0672         calculate D2E/DX2 analytically  !
 ! A97   A(28,30,29)           120.0082         calculate D2E/DX2 analytically  !
 ! A98   A(28,30,31)           119.018          calculate D2E/DX2 analytically  !
 ! A99   A(29,30,31)           120.7939         calculate D2E/DX2 analytically  !
 ! D1    D(5,1,2,3)              7.741          calculate D2E/DX2 analytically  !
 ! D2    D(5,1,2,18)           166.3403         calculate D2E/DX2 analytically  !
 ! D3    D(15,1,2,3)          -162.4861         calculate D2E/DX2 analytically  !
 ! D4    D(15,1,2,18)           -3.8868         calculate D2E/DX2 analytically  !
 ! D5    D(2,1,5,6)             -7.4275         calculate D2E/DX2 analytically  !
 ! D6    D(2,1,5,38)           176.5355         calculate D2E/DX2 analytically  !
 ! D7    D(15,1,5,6)           161.1123         calculate D2E/DX2 analytically  !
 ! D8    D(15,1,5,38)          -14.9246         calculate D2E/DX2 analytically  !
 ! D9    D(2,1,15,16)            2.9289         calculate D2E/DX2 analytically  !
 ! D10   D(2,1,15,37)          177.1708         calculate D2E/DX2 analytically  !
 ! D11   D(5,1,15,16)         -165.554          calculate D2E/DX2 analytically  !
 ! D12   D(5,1,15,37)            8.6879         calculate D2E/DX2 analytically  !
 ! D13   D(1,2,3,4)             -0.6354         calculate D2E/DX2 analytically  !
 ! D14   D(1,2,3,7)            160.5936         calculate D2E/DX2 analytically  !
 ! D15   D(18,2,3,4)          -162.4857         calculate D2E/DX2 analytically  !
 ! D16   D(18,2,3,7)            -1.2568         calculate D2E/DX2 analytically  !
 ! D17   D(1,2,18,11)         -159.58           calculate D2E/DX2 analytically  !
 ! D18   D(1,2,18,17)            4.0357         calculate D2E/DX2 analytically  !
 ! D19   D(3,2,18,11)            1.1733         calculate D2E/DX2 analytically  !
 ! D20   D(3,2,18,17)          164.789          calculate D2E/DX2 analytically  !
 ! D21   D(2,3,4,6)             -6.864          calculate D2E/DX2 analytically  !
 ! D22   D(2,3,4,10)           165.4797         calculate D2E/DX2 analytically  !
 ! D23   D(7,3,4,6)           -165.0406         calculate D2E/DX2 analytically  !
 ! D24   D(7,3,4,10)             7.3031         calculate D2E/DX2 analytically  !
 ! D25   D(2,3,7,8)           -161.261          calculate D2E/DX2 analytically  !
 ! D26   D(2,3,7,11)             0.8308         calculate D2E/DX2 analytically  !
 ! D27   D(4,3,7,8)             -0.0384         calculate D2E/DX2 analytically  !
 ! D28   D(4,3,7,11)           162.0533         calculate D2E/DX2 analytically  !
 ! D29   D(3,4,6,5)              7.0427         calculate D2E/DX2 analytically  !
 ! D30   D(3,4,6,39)          -176.8405         calculate D2E/DX2 analytically  !
 ! D31   D(10,4,6,5)          -163.7607         calculate D2E/DX2 analytically  !
 ! D32   D(10,4,6,39)           12.3561         calculate D2E/DX2 analytically  !
 ! D33   D(3,4,10,9)            -7.0308         calculate D2E/DX2 analytically  !
 ! D34   D(3,4,10,40)          176.7293         calculate D2E/DX2 analytically  !
 ! D35   D(6,4,10,9)           163.7738         calculate D2E/DX2 analytically  !
 ! D36   D(6,4,10,40)          -12.4662         calculate D2E/DX2 analytically  !
 ! D37   D(1,5,6,4)              0.0308         calculate D2E/DX2 analytically  !
 ! D38   D(1,5,6,39)          -176.116          calculate D2E/DX2 analytically  !
 ! D39   D(38,5,6,4)           176.0766         calculate D2E/DX2 analytically  !
 ! D40   D(38,5,6,39)           -0.0702         calculate D2E/DX2 analytically  !
 ! D41   D(3,7,8,9)             -7.3495         calculate D2E/DX2 analytically  !
 ! D42   D(3,7,8,14)           163.7328         calculate D2E/DX2 analytically  !
 ! D43   D(11,7,8,9)          -166.2224         calculate D2E/DX2 analytically  !
 ! D44   D(11,7,8,14)            4.8599         calculate D2E/DX2 analytically  !
 ! D45   D(3,7,11,12)         -164.4344         calculate D2E/DX2 analytically  !
 ! D46   D(3,7,11,18)           -0.1105         calculate D2E/DX2 analytically  !
 ! D47   D(8,7,11,12)           -3.4528         calculate D2E/DX2 analytically  !
 ! D48   D(8,7,11,18)          160.8711         calculate D2E/DX2 analytically  !
 ! D49   D(7,8,9,10)             7.4631         calculate D2E/DX2 analytically  !
 ! D50   D(7,8,9,41)          -176.4743         calculate D2E/DX2 analytically  !
 ! D51   D(14,8,9,10)         -162.056          calculate D2E/DX2 analytically  !
 ! D52   D(14,8,9,41)           14.0066         calculate D2E/DX2 analytically  !
 ! D53   D(7,8,14,13)           -3.5557         calculate D2E/DX2 analytically  !
 ! D54   D(7,8,14,42)         -178.3936         calculate D2E/DX2 analytically  !
 ! D55   D(9,8,14,13)          165.9284         calculate D2E/DX2 analytically  !
 ! D56   D(9,8,14,42)           -8.9096         calculate D2E/DX2 analytically  !
 ! D57   D(8,9,10,4)            -0.2636         calculate D2E/DX2 analytically  !
 ! D58   D(8,9,10,40)          176.0053         calculate D2E/DX2 analytically  !
 ! D59   D(41,9,10,4)         -176.3328         calculate D2E/DX2 analytically  !
 ! D60   D(41,9,10,40)          -0.0639         calculate D2E/DX2 analytically  !
 ! D61   D(7,11,12,13)           0.6112         calculate D2E/DX2 analytically  !
 ! D62   D(7,11,12,20)         176.9367         calculate D2E/DX2 analytically  !
 ! D63   D(18,11,12,13)       -158.8923         calculate D2E/DX2 analytically  !
 ! D64   D(18,11,12,20)         17.4333         calculate D2E/DX2 analytically  !
 ! D65   D(7,11,18,2)           -0.6506         calculate D2E/DX2 analytically  !
 ! D66   D(7,11,18,17)        -161.3014         calculate D2E/DX2 analytically  !
 ! D67   D(12,11,18,2)         160.6633         calculate D2E/DX2 analytically  !
 ! D68   D(12,11,18,17)          0.0125         calculate D2E/DX2 analytically  !
 ! D69   D(11,12,13,14)          0.3649         calculate D2E/DX2 analytically  !
 ! D70   D(11,12,13,19)        176.5245         calculate D2E/DX2 analytically  !
 ! D71   D(20,12,13,14)       -175.9918         calculate D2E/DX2 analytically  !
 ! D72   D(20,12,13,19)          0.1678         calculate D2E/DX2 analytically  !
 ! D73   D(11,12,20,21)       -176.7908         calculate D2E/DX2 analytically  !
 ! D74   D(11,12,20,27)         17.8906         calculate D2E/DX2 analytically  !
 ! D75   D(11,12,20,45)        -81.5554         calculate D2E/DX2 analytically  !
 ! D76   D(13,12,20,21)         -0.6237         calculate D2E/DX2 analytically  !
 ! D77   D(13,12,20,27)       -165.9423         calculate D2E/DX2 analytically  !
 ! D78   D(13,12,20,45)         94.6117         calculate D2E/DX2 analytically  !
 ! D79   D(12,13,14,8)           1.2146         calculate D2E/DX2 analytically  !
 ! D80   D(12,13,14,42)        176.1818         calculate D2E/DX2 analytically  !
 ! D81   D(19,13,14,8)        -174.8178         calculate D2E/DX2 analytically  !
 ! D82   D(19,13,14,42)          0.1495         calculate D2E/DX2 analytically  !
 ! D83   D(12,13,19,22)         -0.7619         calculate D2E/DX2 analytically  !
 ! D84   D(12,13,19,43)        179.9013         calculate D2E/DX2 analytically  !
 ! D85   D(14,13,19,22)        175.4499         calculate D2E/DX2 analytically  !
 ! D86   D(14,13,19,43)         -3.887          calculate D2E/DX2 analytically  !
 ! D87   D(1,15,16,17)          -2.407          calculate D2E/DX2 analytically  !
 ! D88   D(1,15,16,23)         171.8849         calculate D2E/DX2 analytically  !
 ! D89   D(37,15,16,17)       -176.781          calculate D2E/DX2 analytically  !
 ! D90   D(37,15,16,23)         -2.4891         calculate D2E/DX2 analytically  !
 ! D91   D(15,16,17,18)          2.3385         calculate D2E/DX2 analytically  !
 ! D92   D(15,16,17,26)        177.3132         calculate D2E/DX2 analytically  !
 ! D93   D(23,16,17,18)       -172.2101         calculate D2E/DX2 analytically  !
 ! D94   D(23,16,17,26)          2.7646         calculate D2E/DX2 analytically  !
 ! D95   D(15,16,23,24)       -172.1986         calculate D2E/DX2 analytically  !
 ! D96   D(15,16,23,36)          5.5303         calculate D2E/DX2 analytically  !
 ! D97   D(17,16,23,24)          2.3745         calculate D2E/DX2 analytically  !
 ! D98   D(17,16,23,36)       -179.8966         calculate D2E/DX2 analytically  !
 ! D99   D(16,17,18,2)          -2.9573         calculate D2E/DX2 analytically  !
 ! D100  D(16,17,18,11)        155.8453         calculate D2E/DX2 analytically  !
 ! D101  D(26,17,18,2)        -177.9271         calculate D2E/DX2 analytically  !
 ! D102  D(26,17,18,11)        -19.1244         calculate D2E/DX2 analytically  !
 ! D103  D(16,17,26,25)         -6.2459         calculate D2E/DX2 analytically  !
 ! D104  D(16,17,26,27)        170.2789         calculate D2E/DX2 analytically  !
 ! D105  D(18,17,26,25)        168.4972         calculate D2E/DX2 analytically  !
 ! D106  D(18,17,26,27)        -14.9781         calculate D2E/DX2 analytically  !
 ! D107  D(13,19,22,21)          1.8231         calculate D2E/DX2 analytically  !
 ! D108  D(13,19,22,44)       -179.2811         calculate D2E/DX2 analytically  !
 ! D109  D(43,19,22,21)       -178.8499         calculate D2E/DX2 analytically  !
 ! D110  D(43,19,22,44)          0.0459         calculate D2E/DX2 analytically  !
 ! D111  D(12,20,21,22)          1.6676         calculate D2E/DX2 analytically  !
 ! D112  D(12,20,21,46)       -178.703          calculate D2E/DX2 analytically  !
 ! D113  D(27,20,21,22)        166.0515         calculate D2E/DX2 analytically  !
 ! D114  D(27,20,21,46)        -14.3191         calculate D2E/DX2 analytically  !
 ! D115  D(45,20,21,22)        -94.0265         calculate D2E/DX2 analytically  !
 ! D116  D(45,20,21,46)         85.6029         calculate D2E/DX2 analytically  !
 ! D117  D(12,20,27,26)        -70.5481         calculate D2E/DX2 analytically  !
 ! D118  D(12,20,27,28)        157.5039         calculate D2E/DX2 analytically  !
 ! D119  D(12,20,27,33)         43.3963         calculate D2E/DX2 analytically  !
 ! D120  D(21,20,27,26)        125.0024         calculate D2E/DX2 analytically  !
 ! D121  D(21,20,27,28)         -6.9456         calculate D2E/DX2 analytically  !
 ! D122  D(21,20,27,33)       -121.0532         calculate D2E/DX2 analytically  !
 ! D123  D(45,20,27,26)         27.0904         calculate D2E/DX2 analytically  !
 ! D124  D(45,20,27,28)       -104.8576         calculate D2E/DX2 analytically  !
 ! D125  D(45,20,27,33)        141.0348         calculate D2E/DX2 analytically  !
 ! D126  D(20,21,22,19)         -2.3261         calculate D2E/DX2 analytically  !
 ! D127  D(20,21,22,44)        178.7669         calculate D2E/DX2 analytically  !
 ! D128  D(46,21,22,19)        178.0377         calculate D2E/DX2 analytically  !
 ! D129  D(46,21,22,44)         -0.8693         calculate D2E/DX2 analytically  !
 ! D130  D(16,23,24,25)         -4.0899         calculate D2E/DX2 analytically  !
 ! D131  D(16,23,24,35)        177.302          calculate D2E/DX2 analytically  !
 ! D132  D(36,23,24,25)        178.2096         calculate D2E/DX2 analytically  !
 ! D133  D(36,23,24,35)         -0.3986         calculate D2E/DX2 analytically  !
 ! D134  D(23,24,25,26)          0.5236         calculate D2E/DX2 analytically  !
 ! D135  D(23,24,25,29)       -179.6927         calculate D2E/DX2 analytically  !
 ! D136  D(35,24,25,26)        179.1517         calculate D2E/DX2 analytically  !
 ! D137  D(35,24,25,29)         -1.0646         calculate D2E/DX2 analytically  !
 ! D138  D(24,25,26,17)          4.5711         calculate D2E/DX2 analytically  !
 ! D139  D(24,25,26,27)       -171.8829         calculate D2E/DX2 analytically  !
 ! D140  D(29,25,26,17)       -175.2143         calculate D2E/DX2 analytically  !
 ! D141  D(29,25,26,27)          8.3316         calculate D2E/DX2 analytically  !
 ! D142  D(24,25,29,30)        162.2956         calculate D2E/DX2 analytically  !
 ! D143  D(24,25,29,34)        -17.184          calculate D2E/DX2 analytically  !
 ! D144  D(26,25,29,30)        -17.9214         calculate D2E/DX2 analytically  !
 ! D145  D(26,25,29,34)        162.599          calculate D2E/DX2 analytically  !
 ! D146  D(17,26,27,20)         69.4601         calculate D2E/DX2 analytically  !
 ! D147  D(17,26,27,28)       -156.4525         calculate D2E/DX2 analytically  !
 ! D148  D(17,26,27,33)        -43.5139         calculate D2E/DX2 analytically  !
 ! D149  D(25,26,27,20)       -114.0911         calculate D2E/DX2 analytically  !
 ! D150  D(25,26,27,28)         19.9963         calculate D2E/DX2 analytically  !
 ! D151  D(25,26,27,33)        132.9348         calculate D2E/DX2 analytically  !
 ! D152  D(20,27,28,30)         95.6359         calculate D2E/DX2 analytically  !
 ! D153  D(20,27,28,32)       -145.5747         calculate D2E/DX2 analytically  !
 ! D154  D(20,27,28,47)        -31.2054         calculate D2E/DX2 analytically  !
 ! D155  D(26,27,28,30)        -39.5276         calculate D2E/DX2 analytically  !
 ! D156  D(26,27,28,32)         79.2618         calculate D2E/DX2 analytically  !
 ! D157  D(26,27,28,47)       -166.3689         calculate D2E/DX2 analytically  !
 ! D158  D(33,27,28,30)       -151.8395         calculate D2E/DX2 analytically  !
 ! D159  D(33,27,28,32)        -33.0501         calculate D2E/DX2 analytically  !
 ! D160  D(33,27,28,47)         81.3192         calculate D2E/DX2 analytically  !
 ! D161  D(27,28,30,29)         33.9511         calculate D2E/DX2 analytically  !
 ! D162  D(27,28,30,31)       -150.8844         calculate D2E/DX2 analytically  !
 ! D163  D(32,28,30,29)        -84.9642         calculate D2E/DX2 analytically  !
 ! D164  D(32,28,30,31)         90.2003         calculate D2E/DX2 analytically  !
 ! D165  D(47,28,30,29)        160.2325         calculate D2E/DX2 analytically  !
 ! D166  D(47,28,30,31)        -24.6029         calculate D2E/DX2 analytically  !
 ! D167  D(25,29,30,28)         -4.3219         calculate D2E/DX2 analytically  !
 ! D168  D(25,29,30,31)       -179.3992         calculate D2E/DX2 analytically  !
 ! D169  D(34,29,30,28)        175.142          calculate D2E/DX2 analytically  !
 ! D170  D(34,29,30,31)          0.0647         calculate D2E/DX2 analytically  !
 --------------------------------------------------------------------------------
 Trust Radius=3.00D-01 FncErr=1.00D-07 GrdErr=1.00D-06 EigMax=2.50D+02 EigMin=1.00D-04
 Number of steps in this run=    282 maximum allowed number of steps=    282.
 Search for a saddle point of order  1.
 GradGradGradGradGradGradGradGradGradGradGradGradGradGradGradGradGradGrad

                          Input orientation:                          
 ---------------------------------------------------------------------
 Center     Atomic      Atomic             Coordinates (Angstroms)
 Number     Number       Type             X           Y           Z
 ---------------------------------------------------------------------
      1          6           0        1.893241   -2.648849    0.124460
      2          6           0        1.615940   -1.329307    0.504818
      3          6           0        2.611874   -0.332548    0.484591
      4          6           0        3.919070   -0.544171    0.114716
      5          6           0        3.298919   -2.926652   -0.111101
      6          6           0        4.258944   -1.934376   -0.116711
      7          6           0        1.970715    0.921282    0.471209
      8          6           0        2.642608    2.080784    0.067116
      9          6           0        4.065831    1.907232   -0.165294
     10          6           0        4.671429    0.667209   -0.145999
     11          6           0        0.578090    0.732222    0.501946
     12          6           0       -0.252827    1.805620    0.166696
     13          6           0        0.401211    3.048925   -0.206327
     14          6           0        1.814066    3.173396   -0.238940
     15          6           0        0.765935   -3.433991   -0.177587
     16          6           0       -0.537473   -2.878013   -0.151818
     17          6           0       -0.773137   -1.496453    0.234808
     18          6           0        0.353378   -0.721663    0.533411
     19          6           0       -0.434015    4.127846   -0.623672
     20          6           0       -1.688569    1.671712    0.111911
     21          6           0       -2.423005    2.771772   -0.295367
     22          6           0       -1.795684    3.982290   -0.682311
     23          6           0       -1.668500   -3.613369   -0.619785
     24          6           0       -2.894298   -3.018448   -0.739853
     25          6           0       -3.124134   -1.669196   -0.326081
     26          6           0       -2.078318   -0.929953    0.203795
     27          6           0       -2.314700    0.454951    0.830787
     28          6           0       -3.803919    0.619341    1.219174
     29          6           0       -4.448969   -1.063018   -0.461438
     30          6           0       -4.772214    0.041007    0.223230
     31          1           0       -5.758391    0.484152    0.129383
     32          1           0       -3.956950    0.086228    2.167953
     33          1           0       -1.766061    0.424634    1.779489
     34          1           0       -5.163194   -1.539413   -1.125757
     35          1           0       -3.730532   -3.583341   -1.138915
     36          1           0       -1.534175   -4.648314   -0.916387
     37          1           0        0.881695   -4.455837   -0.526190
     38          1           0        3.598654   -3.941200   -0.353742
     39          1           0        5.282058   -2.200547   -0.362246
     40          1           0        5.726314    0.598509   -0.392008
     41          1           0        4.663817    2.774951   -0.424875
     42          1           0        2.237858    4.110477   -0.586919
     43          1           0        0.028379    5.067744   -0.906073
     44          1           0       -2.413726    4.809499   -1.012990
     45          1           0       -1.672250    0.833235   -1.819001
     46          1           0       -3.503732    2.720863   -0.330470
     47          1           0       -4.028684    1.664866    1.436443
 ---------------------------------------------------------------------
                    Distance matrix (angstroms):
                    1          2          3          4          5
     1  C    0.000000
     2  C    1.400985   0.000000
     3  C    2.451811   1.409192   0.000000
     4  C    2.921258   2.464351   1.374901   0.000000
     5  C    1.452100   2.400684   2.748864   2.472205   0.000000
     6  C    2.482979   2.781704   2.374922   1.449739   1.380685
     7  C    3.587767   2.278628   1.408316   2.463885   4.112154
     8  C    4.788974   3.588085   2.449368   2.919248   5.053407
     9  C    5.055886   4.114146   2.748264   2.471704   4.894643
    10  C    4.334480   3.707513   2.374642   1.449641   3.847186
    11  C    3.647432   2.308039   2.295716   3.597398   4.600663
    12  C    4.944662   3.665295   3.588779   4.788418   5.923383
    13  C    5.899170   4.598936   4.098629   5.038724   6.641784
    14  C    5.834112   4.568015   3.667647   4.286773   6.279468
    15  C    1.406591   2.370207   3.669458   4.287046   2.584148
    16  C    2.457075   2.732554   4.099121   5.037721   3.836916
    17  C    2.906848   2.410090   3.588226   4.789370   4.329753
    18  C    2.500493   1.401468   2.292291   3.594575   3.735450
    19  C    7.204125   5.937704   5.513692   6.428243   7.997716
    20  C    5.612198   4.481102   4.759176   6.029574   6.787468
    21  C    6.941856   5.811387   5.966167   7.168372   8.077525
    22  C    7.630927   6.423513   6.277424   7.333656   8.603182
    23  C    3.764332   4.155625   5.505001   6.417196   5.040396
    24  C    4.878952   4.974399   6.247500   7.298926   6.225728
    25  C    5.131935   4.824336   5.945217   7.146097   6.548513
    26  C    4.328300   3.727954   4.736416   6.010443   5.744619
    27  C    5.276290   4.328945   5.001114   6.353809   6.620809
    28  C    6.658611   5.803654   6.527488   7.887848   8.049472
    29  C    6.563670   6.147169   7.161289   8.403882   7.976568
    30  C    7.188419   6.539538   7.398149   8.711637   8.605926
    31  H    8.268204   7.603311   8.417512   9.731953   9.681233
    32  H    6.773570   5.985554   6.794007   8.163631   8.180414
    33  H    5.057263   4.017341   4.627786   6.002563   6.360776
    34  H    7.251701   6.975642   8.031278   9.220455   8.634889
    35  H    5.839196   6.030530   7.309551   8.326137   7.134481
    36  H    4.102244   4.791540   6.146405   6.902539   5.193400
    37  H    2.170663   3.373023   4.584399   4.993750   2.890273
    38  H    2.192551   3.389729   3.833915   3.444115   1.085368
    39  H    3.452816   3.866689   3.366962   2.197455   2.126768
    40  H    5.050200   4.627737   3.366754   2.197412   4.289279
    41  H    6.115183   5.196039   3.833295   3.444180   5.871088
    42  H    6.805388   5.583003   4.585683   4.998451   7.132562
    43  H    8.005343   6.740417   6.145856   6.904569   8.674029
    44  H    8.687388   7.498459   7.344389   8.368859   9.658972
    45  H    5.349269   4.570439   5.001930   6.074485   6.462677
    46  H    7.626800   6.581233   6.883915   8.121369   8.844129
    47  H    7.443026   6.457149   6.999478   8.354256   8.784685
                    6          7          8          9         10
     6  C    0.000000
     7  C    3.706268   0.000000
     8  C    4.332187   1.399706   0.000000
     9  C    3.846766   2.401405   1.452480   0.000000
    10  C    2.634245   2.781970   2.481880   1.380137   0.000000
    11  C    4.587174   1.405736   2.503983   3.740347   4.144814
    12  C    5.867194   2.412244   2.910185   4.332592   5.063798
    13  C    6.302652   2.729334   2.456813   3.838566   4.889885
    14  C    5.664071   2.366615   1.404974   2.584384   3.801859
    15  C    3.801797   4.565176   5.830482   6.278386   5.663367
    16  C    4.888486   4.594977   5.894957   6.639967   6.300896
    17  C    5.063317   3.664704   4.948945   5.929651   5.871094
    18  C    4.140867   2.306278   3.648522   4.602346   4.586516
    19  C    7.683190   4.154942   3.759423   5.038834   6.186254
    20  C    6.959098   3.752679   4.350683   5.765885   6.443999
    21  C    8.174851   4.828740   5.125358   6.547468   7.401519
    22  C    8.484419   4.988601   4.886287   6.239433   7.287039
    23  C    6.181156   5.915844   7.175017   7.972838   7.664367
    24  C    7.261707   6.376245   7.570383   8.546101   8.436644
    25  C    7.390805   5.770939   6.890012   8.031954   8.140149
    26  C    6.424366   4.460185   5.600925   6.777641   6.944953
    27  C    7.058288   4.325684   5.272706   6.619099   7.057277
    28  C    8.562466   5.830696   6.709751   8.093725   8.584726
    29  C    8.758188   6.783776   7.775174   9.022855   9.288425
    30  C    9.250920   6.804665   7.691856   9.041282   9.471581
    31  H   10.308096   7.749000   8.551602   9.931129  10.435061
    32  H    8.763757   6.222015   7.207353   8.551322   8.952141
    33  H    6.742491   3.990207   5.011129   6.323863   6.723662
    34  H    9.484242   7.713493   8.686732   9.898321  10.126644
    35  H    8.221661   7.442335   8.611256   9.585281   9.468157
    36  H    6.447105   6.725331   7.980824   8.654443   8.207180
    37  H    4.234531   5.576215   6.795605   7.124438   6.383747
    38  H    2.125914   5.193694   6.111909   5.870087   4.736184
    39  H    1.085309   4.626603   5.047855   4.288572   2.940009
    40  H    2.940148   3.867021   3.452126   2.126349   1.085367
    41  H    4.736734   3.389964   2.192991   1.085314   2.126125
    42  H    6.391098   3.370751   2.170539   2.893707   4.239431
    43  H    8.218909   4.781498   4.086957   5.180599   6.442075
    44  H    9.529307   6.045197   5.846283   7.150273   8.252858
    45  H    6.762878   4.303953   4.871531   6.067437   6.562680
    46  H    9.054064   5.818140   6.192356   7.614957   8.431179
    47  H    9.167966   6.121877   6.823062   8.255027   8.898955
                   11         12         13         14         15
    11  C    0.000000
    12  C    1.398213   0.000000
    13  C    2.429002   1.453520   0.000000
    14  C    2.834763   2.511453   1.418702   0.000000
    15  C    4.225445   5.348825   6.493231   6.690284   0.000000
    16  C    3.834799   4.703073   6.001058   6.492833   1.417268
    17  C    2.619956   3.343508   4.715311   5.359622   2.508559
    18  C    1.471485   2.624714   3.842764   4.231031   2.834157
    19  C    3.717746   2.459724   1.426832   2.472420   7.669436
    20  C    2.484454   1.443013   2.522929   3.827088   5.672442
    21  C    3.715110   2.420046   2.839179   4.256437   6.978159
    22  C    4.195260   2.799842   2.433943   3.725746   7.862434
    23  C    5.018925   5.655804   6.988620   7.637636   2.480764
    24  C    5.259949   5.574122   6.925175   7.794776   3.726409
    25  C    4.489866   4.534488   5.890931   6.916944   4.274247
    26  C    3.147733   3.288944   4.706138   5.673107   3.808600
    27  C    2.924594   2.552772   3.896213   5.057763   5.062707
    28  C    4.441752   3.889116   5.061428   6.341218   6.266100
    29  C    5.424234   5.121645   6.363757   7.564543   5.735617
    30  C    5.401964   4.852001   5.999701   7.307841   6.550371
    31  H    6.352270   5.662058   6.680678   8.044240   7.616620
    32  H    4.874369   4.547732   5.779995   6.973404   6.340279
    33  H    2.687335   2.607317   3.940487   4.944397   5.012997
    34  H    6.385302   6.080410   7.270543   8.466355   6.296271
    35  H    6.315119   6.545224   7.869433   8.786695   4.600508
    36  H    5.951764   6.668447   7.968525   8.535151   2.703870
    37  H    5.297659   6.401021   7.526927   7.691360   1.085861
    38  H    5.629998   6.937629   7.688122   7.335899   2.883156
    39  H    5.610283   6.853036   7.169654   6.396986   4.685173
    40  H    5.226973   6.125308   5.864788   4.686060   6.396280
    41  H    4.660998   5.046082   4.276989   2.883472   7.335230
    42  H    3.918299   3.476178   2.155230   1.085730   7.697604
    43  H    4.591454   3.445484   2.168935   2.687434   8.564705
    44  H    5.279222   3.883868   3.416752   4.598936   8.874867
    45  H    3.234351   2.627411   3.436457   4.486351   5.181525
    46  H    4.616154   3.413682   3.920665   5.337803   7.492373
    47  H    4.792231   3.986122   4.923239   6.262611   7.182744
                   16         17         18         19         20
    16  C    0.000000
    17  C    1.453866   0.000000
    18  C    2.431666   1.399464   0.000000
    19  C    7.022493   5.699538   5.047432   0.000000
    20  C    4.700486   3.300059   3.174186   2.854397   0.000000
    21  C    5.957844   4.606614   4.538641   2.429568   1.383981
    22  C    6.994875   5.648304   5.312591   1.370681   2.445615
    23  C    1.427923   2.452211   3.712117   7.839029   5.335528
    24  C    2.433132   2.786711   4.176580   7.558836   4.917000
    25  C    2.860493   2.423143   3.705352   6.397734   3.662561
    26  C    2.509104   1.423159   2.462758   5.382357   2.632301
    27  C    3.902909   2.557261   2.931125   4.375224   1.545746
    28  C    4.978029   3.825075   4.421728   5.202109   2.609257
    29  C    4.323179   3.766214   4.916176   6.564392   3.927758
    30  C    5.156973   4.284453   5.191298   6.019922   3.490051
    31  H    6.216206   5.365321   6.242672   6.495581   4.239582
    32  H    5.085360   4.047048   4.680101   6.044743   3.447698
    33  H    4.018315   2.657539   2.712698   4.611216   2.083753
    34  H    4.913014   4.596258   5.818429   7.398314   4.890416
    35  H    3.415768   3.871486   5.259676   8.402077   5.774925
    36  H    2.170702   3.440735   4.591662   8.849690   6.404995
    37  H    2.154929   3.474988   3.917388   8.684481   6.675349
    38  H    4.275358   5.043385   4.656638   9.024676   7.725046
    39  H    5.862609   6.125162   5.223139   8.531729   7.988045
    40  H    7.167909   6.857451   5.609607   7.103488   7.509074
    41  H    7.686610   6.945541   5.632451   5.278043   6.469782
    42  H    7.531983   6.417086   5.306221   2.672182   4.674694
    43  H    8.001509   6.710642   5.974527   1.084881   3.939192
    44  H    7.959886   6.634272   6.375106   2.129665   3.411299
    45  H    4.223811   3.233262   3.471991   3.717055   2.105168
    46  H    6.338614   5.055833   5.241619   3.389503   2.142717
    47  H    5.945492   4.694300   5.070844   4.819957   2.688972
                   21         22         23         24         25
    21  C    0.000000
    22  C    1.417255   0.000000
    23  C    6.437744   7.596981   0.000000
    24  C    5.826348   7.086649   1.367819   0.000000
    25  C    4.496079   5.816440   2.446414   1.429865   0.000000
    26  C    3.751098   4.999520   2.836716   2.432716   1.385994
    27  C    2.578296   3.873108   4.367260   3.855820   2.550594
    28  C    2.972157   4.354088   5.085039   4.230686   2.843822
    29  C    4.340245   5.704721   3.776291   2.513608   1.463202
    30  C    3.639341   5.021299   4.868078   3.716768   2.437766
    31  H    4.066745   5.347791   5.837648   4.607256   3.432734
    32  H    3.953869   5.289081   5.166769   4.384470   3.161535
    33  H    3.200884   4.326460   4.698032   4.413028   3.265258
    34  H    5.175374   6.482744   4.095142   2.735755   2.194104
    35  H    6.542833   7.822461   2.126587   1.085192   2.166188
    36  H    7.498891   8.637737   1.084955   2.130155   3.428057
    37  H    7.950639   8.854079   2.687379   4.045969   4.883859
    38  H    9.018191   9.591065   5.284048   6.569549   7.096383
    39  H    9.170410   9.403422   7.097369   8.225834   8.423046
    40  H    8.434679   8.253163   8.513229   9.355123   9.136589
    41  H    7.088006   6.576404   8.997047   9.528262   8.967295
    42  H    4.858063   4.036706   8.655548   8.785442   7.888195
    43  H    3.413756   2.134358   8.850033   8.599777   7.460636
    44  H    2.160417   1.084251   8.464909   7.847440   6.553626
    45  H    2.577406   3.350201   4.605477   4.182514   3.255601
    46  H    1.082495   2.152305   6.601081   5.786078   4.406442
    47  H    2.608182   3.853033   6.136636   5.287393   3.878230
                   26         27         28         29         30
    26  C    0.000000
    27  C    1.538491   0.000000
    28  C    2.531601   1.547786   0.000000
    29  C    2.465812   2.920476   2.463915   0.000000
    30  C    2.863602   2.565122   1.504649   1.338704   0.000000
    31  H    3.943116   3.514517   2.241848   2.111253   1.085233
    32  H    2.901689   2.149641   1.099004   2.911451   2.109182
    33  H    2.101243   1.096339   2.122435   3.799060   3.406768
    34  H    3.414031   3.989921   3.465047   1.085536   2.114322
    35  H    3.401933   4.710850   4.819596   2.706872   4.009543
    36  H    3.921366   5.450243   6.120502   4.642989   5.811485
    37  H    4.661160   6.014496   7.124514   6.319129   7.262914
    38  H    6.450308   7.463043   8.835762   8.547501   9.287750
    39  H    7.490657   8.135461   9.644047   9.797790  10.317739
    40  H    7.975178   8.134724   9.665489  10.310280  10.531306
    41  H    7.718674   7.460482   8.891125   9.888084   9.845464
    42  H    6.682854   6.008206   7.207848   8.455439   8.146044
    43  H    6.453088   5.457523   6.244315   7.604643   7.041953
    44  H    5.876595   4.729842   4.946981   6.239622   5.461613
    45  H    2.713932   2.752675   3.717562   3.626144   3.795802
    46  H    3.955465   2.810102   2.628289   3.902356   3.016166
    47  H    3.472238   2.183679   1.091260   3.349618   2.159083
                   31         32         33         34         35
    31  H    0.000000
    32  H    2.749418   0.000000
    33  H    4.320311   2.250648   0.000000
    34  H    2.454476   3.866039   4.882463   0.000000
    35  H    4.718611   4.944935   5.332925   2.496064   0.000000
    36  H    6.729030   6.148079   5.749463   4.783187   2.451055
    37  H    8.302049   7.162489   6.012135   6.738375   4.733848
    38  H   10.362019   8.925597   7.238187   9.117816   7.379805
    39  H   11.372811   9.848376   7.820140  10.493967   9.151072
    40  H   11.497103  10.029030   7.802648  11.121622  10.367144
    41  H   10.685382   9.395191   7.192117  10.755237  10.554754
    42  H    8.809275   7.884133   5.934365   9.326691   9.753011
    43  H    7.454408   7.081524   5.656035   8.405666   9.435301
    44  H    5.585734   5.899935   5.238745   6.919608   8.496446
    45  H    4.540331   4.655500   3.622828   4.277468   4.919877
    46  H    3.209023   3.659074   3.569887   4.640716   6.359875
    47  H    2.468679   1.741365   2.602944   4.256687   5.853635
                   36         37         38         39         40
    36  H    0.000000
    37  H    2.454736   0.000000
    38  H    5.211767   2.770642   0.000000
    39  H    7.263585   4.947363   2.421527   0.000000
    40  H    8.973228   7.002482   5.013717   2.834248   0.000000
    41  H    9.683055   8.160821   6.800464   5.014152   2.422164
    42  H    9.542180   8.673212   8.169188   7.010468   4.953911
    43  H    9.840908   9.569277   9.706338   8.984706   7.259806
    44  H    9.499114   9.845975  10.637577  10.430211   9.185767
    45  H    5.557082   6.014007   7.261174   7.725825   7.538578
    46  H    7.650309   8.412806   9.737942  10.070322   9.471110
    47  H    7.184332   8.088681   9.633744  10.240440   9.982001
                   41         42         43         44         45
    41  H    0.000000
    42  H    2.774016   0.000000
    43  H    5.193817   2.428995   0.000000
    44  H    7.387617   4.723071   2.458048   0.000000
    45  H    6.771971   5.248551   4.653670   4.124332   0.000000
    46  H    8.168274   5.912922   4.279600   2.452824   3.022117
    47  H    8.958592   7.024568   5.790226   4.300759   4.103938
                   46         47
    46  H    0.000000
    47  H    2.124308   0.000000
 Stoichiometry    C30H17(2)
 Framework group  C1[X(C30H17)]
 Deg. of freedom   135
 Full point group                 C1      NOp   1
 Largest Abelian subgroup         C1      NOp   1
 Largest concise Abelian subgroup C1      NOp   1
                         Standard orientation:                         
 ---------------------------------------------------------------------
 Center     Atomic      Atomic             Coordinates (Angstroms)
 Number     Number       Type             X           Y           Z
 ---------------------------------------------------------------------
      1          6           0        1.893241   -2.648849    0.124460
      2          6           0        1.615940   -1.329307    0.504818
      3          6           0        2.611874   -0.332548    0.484591
      4          6           0        3.919070   -0.544171    0.114716
      5          6           0        3.298919   -2.926652   -0.111101
      6          6           0        4.258944   -1.934376   -0.116711
      7          6           0        1.970715    0.921282    0.471209
      8          6           0        2.642608    2.080784    0.067116
      9          6           0        4.065831    1.907232   -0.165294
     10          6           0        4.671429    0.667209   -0.145999
     11          6           0        0.578090    0.732222    0.501946
     12          6           0       -0.252827    1.805620    0.166696
     13          6           0        0.401211    3.048925   -0.206327
     14          6           0        1.814066    3.173396   -0.238940
     15          6           0        0.765935   -3.433991   -0.177587
     16          6           0       -0.537473   -2.878013   -0.151818
     17          6           0       -0.773137   -1.496453    0.234808
     18          6           0        0.353378   -0.721663    0.533411
     19          6           0       -0.434015    4.127846   -0.623672
     20          6           0       -1.688569    1.671712    0.111911
     21          6           0       -2.423005    2.771772   -0.295367
     22          6           0       -1.795684    3.982290   -0.682311
     23          6           0       -1.668500   -3.613369   -0.619785
     24          6           0       -2.894298   -3.018448   -0.739853
     25          6           0       -3.124134   -1.669196   -0.326081
     26          6           0       -2.078318   -0.929953    0.203795
     27          6           0       -2.314700    0.454951    0.830787
     28          6           0       -3.803919    0.619341    1.219174
     29          6           0       -4.448969   -1.063018   -0.461438
     30          6           0       -4.772214    0.041007    0.223230
     31          1           0       -5.758391    0.484152    0.129383
     32          1           0       -3.956950    0.086228    2.167953
     33          1           0       -1.766061    0.424634    1.779489
     34          1           0       -5.163194   -1.539413   -1.125757
     35          1           0       -3.730532   -3.583341   -1.138915
     36          1           0       -1.534175   -4.648314   -0.916387
     37          1           0        0.881695   -4.455837   -0.526190
     38          1           0        3.598654   -3.941200   -0.353742
     39          1           0        5.282058   -2.200547   -0.362246
     40          1           0        5.726314    0.598509   -0.392008
     41          1           0        4.663817    2.774951   -0.424875
     42          1           0        2.237858    4.110477   -0.586919
     43          1           0        0.028379    5.067744   -0.906073
     44          1           0       -2.413726    4.809499   -1.012990
     45          1           0       -1.672250    0.833235   -1.819001
     46          1           0       -3.503732    2.720863   -0.330470
     47          1           0       -4.028684    1.664866    1.436443
 ---------------------------------------------------------------------
 Rotational constants (GHZ):           0.2491980           0.1761189           0.1072497
 Standard basis: 6-311+G(d,p) (5D, 7F)
 There are   792 symmetry adapted cartesian basis functions of A   symmetry.
 There are   762 symmetry adapted basis functions of A   symmetry.
   762 basis functions,  1216 primitive gaussians,   792 cartesian basis functions
    99 alpha electrons       98 beta electrons
       nuclear repulsion energy      2672.4006140346 Hartrees.
 NAtoms=   47 NActive=   47 NUniq=   47 SFac= 1.00D+00 NAtFMM=   60 NAOKFM=F Big=F
 Integral buffers will be    131072 words long.
 Raffenetti 2 integral format.
 Two-electron integral symmetry is turned on.
 One-electron integrals computed using PRISM.
 NBasis=   762 RedAO= T EigKep=  1.03D-06  NBF=   762
 NBsUse=   742 1.00D-06 EigRej=  9.21D-07 NBFU=   742
 ExpMin= 4.38D-02 ExpMax= 4.56D+03 ExpMxC= 6.82D+02 IAcc=2 IRadAn=         4 AccDes= 0.00D+00
 Harris functional with IExCor=  402 and IRadAn=       4 diagonalized for initial guess.
 HarFok:  IExCor=  402 AccDes= 0.00D+00 IRadAn=         4 IDoV= 1 UseB2=F ITyADJ=14
 ICtDFT=  3500011 ScaDFX=  1.000000  1.000000  1.000000  1.000000
 FoFCou: FMM=F IPFlag=           0 FMFlag=      100000 FMFlg1=           0
         NFxFlg=           0 DoJE=T BraDBF=F KetDBF=T FulRan=T
         wScrn=  0.000000 ICntrl=       500 IOpCl=  0 I1Cent=   200000004 NGrid=           0
         NMat0=    1 NMatS0=      1 NMatT0=    0 NMatD0=    1 NMtDS0=    0 NMtDT0=    0
 Petite list used in FoFCou.
 Initial guess <Sx>= 0.0000 <Sy>= 0.0000 <Sz>= 0.5000 <S**2>= 0.7500 S= 0.5000
 Requested convergence on RMS density matrix=1.00D-08 within  32 cycles.
 Requested convergence on MAX density matrix=1.00D-06.
 Requested convergence on             energy=1.00D-06.
 No special actions if energy rises.
 Restarting incremental Fock formation.
 SCF Done:  E(UB3LYP) =  -1153.60736060     A.U. after   29 cycles
            NFock= 29  Conv=0.66D-08     -V/T= 2.0045
 <Sx>= 0.0000 <Sy>= 0.0000 <Sz>= 0.5000 <S**2>= 0.7642 S= 0.5071
 <L.S>=  0.00000000000    
 Annihilation of the first spin contaminant:
 S**2 before annihilation     0.7642,   after     0.7501
 QCSCF skips out because SCF is already converged.
 DoSCS=F DFT=T ScalE2(SS,OS)=  1.000000  1.000000
 Range of M.O.s used for correlation:     1   742
 NBasis=   762 NAE=    99 NBE=    98 NFC=     0 NFV=     0
 NROrb=    742 NOA=    99 NOB=    98 NVA=   643 NVB=   644

 **** Warning!!: The largest alpha MO coefficient is  0.13242299D+03


 **** Warning!!: The smallest alpha delta epsilon is  0.96000835D-01


 **** Warning!!: The largest beta MO coefficient is  0.13308497D+03


 **** Warning!!: The smallest beta delta epsilon is  0.94518400D-01

 Symmetrizing basis deriv contribution to polar:
 IMax=3 JMax=2 DiffMx= 0.00D+00
 G2DrvN: will do    48 centers at a time, making    1 passes.
 Calling FoFCou, ICntrl=  3107 FMM=F I1Cent=   0 AccDes= 0.00D+00.
 End of G2Drv F.D. properties file   721 does not exist.
 End of G2Drv F.D. properties file   722 does not exist.
 End of G2Drv F.D. properties file   788 does not exist.
          IDoAtm=11111111111111111111111111111111111111111111111
          Differentiating once with respect to nuclear coordinates.
 CalDSu exits because no D1Ps are significant.
          There are   144 degrees of freedom in the 1st order CPHF.  IDoFFX=6 NUNeed=     0.
    138 vectors produced by pass  0 Test12= 1.27D-13 1.00D-09 XBig12= 5.91D-01 1.52D-01.
 AX will form   138 AO Fock derivatives at one time.
    138 vectors produced by pass  1 Test12= 1.27D-13 1.00D-09 XBig12= 1.31D-01 6.16D-02.
    138 vectors produced by pass  2 Test12= 1.27D-13 1.00D-09 XBig12= 1.97D-03 5.21D-03.
    138 vectors produced by pass  3 Test12= 1.27D-13 1.00D-09 XBig12= 1.48D-05 4.31D-04.
    138 vectors produced by pass  4 Test12= 1.27D-13 1.00D-09 XBig12= 1.03D-07 3.47D-05.
    138 vectors produced by pass  5 Test12= 1.27D-13 1.00D-09 XBig12= 6.24D-10 1.71D-06.
    138 vectors produced by pass  6 Test12= 1.27D-13 1.00D-09 XBig12= 5.83D-11 6.00D-07.
    117 vectors produced by pass  7 Test12= 1.27D-13 1.00D-09 XBig12= 1.07D-11 1.83D-07.
     87 vectors produced by pass  8 Test12= 1.27D-13 1.00D-09 XBig12= 1.79D-12 5.37D-08.
     32 vectors produced by pass  9 Test12= 1.27D-13 1.00D-09 XBig12= 3.41D-14 8.63D-09.
      3 vectors produced by pass 10 Test12= 1.27D-13 1.00D-09 XBig12= 5.74D-16 1.28D-09.
      2 vectors produced by pass 11 Test12= 1.27D-13 1.00D-09 XBig12= 9.80D-16 1.85D-09.
      2 vectors produced by pass 12 Test12= 1.27D-13 1.00D-09 XBig12= 7.07D-16 1.18D-09.
      1 vectors produced by pass 13 Test12= 1.27D-13 1.00D-09 XBig12= 5.51D-16 1.11D-09.
 InvSVY:  IOpt=1 It=  1 EMax= 1.11D-15
 Solved reduced A of dimension  1210 with   144 vectors.
 End of Minotr F.D. properties file   721 does not exist.
 End of Minotr F.D. properties file   722 does not exist.
 End of Minotr F.D. properties file   788 does not exist.

 **********************************************************************

            Population analysis using the SCF Density.

 **********************************************************************

 Orbital symmetries:
 Alpha Orbitals:
       Occupied  (A) (A) (A) (A) (A) (A) (A) (A) (A) (A) (A) (A)
                 (A) (A) (A) (A) (A) (A) (A) (A) (A) (A) (A) (A)
                 (A) (A) (A) (A) (A) (A) (A) (A) (A) (A) (A) (A)
                 (A) (A) (A) (A) (A) (A) (A) (A) (A) (A) (A) (A)
                 (A) (A) (A) (A) (A) (A) (A) (A) (A) (A) (A) (A)
                 (A) (A) (A) (A) (A) (A) (A) (A) (A) (A) (A) (A)
                 (A) (A) (A) (A) (A) (A) (A) (A) (A) (A) (A) (A)
                 (A) (A) (A) (A) (A) (A) (A) (A) (A) (A) (A) (A)
                 (A) (A) (A)
       Virtual   (A) (A) (A) (A) (A) (A) (A) (A) (A) (A) (A) (A)
                 (A) (A) (A) (A) (A) (A) (A) (A) (A) (A) (A) (A)
                 (A) (A) (A) (A) (A) (A) (A) (A) (A) (A) (A) (A)
                 (A) (A) (A) (A) (A) (A) (A) (A) (A) (A) (A) (A)
                 (A) (A) (A) (A) (A) (A) (A) (A) (A) (A) (A) (A)
                 (A) (A) (A) (A) (A) (A) (A) (A) (A) (A) (A) (A)
                 (A) (A) (A) (A) (A) (A) (A) (A) (A) (A) (A) (A)
                 (A) (A) (A) (A) (A) (A) (A) (A) (A) (A) (A) (A)
                 (A) (A) (A) (A) (A) (A) (A) (A) (A) (A) (A) (A)
                 (A) (A) (A) (A) (A) (A) (A) (A) (A) (A) (A) (A)
                 (A) (A) (A) (A) (A) (A) (A) (A) (A) (A) (A) (A)
                 (A) (A) (A) (A) (A) (A) (A) (A) (A) (A) (A) (A)
                 (A) (A) (A) (A) (A) (A) (A) (A) (A) (A) (A) (A)
                 (A) (A) (A) (A) (A) (A) (A) (A) (A) (A) (A) (A)
                 (A) (A) (A) (A) (A) (A) (A) (A) (A) (A) (A) (A)
                 (A) (A) (A) (A) (A) (A) (A) (A) (A) (A) (A) (A)
                 (A) (A) (A) (A) (A) (A) (A) (A) (A) (A) (A) (A)
                 (A) (A) (A) (A) (A) (A) (A) (A) (A) (A) (A) (A)
                 (A) (A) (A) (A) (A) (A) (A) (A) (A) (A) (A) (A)
                 (A) (A) (A) (A) (A) (A) (A) (A) (A) (A) (A) (A)
                 (A) (A) (A) (A) (A) (A) (A) (A) (A) (A) (A) (A)
                 (A) (A) (A) (A) (A) (A) (A) (A) (A) (A) (A) (A)
                 (A) (A) (A) (A) (A) (A) (A) (A) (A) (A) (A) (A)
                 (A) (A) (A) (A) (A) (A) (A) (A) (A) (A) (A) (A)
                 (A) (A) (A) (A) (A) (A) (A) (A) (A) (A) (A) (A)
                 (A) (A) (A) (A) (A) (A) (A) (A) (A) (A) (A) (A)
                 (A) (A) (A) (A) (A) (A) (A) (A) (A) (A) (A) (A)
                 (A) (A) (A) (A) (A) (A) (A) (A) (A) (A) (A) (A)
                 (A) (A) (A) (A) (A) (A) (A) (A) (A) (A) (A) (A)
                 (A) (A) (A) (A) (A) (A) (A) (A) (A) (A) (A) (A)
                 (A) (A) (A) (A) (A) (A) (A) (A) (A) (A) (A) (A)
                 (A) (A) (A) (A) (A) (A) (A) (A) (A) (A) (A) (A)
                 (A) (A) (A) (A) (A) (A) (A) (A) (A) (A) (A) (A)
                 (A) (A) (A) (A) (A) (A) (A) (A) (A) (A) (A) (A)
                 (A) (A) (A) (A) (A) (A) (A) (A) (A) (A) (A) (A)
                 (A) (A) (A) (A) (A) (A) (A) (A) (A) (A) (A) (A)
                 (A) (A) (A) (A) (A) (A) (A) (A) (A) (A) (A) (A)
                 (A) (A) (A) (A) (A) (A) (A) (A) (A) (A) (A) (A)
                 (A) (A) (A) (A) (A) (A) (A) (A) (A) (A) (A) (A)
                 (A) (A) (A) (A) (A) (A) (A) (A) (A) (A) (A) (A)
                 (A) (A) (A) (A) (A) (A) (A) (A) (A) (A) (A) (A)
                 (A) (A) (A) (A) (A) (A) (A) (A) (A) (A) (A) (A)
                 (A) (A) (A) (A) (A) (A) (A) (A) (A) (A) (A) (A)
                 (A) (A) (A) (A) (A) (A) (A) (A) (A) (A) (A) (A)
                 (A) (A) (A) (A) (A) (A) (A) (A) (A) (A) (A) (A)
                 (A) (A) (A) (A) (A) (A) (A) (A) (A) (A) (A) (A)
                 (A) (A) (A) (A) (A) (A) (A) (A) (A) (A) (A) (A)
                 (A) (A) (A) (A) (A) (A) (A) (A) (A) (A) (A) (A)
                 (A) (A) (A) (A) (A) (A) (A) (A) (A) (A) (A) (A)
                 (A) (A) (A) (A) (A) (A) (A) (A) (A) (A) (A) (A)
                 (A) (A) (A) (A) (A) (A) (A) (A) (A) (A) (A) (A)
                 (A) (A) (A) (A) (A) (A) (A) (A) (A) (A) (A) (A)
                 (A) (A) (A) (A) (A) (A) (A) (A) (A) (A) (A) (A)
                 (A) (A) (A) (A) (A) (A) (A)
 Beta  Orbitals:
       Occupied  (A) (A) (A) (A) (A) (A) (A) (A) (A) (A) (A) (A)
                 (A) (A) (A) (A) (A) (A) (A) (A) (A) (A) (A) (A)
                 (A) (A) (A) (A) (A) (A) (A) (A) (A) (A) (A) (A)
                 (A) (A) (A) (A) (A) (A) (A) (A) (A) (A) (A) (A)
                 (A) (A) (A) (A) (A) (A) (A) (A) (A) (A) (A) (A)
                 (A) (A) (A) (A) (A) (A) (A) (A) (A) (A) (A) (A)
                 (A) (A) (A) (A) (A) (A) (A) (A) (A) (A) (A) (A)
                 (A) (A) (A) (A) (A) (A) (A) (A) (A) (A) (A) (A)
                 (A) (A)
       Virtual   (A) (A) (A) (A) (A) (A) (A) (A) (A) (A) (A) (A)
                 (A) (A) (A) (A) (A) (A) (A) (A) (A) (A) (A) (A)
                 (A) (A) (A) (A) (A) (A) (A) (A) (A) (A) (A) (A)
                 (A) (A) (A) (A) (A) (A) (A) (A) (A) (A) (A) (A)
                 (A) (A) (A) (A) (A) (A) (A) (A) (A) (A) (A) (A)
                 (A) (A) (A) (A) (A) (A) (A) (A) (A) (A) (A) (A)
                 (A) (A) (A) (A) (A) (A) (A) (A) (A) (A) (A) (A)
                 (A) (A) (A) (A) (A) (A) (A) (A) (A) (A) (A) (A)
                 (A) (A) (A) (A) (A) (A) (A) (A) (A) (A) (A) (A)
                 (A) (A) (A) (A) (A) (A) (A) (A) (A) (A) (A) (A)
                 (A) (A) (A) (A) (A) (A) (A) (A) (A) (A) (A) (A)
                 (A) (A) (A) (A) (A) (A) (A) (A) (A) (A) (A) (A)
                 (A) (A) (A) (A) (A) (A) (A) (A) (A) (A) (A) (A)
                 (A) (A) (A) (A) (A) (A) (A) (A) (A) (A) (A) (A)
                 (A) (A) (A) (A) (A) (A) (A) (A) (A) (A) (A) (A)
                 (A) (A) (A) (A) (A) (A) (A) (A) (A) (A) (A) (A)
                 (A) (A) (A) (A) (A) (A) (A) (A) (A) (A) (A) (A)
                 (A) (A) (A) (A) (A) (A) (A) (A) (A) (A) (A) (A)
                 (A) (A) (A) (A) (A) (A) (A) (A) (A) (A) (A) (A)
                 (A) (A) (A) (A) (A) (A) (A) (A) (A) (A) (A) (A)
                 (A) (A) (A) (A) (A) (A) (A) (A) (A) (A) (A) (A)
                 (A) (A) (A) (A) (A) (A) (A) (A) (A) (A) (A) (A)
                 (A) (A) (A) (A) (A) (A) (A) (A) (A) (A) (A) (A)
                 (A) (A) (A) (A) (A) (A) (A) (A) (A) (A) (A) (A)
                 (A) (A) (A) (A) (A) (A) (A) (A) (A) (A) (A) (A)
                 (A) (A) (A) (A) (A) (A) (A) (A) (A) (A) (A) (A)
                 (A) (A) (A) (A) (A) (A) (A) (A) (A) (A) (A) (A)
                 (A) (A) (A) (A) (A) (A) (A) (A) (A) (A) (A) (A)
                 (A) (A) (A) (A) (A) (A) (A) (A) (A) (A) (A) (A)
                 (A) (A) (A) (A) (A) (A) (A) (A) (A) (A) (A) (A)
                 (A) (A) (A) (A) (A) (A) (A) (A) (A) (A) (A) (A)
                 (A) (A) (A) (A) (A) (A) (A) (A) (A) (A) (A) (A)
                 (A) (A) (A) (A) (A) (A) (A) (A) (A) (A) (A) (A)
                 (A) (A) (A) (A) (A) (A) (A) (A) (A) (A) (A) (A)
                 (A) (A) (A) (A) (A) (A) (A) (A) (A) (A) (A) (A)
                 (A) (A) (A) (A) (A) (A) (A) (A) (A) (A) (A) (A)
                 (A) (A) (A) (A) (A) (A) (A) (A) (A) (A) (A) (A)
                 (A) (A) (A) (A) (A) (A) (A) (A) (A) (A) (A) (A)
                 (A) (A) (A) (A) (A) (A) (A) (A) (A) (A) (A) (A)
                 (A) (A) (A) (A) (A) (A) (A) (A) (A) (A) (A) (A)
                 (A) (A) (A) (A) (A) (A) (A) (A) (A) (A) (A) (A)
                 (A) (A) (A) (A) (A) (A) (A) (A) (A) (A) (A) (A)
                 (A) (A) (A) (A) (A) (A) (A) (A) (A) (A) (A) (A)
                 (A) (A) (A) (A) (A) (A) (A) (A) (A) (A) (A) (A)
                 (A) (A) (A) (A) (A) (A) (A) (A) (A) (A) (A) (A)
                 (A) (A) (A) (A) (A) (A) (A) (A) (A) (A) (A) (A)
                 (A) (A) (A) (A) (A) (A) (A) (A) (A) (A) (A) (A)
                 (A) (A) (A) (A) (A) (A) (A) (A) (A) (A) (A) (A)
                 (A) (A) (A) (A) (A) (A) (A) (A) (A) (A) (A) (A)
                 (A) (A) (A) (A) (A) (A) (A) (A) (A) (A) (A) (A)
                 (A) (A) (A) (A) (A) (A) (A) (A) (A) (A) (A) (A)
                 (A) (A) (A) (A) (A) (A) (A) (A) (A) (A) (A) (A)
                 (A) (A) (A) (A) (A) (A) (A) (A) (A) (A) (A) (A)
                 (A) (A) (A) (A) (A) (A) (A) (A)
 The electronic state is 2-A.
 Alpha  occ. eigenvalues --  -10.20231 -10.19994 -10.19759 -10.19742 -10.19688
 Alpha  occ. eigenvalues --  -10.19588 -10.19354 -10.19352 -10.19288 -10.19274
 Alpha  occ. eigenvalues --  -10.19226 -10.19169 -10.19140 -10.19104 -10.19094
 Alpha  occ. eigenvalues --  -10.19064 -10.19031 -10.18595 -10.18510 -10.18476
 Alpha  occ. eigenvalues --  -10.18293 -10.18276 -10.18251 -10.18154 -10.18150
 Alpha  occ. eigenvalues --  -10.18071 -10.17738 -10.16977 -10.16914 -10.16802
 Alpha  occ. eigenvalues --   -0.92195  -0.88516  -0.88145  -0.84975  -0.84089
 Alpha  occ. eigenvalues --   -0.83244  -0.80383  -0.79615  -0.78416  -0.77188
 Alpha  occ. eigenvalues --   -0.75213  -0.74549  -0.72730  -0.71434  -0.70933
 Alpha  occ. eigenvalues --   -0.66578  -0.65719  -0.64200  -0.63396  -0.62800
 Alpha  occ. eigenvalues --   -0.59817  -0.59156  -0.58300  -0.56779  -0.56145
 Alpha  occ. eigenvalues --   -0.53182  -0.51894  -0.51491  -0.51040  -0.49949
 Alpha  occ. eigenvalues --   -0.48962  -0.47715  -0.47297  -0.46280  -0.45503
 Alpha  occ. eigenvalues --   -0.45233  -0.44638  -0.43901  -0.43579  -0.42901
 Alpha  occ. eigenvalues --   -0.42746  -0.42332  -0.40813  -0.40587  -0.40268
 Alpha  occ. eigenvalues --   -0.40002  -0.39929  -0.39508  -0.38981  -0.38189
 Alpha  occ. eigenvalues --   -0.36913  -0.36065  -0.35401  -0.34995  -0.34425
 Alpha  occ. eigenvalues --   -0.34049  -0.33986  -0.33452  -0.32417  -0.32160
 Alpha  occ. eigenvalues --   -0.30119  -0.29032  -0.28008  -0.27188  -0.24832
 Alpha  occ. eigenvalues --   -0.23734  -0.22702  -0.20433  -0.19844
 Alpha virt. eigenvalues --   -0.10244  -0.05871  -0.03564  -0.03397  -0.01727
 Alpha virt. eigenvalues --   -0.00452   0.00030   0.00529   0.00668   0.01087
 Alpha virt. eigenvalues --    0.01453   0.01697   0.01771   0.02476   0.03068
 Alpha virt. eigenvalues --    0.03151   0.03694   0.03731   0.04207   0.04462
 Alpha virt. eigenvalues --    0.04783   0.05116   0.05669   0.06286   0.06457
 Alpha virt. eigenvalues --    0.06655   0.07091   0.07365   0.07648   0.08234
 Alpha virt. eigenvalues --    0.08497   0.08536   0.08793   0.09487   0.09759
 Alpha virt. eigenvalues --    0.10071   0.10103   0.10701   0.10948   0.11340
 Alpha virt. eigenvalues --    0.11566   0.11913   0.12255   0.12708   0.12928
 Alpha virt. eigenvalues --    0.13136   0.13656   0.13967   0.14542   0.14797
 Alpha virt. eigenvalues --    0.15164   0.15234   0.15291   0.15417   0.15928
 Alpha virt. eigenvalues --    0.16044   0.16253   0.16529   0.16916   0.17128
 Alpha virt. eigenvalues --    0.17318   0.17473   0.17560   0.17860   0.17965
 Alpha virt. eigenvalues --    0.18174   0.18283   0.18705   0.18834   0.19014
 Alpha virt. eigenvalues --    0.19143   0.19433   0.19593   0.19807   0.19980
 Alpha virt. eigenvalues --    0.20127   0.20280   0.20852   0.20910   0.21090
 Alpha virt. eigenvalues --    0.21153   0.21425   0.21560   0.22045   0.22154
 Alpha virt. eigenvalues --    0.22436   0.22666   0.22884   0.23034   0.23209
 Alpha virt. eigenvalues --    0.23628   0.23979   0.24108   0.24262   0.24514
 Alpha virt. eigenvalues --    0.24655   0.25031   0.25201   0.25482   0.25520
 Alpha virt. eigenvalues --    0.25622   0.25778   0.26079   0.26537   0.26681
 Alpha virt. eigenvalues --    0.26914   0.27118   0.27359   0.27541   0.27798
 Alpha virt. eigenvalues --    0.28198   0.28595   0.28886   0.29193   0.29291
 Alpha virt. eigenvalues --    0.29745   0.30122   0.30185   0.30553   0.30682
 Alpha virt. eigenvalues --    0.31202   0.31430   0.31511   0.31752   0.32178
 Alpha virt. eigenvalues --    0.32280   0.32762   0.32892   0.33318   0.33578
 Alpha virt. eigenvalues --    0.33848   0.34172   0.34613   0.35076   0.35465
 Alpha virt. eigenvalues --    0.36122   0.36391   0.36615   0.36877   0.37445
 Alpha virt. eigenvalues --    0.37625   0.37939   0.38576   0.38974   0.39199
 Alpha virt. eigenvalues --    0.39790   0.40126   0.40945   0.41391   0.41768
 Alpha virt. eigenvalues --    0.42273   0.42789   0.43516   0.44129   0.45110
 Alpha virt. eigenvalues --    0.45597   0.46147   0.46336   0.47370   0.47888
 Alpha virt. eigenvalues --    0.48992   0.50091   0.50575   0.51118   0.51442
 Alpha virt. eigenvalues --    0.51733   0.52586   0.52905   0.53321   0.53457
 Alpha virt. eigenvalues --    0.53882   0.54253   0.54634   0.54756   0.55865
 Alpha virt. eigenvalues --    0.56108   0.56187   0.56745   0.57019   0.57371
 Alpha virt. eigenvalues --    0.57480   0.57974   0.58387   0.58504   0.59031
 Alpha virt. eigenvalues --    0.59556   0.59796   0.59928   0.60649   0.60725
 Alpha virt. eigenvalues --    0.61342   0.61551   0.61943   0.62374   0.62416
 Alpha virt. eigenvalues --    0.63387   0.63952   0.64432   0.65372   0.65398
 Alpha virt. eigenvalues --    0.65727   0.66242   0.66632   0.67242   0.67723
 Alpha virt. eigenvalues --    0.68236   0.68484   0.68895   0.69113   0.70111
 Alpha virt. eigenvalues --    0.70385   0.70750   0.70920   0.71187   0.71359
 Alpha virt. eigenvalues --    0.71554   0.72055   0.72134   0.72450   0.72741
 Alpha virt. eigenvalues --    0.73097   0.73276   0.73727   0.73943   0.74040
 Alpha virt. eigenvalues --    0.74469   0.75188   0.75585   0.75905   0.76083
 Alpha virt. eigenvalues --    0.76594   0.77027   0.77494   0.77706   0.77822
 Alpha virt. eigenvalues --    0.78445   0.79143   0.80158   0.80641   0.81180
 Alpha virt. eigenvalues --    0.82450   0.82574   0.83204   0.83548   0.84321
 Alpha virt. eigenvalues --    0.84826   0.85371   0.85652   0.86138   0.86597
 Alpha virt. eigenvalues --    0.87237   0.87692   0.88320   0.88840   0.89070
 Alpha virt. eigenvalues --    0.89602   0.89865   0.90133   0.90366   0.91029
 Alpha virt. eigenvalues --    0.91235   0.91726   0.92386   0.92528   0.93585
 Alpha virt. eigenvalues --    0.93810   0.93830   0.94593   0.94741   0.95023
 Alpha virt. eigenvalues --    0.95660   0.96220   0.96906   0.97064   0.97762
 Alpha virt. eigenvalues --    0.98209   0.99080   1.00189   1.00417   1.01354
 Alpha virt. eigenvalues --    1.01872   1.01962   1.02438   1.03335   1.03811
 Alpha virt. eigenvalues --    1.04975   1.05539   1.05814   1.07021   1.07318
 Alpha virt. eigenvalues --    1.07531   1.08087   1.08406   1.09509   1.09857
 Alpha virt. eigenvalues --    1.10225   1.10918   1.11132   1.11893   1.12550
 Alpha virt. eigenvalues --    1.13027   1.13913   1.15485   1.16838   1.19094
 Alpha virt. eigenvalues --    1.19481   1.20850   1.21418   1.21910   1.22411
 Alpha virt. eigenvalues --    1.23863   1.24801   1.26722   1.27578   1.28777
 Alpha virt. eigenvalues --    1.29794   1.30726   1.32074   1.32701   1.33822
 Alpha virt. eigenvalues --    1.35333   1.36745   1.37455   1.38917   1.40066
 Alpha virt. eigenvalues --    1.40335   1.40914   1.42692   1.44494   1.45012
 Alpha virt. eigenvalues --    1.45593   1.46104   1.46333   1.46892   1.47078
 Alpha virt. eigenvalues --    1.48216   1.48996   1.49682   1.50639   1.51158
 Alpha virt. eigenvalues --    1.51336   1.51847   1.52381   1.52712   1.53242
 Alpha virt. eigenvalues --    1.54077   1.54742   1.55164   1.55957   1.57063
 Alpha virt. eigenvalues --    1.57619   1.57751   1.58151   1.58811   1.59147
 Alpha virt. eigenvalues --    1.60667   1.61323   1.61616   1.61874   1.62351
 Alpha virt. eigenvalues --    1.63336   1.64251   1.64583   1.65347   1.65848
 Alpha virt. eigenvalues --    1.66508   1.67057   1.67528   1.68881   1.69352
 Alpha virt. eigenvalues --    1.70347   1.70754   1.70921   1.71926   1.72755
 Alpha virt. eigenvalues --    1.73259   1.74020   1.74757   1.75499   1.76127
 Alpha virt. eigenvalues --    1.76477   1.76817   1.77652   1.78302   1.79491
 Alpha virt. eigenvalues --    1.80117   1.80403   1.81005   1.82102   1.82955
 Alpha virt. eigenvalues --    1.84131   1.84735   1.84914   1.85395   1.85867
 Alpha virt. eigenvalues --    1.86273   1.86663   1.87373   1.87866   1.88553
 Alpha virt. eigenvalues --    1.89540   1.90035   1.90212   1.90623   1.90975
 Alpha virt. eigenvalues --    1.91634   1.92453   1.92620   1.93831   1.94250
 Alpha virt. eigenvalues --    1.95423   1.95756   1.96013   1.96985   1.97059
 Alpha virt. eigenvalues --    1.98359   1.98519   1.98838   1.99728   2.00007
 Alpha virt. eigenvalues --    2.01456   2.01808   2.03587   2.03782   2.04680
 Alpha virt. eigenvalues --    2.04841   2.05680   2.06401   2.07274   2.08985
[...]
 0.00000616,0.00001811,-0.00001738,-0.00000333,-0.00003868,0.00000473,0
 .00000994,0.00000986,0.00003658,0.00000018,-0.00007143,-0.00003056,0.0
 0000987,-0.00003122,0.00005839,-0.00024509,-0.00000354,-0.00000578,-0.
 00003058,0.00001258,0.00001571,0.00001915,0.00009746,0.00005283,-0.000
 09511,-0.00059161,0.00009662,-0.00027911,-0.00160282,0.00187399,0.0020
 4267,0.00004535,0.00013426,0.00006816,0.00000119,-0.00000795,0.0000041
 9,0.00001383,-0.00000061,-0.00001245,-0.00000907,-0.00006250,-0.000057
 46,-0.00000437,0.00001826,0.00000143,-0.00361410,0.00588742,-0.0010233
 9,-0.00375519,-0.00266744,0.00258575,0.01687067,-0.01665880,0.00688517
 ,0.12078517,-0.22072613,0.06776658,-0.00001715,-0.00004216,-0.00001411
 ,0.00002505,0.00001751,-0.00002279,0.00004969,-0.00008800,-0.00000533,
 -0.00016906,0.00005368,0.00028391,0.00100089,-0.00047446,-0.00007019,0
 .00007329,-0.00005400,-0.00004832,0.00002843,-0.00000687,0.00001208,0.
 00000986,0.00006231,0.00002402,-0.00004130,-0.00000961,-0.00001697,-0.
 00004079,0.00000391,0.00001426,-0.00007331,-0.00020412,0.00016792,-0.0
 0001121,-0.00001198,-0.00000879,-0.00000552,-0.00001706,-0.00000580,0.
 00000298,-0.00000568,0.00000284,0.00000301,-0.00000358,-0.00000318,0.0
 0000085,-0.00000417,-0.00000313,0.00000478,0.00000014,-0.00000145,0.00
 000457,0.00000108,0.00000408,0.00000401,0.00000380,-0.00000196,0.00000
 871,0.00001649,0.00006180,0.00041930,0.00030141,-0.00165111,-0.1291928
 1,0.23169236,0.00001159,-0.00009146,-0.00002005,-0.00010845,0.00009058
 ,-0.00001446,0.00001849,0.00001407,0.00002602,0.00002860,0.00000050,-0
 .00001252,-0.00002033,0.00000036,0.00000907,-0.00000871,0.00002312,0.0
 0000005,0.00007274,0.00010164,0.00005362,-0.00002092,-0.00025679,-0.00
 069502,-0.00001566,-0.00004433,-0.00007972,0.00000090,-0.00000741,0.00
 006267,-0.00011549,0.00004365,-0.00053056,0.00052127,-0.00044594,-0.00
 047931,-0.00014091,0.00183998,0.00809817,-0.00018380,0.00024949,0.0002
 5040,0.00001917,0.00002145,0.00000772,-0.00000539,-0.00002377,0.000009
 35,0.00002463,-0.00000812,-0.00000097,0.00003421,-0.00012526,0.0000551
 9,-0.00023814,0.00115953,0.00341770,0.00059829,0.00223038,0.00399004,-
 0.00510487,0.00543816,0.00073285,-0.04615135,0.06755693,-0.06111418,0.
 00000759,0.00001490,0.00000560,0.00000723,-0.00000614,0.00000699,0.000
 00118,0.00004121,0.00001405,0.00004800,0.00007975,-0.00008374,-0.00019
 907,0.00002491,0.00022570,0.00002990,0.00000012,-0.00006390,-0.0000020
 3,0.00000507,-0.00001753,0.00001048,-0.00001533,0.00001097,0.00000755,
 0.00000385,0.00000899,0.00000033,0.00002578,-0.00000270,-0.00003375,-0
 .00000154,0.00003560,0.00000029,-0.00000404,0.00000210,0.00000177,0.00
 000294,0.00000233,0.00000023,0.00000111,0.00000218,0.00000121,0.000003
 26,0.00000051,-0.00000365,0.00000313,-0.00000374,-0.00000253,0.0000012
 9,0.00000153,0.00000221,0.00000151,0.00001423,-0.00000475,-0.00000095,
 -0.00000089,0.00000101,0.00006909,0.00020841,0.00029603,-0.00173122,-0
 .00447013,0.05043362,-0.07533068,0.05274443,0.00005428,-0.00002817,0.0
 0000852,-0.00031424,-0.00003341,0.00000785,0.00019968,0.00013365,-0.00
 002814,-0.00017051,-0.00012730,0.00002601,0.00001642,0.00000001,-0.000
 01068,0.00000988,-0.00004072,-0.00000590,0.00023402,-0.00007399,0.0002
 2429,-0.00026494,0.00008499,-0.00000381,0.00016484,-0.00006342,-0.0000
 1438,-0.00007769,0.00018089,-0.00000321,-0.00023530,-0.00017398,-0.001
 07652,-0.00233324,-0.00111933,-0.00310033,-0.00046453,0.00006473,-0.00
 040409,0.00016127,0.00008138,0.00002807,-0.00000484,0.00003664,-0.0000
 1908,-0.00002869,0.00005748,0.00000113,-0.00012461,-0.00004787,0.00011
 287,0.00008409,-0.00055916,-0.00003048,0.00047840,0.00013107,0.0001273
 8,-0.00194952,-0.00074895,0.00041832,0.00047592,0.00311344,0.00130740,
 -0.00071048,-0.00018369,0.00044388,0.00000478,-0.00004348,-0.00001308,
 -0.00001113,0.00006043,0.00003830,-0.00028966,-0.00016176,0.00018183,0
 .00006506,-0.00004376,0.00012902,0.00032476,-0.00007605,0.00189741,0.0
 0006964,-0.00001871,0.00000609,0.00016248,-0.00014770,0.00004330,0.000
 09354,-0.00005668,-0.00004737,0.00000679,-0.00000527,-0.00000753,-0.00
 003636,0.00000697,-0.00001201,-0.00022082,-0.00006388,0.00017483,0.000
 03174,0.00002346,-0.00000845,0.00000891,0.00000970,-0.00000553,0.00000
 099,-0.00000106,0.00000480,0.00000440,-0.00000031,0.00000364,-0.000000
 22,0.00000521,0.00000230,-0.00000301,-0.00000017,0.00000566,0.00000003
 ,0.00000428,0.00000081,-0.00000762,-0.00000516,0.00000843,0.00000227,-
 0.00001199,0.00000023,0.00000703,-0.00001006,-0.00000910,-0.00001461,-
 0.00006384,-0.00004385,0.00449418,0.00004125,0.00015269,0.00006635,0.0
 0061373,-0.00013788,0.00006142,0.00006273,-0.00080083,-0.00001988,-0.0
 0036793,-0.00015564,0.00004045,-0.00012678,-0.00001232,-0.00000816,0.0
 0006347,0.00005564,-0.00001209,-0.00180762,-0.00015645,0.00037516,-0.0
 0016587,0.00092823,-0.00017934,0.00018847,-0.00010125,-0.00007142,0.00
 011759,0.00032945,-0.00004889,0.00267617,-0.00160371,0.00060403,-0.007
 23585,-0.00052542,-0.00442375,-0.00046183,0.00071246,-0.00051259,0.000
 76393,-0.00028031,-0.00011004,-0.00002704,-0.00014523,-0.00004276,0.00
 011839,0.00012429,0.00008982,0.00078535,-0.00055191,0.00052966,-0.0002
 5824,0.00050110,-0.00020294,-0.00144251,-0.00018097,0.00095839,-0.0008
 1416,0.00919986,0.01327953,0.00475290,-0.01507065,-0.00466952,0.003576
 46,0.00248182,-0.00178394,0.00007563,-0.00004299,-0.00002278,-0.000180
 85,0.00033700,-0.00005414,-0.00106820,-0.00111193,-0.00006817,-0.00028
 254,0.00074361,-0.00019584,0.00032018,0.00054796,0.00079866,0.00000422
 ,-0.00012246,0.00001084,0.00026157,-0.00030030,-0.00001928,0.00013398,
 0.00022803,0.00015180,-0.00003516,-0.00001677,-0.00002083,-0.00011169,
 -0.00002289,0.00001406,-0.00011772,-0.00035890,0.00024337,-0.00000135,
 -0.00003522,0.00000917,-0.00000654,-0.00000559,0.00000227,0.00000139,-
 0.00000767,0.00000736,-0.00000223,-0.00000383,-0.00000908,0.00000817,-
 0.00000722,-0.00000142,0.00000564,-0.00000069,0.00000156,0.00000262,0.
 00000583,0.00000524,0.00001632,0.00000273,0.00001073,0.00004975,0.0000
 1537,-0.00001286,-0.00000686,0.00006472,0.00001042,0.00008148,0.000210
 36,0.00007835,0.00004699,0.00475990,0.00021982,0.00045871,0.00019166,0
 .00076665,-0.00037897,0.00016538,0.00075898,-0.00140965,-0.00001174,-0
 .00131087,-0.00045663,0.00017457,-0.00016936,-0.00001286,-0.00004790,0
 .00015302,-0.00003139,-0.00005735,-0.00325205,-0.00022280,0.00075720,-
 0.00083645,0.00178830,-0.00035690,0.00075440,-0.00042449,-0.00017973,0
 .00021261,0.00110832,-0.00014641,0.00451448,-0.00424341,0.00025135,-0.
 01632553,-0.00172538,-0.00812475,-0.00135399,0.00175067,-0.00139027,0.
 00170499,-0.00045642,-0.00006040,-0.00018972,-0.00030816,-0.00019163,0
 .00008348,0.00016237,0.00013838,-0.00085182,-0.00012999,0.00002470,0.0
 0020876,0.00142784,-0.00030508,-0.00389379,-0.00172305,0.00134446,0.00
 072499,0.02943320,0.03214850,0.00867038,-0.02612369,-0.00253314,0.0075
 1860,0.00627225,-0.00288408,-0.00006965,0.00003926,0.00006152,-0.00008
 530,-0.00034211,-0.00007094,0.00072975,0.00035793,-0.00104439,0.000638
 66,-0.00109151,-0.00019741,0.00075660,0.00113854,-0.00858759,0.0000627
 6,-0.00016605,-0.00012742,-0.00033664,0.00016008,-0.00010651,0.0000530
 7,-0.00012211,0.00024768,-0.00002803,-0.00004206,-0.00001703,-0.000049
 51,-0.00003490,0.00006971,0.00053182,0.00010080,-0.00102320,0.00003327
 ,0.00002801,-0.00003276,0.00000046,-0.00002465,0.00002201,-0.00001316,
 -0.00001074,-0.00001659,0.00000235,-0.00001884,-0.00000023,0.00002014,
 -0.00000571,-0.00000236,0.00000112,-0.00000275,0.00001095,0.00000104,0
 .00002328,0.00002018,0.00002555,-0.00000979,0.00002557,0.00007918,-0.0
 0000615,-0.00004635,-0.00004917,0.00012844,0.00003574,0.00017695,0.000
 20541,0.00004866,-0.00019393,-0.00544175,-0.00906929,0.00007576,-0.000
 03765,0.00000264,-0.00005967,0.00012330,0.00001140,-0.00012286,-0.0000
 4923,0.00002658,-0.00001076,-0.00003594,-0.00001543,-0.00009705,0.0000
 1124,0.00001282,0.00004184,0.00006324,0.00000269,-0.00006109,0.0003292
 8,-0.00007771,-0.00003278,0.00006727,-0.00002072,0.00006550,-0.0000128
 8,-0.00001877,-0.00001019,0.00006596,0.00000100,-0.00070414,-0.0007625
 6,0.00004105,0.00043529,0.00293549,-0.00071711,0.00042994,0.00015036,-
 0.00000834,0.00006125,-0.00005767,0.00001870,-0.00003815,0.00001022,-0
 .00000868,0.00002491,-0.00004709,0.00000072,-0.00023861,0.00004451,0.0
 0001049,0.00009036,-0.00004449,-0.00001810,0.00092501,-0.00254955,0.00
 078119,-0.01406769,-0.00113799,-0.00023795,-0.33637197,-0.01206610,-0.
 00956391,-0.00992750,0.00168528,-0.00155779,0.00005054,-0.00001486,-0.
 00000582,-0.00000480,0.00005743,0.00005062,0.00004533,0.00004089,-0.00
 003781,0.00024073,-0.00003647,-0.00030673,-0.00064561,-0.00058989,0.00
 119630,-0.00002027,-0.00057620,0.00132316,-0.00026766,0.00006299,-0.00
 002708,0.00049597,-0.00028188,0.00038285,-0.00009991,-0.00000887,-0.00
 003178,0.00021263,-0.00051227,-0.00007111,-0.00000588,-0.00004810,0.00
 000289,0.00001384,-0.00003458,-0.00000232,0.00000229,0.00000642,0.0000
 0776,0.00000454,0.00000046,0.00000223,0.00000226,0.00000175,0.00000251
 ,-0.00000114,0.00000403,-0.00000266,-0.00000518,0.00000881,0.00000396,
 -0.00000667,0.00000449,0.00000190,-0.00000423,-0.00000447,0.00000549,0
 .00000169,-0.00001142,0.00000241,-0.00058824,0.00011075,-0.00005941,0.
 00084436,-0.00017537,0.00019746,0.00011459,-0.00029432,-0.00049042,0.3
 5893707,-0.00013460,-0.00003134,-0.00002869,0.00001046,-0.00003824,-0.
 00001225,0.00014852,0.00003196,-0.00001007,0.00003576,0.00008985,0.000
 00545,0.00011746,0.00000440,-0.00000961,-0.00004366,-0.00009535,-0.000
 00705,0.00011697,-0.00037469,-0.00019003,0.00012576,-0.00017172,0.0000
 7874,-0.00010803,0.00008858,0.00004259,-0.00000516,-0.00012514,0.00000
 797,0.00116548,0.00103382,0.00001010,0.00168641,-0.00370527,0.00359113
 ,0.00047298,-0.00069869,0.00005364,-0.00032791,0.00014262,-0.00025505,
 0.00012459,-0.00001338,0.00001840,-0.00012731,-0.00001966,-0.00003033,
 0.00012119,0.00001778,0.00001495,-0.00004842,0.00001890,0.00006181,-0.
 00152561,-0.00391290,0.00291628,0.02634669,0.00445561,0.00043922,-0.01
 311586,-0.05513124,0.00518903,-0.02819577,0.00183594,-0.00062956,0.000
 06167,0.00001183,0.00003740,-0.00009875,0.00006907,-0.00003157,0.00024
 627,-0.00018621,0.00001096,-0.00021865,-0.00028372,0.00007361,0.000021
 39,0.00028847,-0.00133645,-0.00030635,-0.00126136,0.00104131,0.0001408
 0,0.00002538,0.00001560,-0.00043867,-0.00014752,-0.00015776,-0.0001288
 2,-0.00004549,0.00006296,0.00005185,0.00009751,-0.00007957,-0.00000711
 ,0.00028888,-0.00017617,-0.00002581,0.00002297,0.00002714,0.00000266,-
 0.00000847,-0.00000679,-0.00000728,0.00000853,-0.00000053,-0.00000369,
 0.00000729,-0.00000358,0.00000020,0.00000092,0.00000389,0.00000205,-0.
 00000947,0.00000397,-0.00000165,-0.00000156,-0.00000639,0.00000752,-0.
 00000014,-0.00000602,0.00007709,0.00003542,0.00000537,-0.00127032,-0.0
 0013833,-0.00012016,0.00045415,0.00055448,-0.00109589,-0.00014268,0.00
 040302,0.00039295,0.01512489,0.05705797,-0.00002838,-0.00007840,-0.000
 01089,0.00004988,0.00008097,0.00001361,-0.00003673,-0.00020986,-0.0000
 9100,-0.00004913,-0.00008242,0.00008166,-0.00005835,0.00001232,0.00000
 149,0.00004011,0.00003327,0.00002166,-0.00057193,-0.00018659,-0.000773
 99,-0.00005356,0.00043863,-0.00001838,0.00011597,0.00004968,0.00011341
 ,-0.00003723,0.00009914,-0.00002713,-0.00011795,-0.00024261,0.00042021
 ,-0.00147201,0.00442478,0.00633270,-0.00045772,0.00016305,-0.00076865,
 0.00056540,-0.00039018,-0.00055057,0.00010911,-0.00000461,0.00000860,-
 0.00004075,-0.00008905,-0.00007647,-0.00000303,-0.00004121,-0.00003170
 ,0.00011192,-0.00020277,0.00018417,0.00115807,0.00282005,0.00428910,-0
 .00524096,-0.00316782,0.00284856,-0.01137640,0.00907798,-0.03873678,0.
 00794418,-0.00053290,0.00425042,0.00006373,-0.00002805,0.00002866,0.00
 001462,0.00013145,-0.00004598,0.00016723,-0.00013350,0.00000754,-0.000
 27008,-0.00048466,0.00061363,-0.00040043,-0.00250375,-0.00304142,-0.00
 020812,0.00130066,-0.00030352,-0.00020149,0.00002002,-0.00017374,0.000
 30678,-0.00005563,0.00032944,-0.00004544,-0.00000006,0.00007520,-0.000
 07482,-0.00039514,-0.00003201,0.00016938,0.00053766,-0.00022102,0.0000
 0515,-0.00004259,-0.00005449,-0.00000569,-0.00001665,0.00000601,0.0000
 0732,-0.00000148,0.00000796,0.00000305,0.00000208,-0.00000157,0.000000
 87,0.00000005,-0.00000071,0.00000097,0.00000278,0.00000584,-0.00000531
 ,0.00000278,-0.00001854,-0.00000633,-0.00000257,0.00000086,-0.00001859
 ,0.00001797,0.00001793,0.00047410,0.00006419,0.00005734,0.00002205,-0.
 00124337,-0.00245813,-0.00017008,0.00062450,0.00093891,0.00871677,-0.0
 1092684,0.02848836,0.00004072,0.00003615,0.00001366,0.00012064,-0.0001
 1181,-0.00000541,-0.00006825,-0.00000364,0.00000759,0.00005952,0.00002
 602,-0.00001096,0.00001982,-0.00002410,-0.00000437,-0.00001805,-0.0000
 0528,0.00000127,-0.00009794,-0.00009815,0.00000543,0.00007345,0.000040
 03,0.00000793,-0.00009952,-0.00000109,0.00002116,0.00003538,-0.0000782
 5,-0.00000170,0.00020154,0.00007185,0.00004124,-0.00020813,0.00008383,
 -0.00012308,0.00000306,0.00013015,0.00002563,-0.00000827,-0.00002740,-
 0.00000887,-0.00000490,0.00017057,0.00004973,-0.00036390,0.00004009,-0
 .00011098,0.00034234,0.00172679,0.00066561,0.00005100,0.00016127,-0.00
 000666,0.00025851,0.00001390,0.00003625,0.00162103,0.00094566,-0.00043
 851,-0.00008169,-0.00032859,0.00021119,-0.00013492,-0.00051275,0.00000
 298,-0.00007323,0.00010829,0.00004260,0.00016700,-0.00009763,-0.000041
 77,-0.00092012,0.00004135,0.00025203,-0.00593705,-0.00124032,0.0002871
 5,-0.00618084,0.02909722,0.00664412,-0.05972029,0.05237913,0.00929578,
 -0.00282503,-0.00127134,-0.00305419,0.00511900,-0.02294188,-0.00267279
 ,0.00091992,0.00029021,0.00038987,0.00081434,-0.00356807,-0.00086358,-
 0.00033113,0.00002602,-0.00034167,0.00052616,-0.00019816,-0.00120661,0
 .00000758,0.00009264,0.00001276,0.00000582,-0.00000278,0.00002721,-0.0
 0005039,0.00003500,-0.00002588,-0.00000139,-0.00000082,0.00000077,-0.0
 0000127,-0.00000325,0.00000028,-0.00000106,-0.00000585,0.00000016,0.00
 000140,0.00000108,-0.00000547,0.00000710,-0.00000291,-0.00000968,0.000
 02700,0.00000619,0.00001741,-0.00001337,0.00001066,0.00002767,-0.00000
 796,0.00004689,0.00009553,0.00027635,-0.00038069,0.00090386,0.06645003
 ,0.00011359,-0.00006378,0.00000258,-0.00017390,0.00007266,0.00001010,0
 .00005893,0.00008362,-0.00001088,-0.00002569,-0.00011706,0.00000313,-0
 .00011038,0.00000039,0.00001140,0.00005083,0.00007950,0.00000598,0.000
 10128,0.00000994,-0.00000246,-0.00013365,0.00008007,-0.00001035,0.0001
 1015,-0.00005061,-0.00000725,-0.00002160,0.00011343,-0.00000583,-0.000
 08441,0.00002873,-0.00005761,0.00047342,0.00034921,-0.00001624,-0.0000
 2819,-0.00012158,0.00006228,0.00014806,0.00000296,-0.00001365,-0.00005
 567,0.00001463,-0.00001792,0.00009410,0.00000643,0.00005969,-0.0002810
 2,-0.00010868,-0.00016078,0.00008035,-0.00017994,0.00003486,-0.0000661
 2,-0.00011935,-0.00007095,-0.00092957,-0.00031669,0.00091759,-0.000707
 12,-0.00068542,0.00192591,-0.00032844,0.00022061,-0.00002521,-0.000012
 00,-0.00004022,-0.00001698,0.00008337,-0.00001447,0.00001035,-0.000227
 75,0.00040194,0.00054809,0.00050178,0.00068819,0.00059274,0.00114709,-
 0.00169839,-0.00071304,0.05271143,-0.28853749,-0.04896501,-0.00262393,
 0.00016767,-0.00065714,0.00255363,-0.01010453,-0.00137741,-0.00021417,
 0.00095444,-0.00037901,0.00317619,-0.01646302,-0.00154513,0.00038948,-
 0.00020770,-0.00015142,0.00039517,-0.00012187,-0.00060106,-0.00000950,
 -0.00000013,-0.00000571,0.00000861,-0.00001685,0.00000371,0.00001343,-
 0.00000656,-0.00001307,0.00000130,-0.00000486,-0.00000536,0.00000489,0
 .00000270,-0.00000247,0.00000606,0.00000254,0.,0.00000246,0.00000346,0
 .00000124,0.00001073,0.00000027,-0.00001540,-0.00003038,-0.00000862,-0
 .00002218,0.00001139,0.00004017,0.00006276,0.00001124,-0.00004507,-0.0
 0001032,-0.00151919,-0.00019134,0.00115872,-0.05467626,0.31590067,0.00
 008693,0.00000416,0.00000954,-0.00007862,0.00005709,-0.00000555,0.0000
 1121,0.00003610,0.00000833,-0.00002456,-0.00008371,0.00000189,-0.00007
 834,0.00000556,0.00001252,0.00004541,0.00006090,-0.00000297,0.00008549
 ,0.00004713,-0.00002418,-0.00009598,0.00000524,-0.00000183,0.00009079,
 -0.00001868,-0.00001813,-0.00002651,0.00008105,-0.00000253,-0.00017709
 ,-0.00011722,-0.00004131,0.00015552,0.00004026,-0.00002097,-0.00005123
 ,-0.00006297,0.00000887,0.00004901,0.00001771,-0.00000203,-0.00008469,
 -0.00003889,-0.00004082,0.00024805,-0.00005056,0.00002508,-0.00023138,
 -0.00053696,-0.00011645,-0.00001219,-0.00008634,0.00002121,-0.00015223
 ,-0.00014307,0.00000199,-0.00067954,-0.00024526,0.00056571,0.00147518,
 0.00008167,-0.00019889,-0.00025980,0.00035526,-0.00005765,0.00001857,-
 0.00001935,-0.00000565,0.00004694,-0.00002789,0.00001682,0.00007803,-0
 .00000645,0.00050277,0.00214190,0.00004905,-0.00001999,0.00216397,-0.0
 0858609,-0.00292139,0.00857906,-0.04499533,-0.05260794,-0.00416632,-0.
 00021525,-0.00145693,0.00543324,-0.02427685,-0.00625493,0.00044460,0.0
 0099985,0.00079594,-0.00588938,0.02780220,0.00516599,0.00012990,0.0000
 5725,-0.00009762,0.00043136,-0.00062025,-0.00104355,-0.00000513,0.0000
 2227,-0.00000959,0.00000338,-0.00001026,0.00000230,0.00001918,-0.00001
 301,0.00000822,0.00000055,0.00000149,-0.00000184,-0.00000224,0.0000042
 5,0.00000050,-0.00000166,0.00000473,0.00000188,-0.00000282,-0.00000273
 ,0.00000583,-0.00000675,-0.00000580,0.00000576,-0.00006301,-0.00001233
 ,-0.00000947,0.00002664,-0.00000093,0.00000241,0.00000518,-0.00004165,
 -0.00004572,0.00047408,0.00101591,-0.00170657,-0.01015471,0.04946872,0
 .05955098\\0.00000070,0.00000100,0.00000556,0.00000002,0.00000126,0.00
 000339,-0.00000014,0.00000130,0.00000268,-0.00000033,0.00000127,0.0000
 0404,0.00000077,0.00000090,0.00000698,0.00000066,0.00000121,0.00000628
 ,-0.00000142,0.00000130,0.00000051,-0.00000090,0.00000142,-0.00000088,
 -0.00000022,0.00000097,0.00000055,-0.00000007,0.00000157,0.00000283,0.
 00000027,0.00000027,-0.00000042,-0.00000358,0.00000019,-0.00000368,-0.
 00000119,0.00000027,-0.00000414,-0.00000027,0.00000025,-0.00000293,0.0
 0000099,0.00000005,0.00000574,0.00000089,-0.00000012,0.00000404,0.0000
 0003,0.00000018,0.00000195,-0.00000019,0.00000117,0.00000140,-0.000001
 52,-0.00000132,-0.00000587,-0.00000091,0.00000596,0.00000258,0.0000013
 3,-0.00000520,-0.00000464,0.00000072,-0.00000014,-0.00000743,0.0000014
 5,-0.00000121,0.00000417,0.00000132,-0.00000169,0.00000243,0.00000071,
 -0.00000116,0.00000026,0.00000025,-0.00000034,-0.00000004,-0.00000053,
 0.00000063,-0.00000394,-0.00000115,0.00000084,-0.00000367,0.00000064,-
 0.00000176,-0.00000163,-0.00000022,-0.00000089,-0.00000341,-0.00000024
 ,-0.00000126,-0.00000487,-0.00000167,0.00000213,-0.00000292,-0.0000014
 0,0.00000240,-0.00000200,0.00000126,-0.00000288,-0.00000146,0.00000182
 ,-0.00000249,0.00000260,0.00000194,-0.00000156,0.00000579,0.00000160,-
 0.00000033,0.00000734,0.00000133,0.00000068,0.00000865,0.00000085,0.00
 000113,0.00000743,0.00000008,0.00000122,0.00000372,-0.00000050,0.00000
 087,-0.00000022,-0.00000074,-0.00000004,-0.00000404,-0.00000080,-0.000
 00108,-0.00000707,-0.00000062,-0.00000190,-0.00000857,0.00000116,-0.00
 000489,-0.00000555,-0.00000060,-0.00000130,-0.00000635,-0.00000157,0.0
 0000105,-0.00000519\\\@


 SATCHEL PAIGE'S GUIDE TO LONGEVITY

    1.  AVOID FRIED MEATS, WHICH ANGRY UP THE BLOOD.

    2.  IF YOUR STOMACH DISPUTES YOU, LIE DOWN AND PACIFY IT WITH COOL
        THOUGHTS.

    3.  KEEP THE JUICES FLOWING BY JANGLING AROUND GENTLY AS YOU MOVE.

    4.  GO VERY LIGHT ON THE VICES, SUCH AS CARRYING ON IN SOCIETY.
        THE SOCIAL RUMBLE AIN'T RESTFUL.

    5.  AVOID RUNNING AT ALL TIMES.

    6.  DON'T LOOK BACK.  SOMETHING MAY BE GAINING ON YOU.
 Job cpu time:       2 days  9 hours 54 minutes 35.0 seconds.
 Elapsed time:       0 days  2 hours 54 minutes 12.7 seconds.
 File lengths (MBytes):  RWF=   4475 Int=      0 D2E=      0 Chk=     65 Scr=      1
 Normal termination of Gaussian 16 at Fri Sep 13 02:30:07 2019.
