 Entering Gaussian System, Link 0=/share/apps/gaussian16/g16/g16
 Initial command:
 /share/apps/gaussian16/g16/l1.exe "/home/amen01//scratch/975/Gau-2419.inp" -scrdir="/home/amen01//scratch/975/"
 Entering Link 1 = /share/apps/gaussian16/g16/l1.exe PID=      2420.
  
 Copyright (c) 1988-2017, Gaussian, Inc.  All Rights Reserved.
  
 This is part of the Gaussian(R) 16 program.  It is based on
 the Gaussian(R) 09 system (copyright 2009, Gaussian, Inc.),
 the Gaussian(R) 03 system (copyright 2003, Gaussian, Inc.),
 the Gaussian(R) 98 system (copyright 1998, Gaussian, Inc.),
 the Gaussian(R) 94 system (copyright 1995, Gaussian, Inc.),
 the Gaussian 92(TM) system (copyright 1992, Gaussian, Inc.),
 the Gaussian 90(TM) system (copyright 1990, Gaussian, Inc.),
 the Gaussian 88(TM) system (copyright 1988, Gaussian, Inc.),
 the Gaussian 86(TM) system (copyright 1986, Carnegie Mellon
 University), and the Gaussian 82(TM) system (copyright 1983,
 Carnegie Mellon University). Gaussian is a federally registered
 trademark of Gaussian, Inc.
  
 This software contains proprietary and confidential information,
 including trade secrets, belonging to Gaussian, Inc.
  
 This software is provided under written license and may be
 used, copied, transmitted, or stored only in accord with that
 written license.
  
 The following legend is applicable only to US Government
 contracts under FAR:
  
                    RESTRICTED RIGHTS LEGEND
  
 Use, reproduction and disclosure by the US Government is
 subject to restrictions as set forth in subparagraphs (a)
 and (c) of the Commercial Computer Software - Restricted
 Rights clause in FAR 52.227-19.
  
 Gaussian, Inc.
 340 Quinnipiac St., Bldg. 40, Wallingford CT 06492
  
  
 ---------------------------------------------------------------
 Warning -- This program may not be used in any manner that
 competes with the business of Gaussian, Inc. or will provide
 assistance to any competitor of Gaussian, Inc.  The licensee
 of this program is prohibited from giving any competitor of
 Gaussian, Inc. access to this program.  By using this program,
 the user acknowledges that Gaussian, Inc. is engaged in the
 business of creating and licensing software in the field of
 computational chemistry and represents and warrants to the
 licensee that it is not a competitor of Gaussian, Inc. and that
 it will not use this program in any manner prohibited above.
 ---------------------------------------------------------------
  

 Cite this work as:
 Gaussian 16, Revision B.01,
 M. J. Frisch, G. W. Trucks, H. B. Schlegel, G. E. Scuseria, 
 M. A. Robb, J. R. Cheeseman, G. Scalmani, V. Barone, 
 G. A. Petersson, H. Nakatsuji, X. Li, M. Caricato, A. V. Marenich, 
 J. Bloino, B. G. Janesko, R. Gomperts, B. Mennucci, H. P. Hratchian, 
 J. V. Ortiz, A. F. Izmaylov, J. L. Sonnenberg, D. Williams-Young, 
 F. Ding, F. Lipparini, F. Egidi, J. Goings, B. Peng, A. Petrone, 
 T. Henderson, D. Ranasinghe, V. G. Zakrzewski, J. Gao, N. Rega, 
 G. Zheng, W. Liang, M. Hada, M. Ehara, K. Toyota, R. Fukuda, 
 J. Hasegawa, M. Ishida, T. Nakajima, Y. Honda, O. Kitao, H. Nakai, 
 T. Vreven, K. Throssell, J. A. Montgomery, Jr., J. E. Peralta, 
 F. Ogliaro, M. J. Bearpark, J. J. Heyd, E. N. Brothers, K. N. Kudin, 
 V. N. Staroverov, T. A. Keith, R. Kobayashi, J. Normand, 
 K. Raghavachari, A. P. Rendell, J. C. Burant, S. S. Iyengar, 
 J. Tomasi, M. Cossi, J. M. Millam, M. Klene, C. Adamo, R. Cammi, 
 J. W. Ochterski, R. L. Martin, K. Morokuma, O. Farkas, 
 J. B. Foresman, and D. J. Fox, Gaussian, Inc., Wallingford CT, 2016.
 
 ******************************************
 Gaussian 16:  ES64L-G16RevB.01 20-Dec-2017
                28-Aug-2019 
 ******************************************
 %nprocshared=20
 Will use up to   20 processors via shared memory.
 %mem=180GB
 %chk=7-memb-dirTSguess-3cis.chk
 ---------------------------------------------------------------
 # opt=(ts,calcfc,noeigen) freq b3lyp/6-311+g(d,p) int=grid=fine
 ---------------------------------------------------------------
 1/5=1,10=4,11=1,18=20,26=3,38=1/1,3;
 2/9=110,12=2,17=6,18=5,40=1/2;
 3/5=4,6=6,7=111,11=2,25=1,30=1,71=2,74=-5,75=-4,140=1/1,2,3;
 4//1;
 5/5=2,38=5/2;
 8/6=4,10=90,11=11/1;
 11/6=1,8=1,9=11,15=111,16=1/1,2,10;
 10/6=1,13=1/2;
 6/7=2,8=2,9=2,10=2,28=1/1;
 7/10=1,18=20,25=1/1,2,3,16;
 1/5=1,10=4,11=1,18=20,26=3/3(2);
 2/9=110/2;
 99//99;
 2/9=110/2;
 3/5=4,6=6,7=111,11=2,25=1,30=1,71=1,74=-5,75=-4/1,2,3;
 4/5=5,16=3,69=1/1;
 5/5=2,38=5/2;
 7//1,2,3,16;
 1/5=1,11=1,18=20,26=3/3(-5);
 2/9=110/2;
 6/7=2,8=2,9=2,10=2,19=2,28=1/1;
 99/9=1/99;
 ----------------------
 7-memb-dirTSguess-3cis
 ----------------------
 Symbolic Z-matrix:
 Charge =  0 Multiplicity = 1
 C                    -1.49916  -2.79154   0.17405 
 C                    -1.3788   -1.47085  -0.27751 
 C                    -2.50725  -0.63622  -0.44483 
 C                    -3.80576  -1.02294  -0.11976 
 C                    -2.85598  -3.2545    0.37161 
 C                    -3.94413  -2.41075   0.24313 
 C                    -2.08373   0.66228  -0.65122 
 C                    -2.91299   1.7414   -0.37394 
 C                    -4.29412   1.38432  -0.16158 
 C                    -4.72705   0.06798  -0.05293 
 C                    -0.60463   0.6746   -0.77764 
 C                    -0.01003   1.85218  -0.17036 
 C                    -0.87783   2.99713   0.108 
 C                    -2.26781   2.98577  -0.10659 
 C                    -0.27102  -3.42122   0.4336 
 C                     0.94739  -2.72136   0.31821 
 C                     1.01272  -1.31105  -0.03205 
 C                    -0.20012  -0.72847  -0.37654 
 C                    -0.23071   4.09634   0.74491 
 C                     1.45703   1.96152  -0.0609 
 C                     1.96719   3.08916   0.75181 
 C                     1.12109   4.12655   1.07978 
 C                     2.18055  -3.42318   0.52747 
 C                     3.37317  -2.81339   0.33561 
 C                     3.47101  -1.41897  -0.00555 
 C                     2.29007  -0.60858  -0.08035 
 C                     2.46968   0.80303  -0.25858 
 C                     3.74644   1.27053  -0.58462 
 C                     4.74103  -0.87664  -0.26582 
 C                     4.87509   0.45111  -0.60697 
 H                     5.84197   0.86774  -0.86347 
 H                     3.88024   2.32165  -0.81136 
 H                    -0.23207   0.71761  -2.23723 
 H                     5.6073   -1.52747  -0.21839 
 H                     4.29799  -3.37026   0.44085 
 H                     2.13782  -4.4718    0.8022 
 H                    -0.23465  -4.45993   0.74758 
 H                    -3.02121  -4.28286   0.67521 
 H                    -4.93186  -2.80388   0.46495 
 H                    -5.77483  -0.11883   0.16203 
 H                    -5.01651   2.17942  -0.00498 
 H                    -2.84289   3.85776   0.18211 
 H                    -0.84639   4.95058   1.01015 
 H                     1.51255   4.98425   1.61519 
 H                     3.01741   3.12486   0.99968 
 H                     1.51719   2.50581  -1.04717 
 
 Add virtual bond connecting atoms H33        and C11        Dist= 2.85D+00.

 GradGradGradGradGradGradGradGradGradGradGradGradGradGradGradGradGradGrad
 Berny optimization.
 Initialization pass.
                           ----------------------------
                           !    Initial Parameters    !
                           ! (Angstroms and Degrees)  !
 --------------------------                            --------------------------
 ! Name  Definition              Value          Derivative Info.                !
 --------------------------------------------------------------------------------
 ! R1    R(1,2)                  1.4009         calculate D2E/DX2 analytically  !
 ! R2    R(1,5)                  1.4472         calculate D2E/DX2 analytically  !
 ! R3    R(1,15)                 1.4043         calculate D2E/DX2 analytically  !
 ! R4    R(2,3)                  1.4135         calculate D2E/DX2 analytically  !
 ! R5    R(2,18)                 1.3965         calculate D2E/DX2 analytically  !
 ! R6    R(3,4)                  1.3933         calculate D2E/DX2 analytically  !
 ! R7    R(3,7)                  1.3813         calculate D2E/DX2 analytically  !
 ! R8    R(4,6)                  1.4411         calculate D2E/DX2 analytically  !
 ! R9    R(4,10)                 1.4295         calculate D2E/DX2 analytically  !
 ! R10   R(5,6)                  1.3829         calculate D2E/DX2 analytically  !
 ! R11   R(5,38)                 1.0849         calculate D2E/DX2 analytically  !
 ! R12   R(6,39)                 1.086          calculate D2E/DX2 analytically  !
 ! R13   R(7,8)                  1.3889         calculate D2E/DX2 analytically  !
 ! R14   R(7,11)                 1.4845         calculate D2E/DX2 analytically  !
 ! R15   R(8,9)                  1.4423         calculate D2E/DX2 analytically  !
 ! R16   R(8,14)                 1.4269         calculate D2E/DX2 analytically  !
 ! R17   R(9,10)                 1.39           calculate D2E/DX2 analytically  !
 ! R18   R(9,41)                 1.0856         calculate D2E/DX2 analytically  !
 ! R19   R(10,40)                1.0858         calculate D2E/DX2 analytically  !
 ! R20   R(11,12)                1.4523         calculate D2E/DX2 analytically  !
 ! R21   R(11,18)                1.5143         calculate D2E/DX2 analytically  !
 ! R22   R(11,33)                1.507          calculate D2E/DX2 analytically  !
 ! R23   R(12,13)                1.4634         calculate D2E/DX2 analytically  !
 ! R24   R(12,20)                1.4752         calculate D2E/DX2 analytically  !
 ! R25   R(13,14)                1.4065         calculate D2E/DX2 analytically  !
 ! R26   R(13,19)                1.4257         calculate D2E/DX2 analytically  !
 ! R27   R(14,42)                1.0837         calculate D2E/DX2 analytically  !
 ! R28   R(15,16)                1.4098         calculate D2E/DX2 analytically  !
 ! R29   R(15,37)                1.0857         calculate D2E/DX2 analytically  !
 ! R30   R(16,17)                1.4546         calculate D2E/DX2 analytically  !
 ! R31   R(16,23)                1.4342         calculate D2E/DX2 analytically  !
 ! R32   R(17,18)                1.3889         calculate D2E/DX2 analytically  !
 ! R33   R(17,26)                1.4586         calculate D2E/DX2 analytically  !
 ! R34   R(19,22)                1.393          calculate D2E/DX2 analytically  !
 ! R35   R(19,43)                1.0859         calculate D2E/DX2 analytically  !
 ! R36   R(20,21)                1.4807         calculate D2E/DX2 analytically  !
 ! R37   R(20,27)                1.5513         calculate D2E/DX2 analytically  !
 ! R38   R(20,46)                1.1281         calculate D2E/DX2 analytically  !
 ! R39   R(21,22)                1.3783         calculate D2E/DX2 analytically  !
 ! R40   R(21,45)                1.0797         calculate D2E/DX2 analytically  !
 ! R41   R(22,44)                1.0842         calculate D2E/DX2 analytically  !
 ! R42   R(23,24)                1.3531         calculate D2E/DX2 analytically  !
 ! R43   R(23,36)                1.0849         calculate D2E/DX2 analytically  !
 ! R44   R(24,25)                1.4389         calculate D2E/DX2 analytically  !
 ! R45   R(24,35)                1.0847         calculate D2E/DX2 analytically  !
 ! R46   R(25,26)                1.4342         calculate D2E/DX2 analytically  !
 ! R47   R(25,29)                1.4053         calculate D2E/DX2 analytically  !
 ! R48   R(26,27)                1.4341         calculate D2E/DX2 analytically  !
 ! R49   R(27,28)                1.3982         calculate D2E/DX2 analytically  !
 ! R50   R(28,30)                1.3949         calculate D2E/DX2 analytically  !
 ! R51   R(28,32)                1.0836         calculate D2E/DX2 analytically  !
 ! R52   R(29,30)                1.3774         calculate D2E/DX2 analytically  !
 ! R53   R(29,34)                1.0846         calculate D2E/DX2 analytically  !
 ! R54   R(30,31)                1.0836         calculate D2E/DX2 analytically  !
 ! A1    A(2,1,5)              115.223          calculate D2E/DX2 analytically  !
 ! A2    A(2,1,15)             114.025          calculate D2E/DX2 analytically  !
 ! A3    A(5,1,15)             130.6357         calculate D2E/DX2 analytically  !
 ! A4    A(1,2,3)              121.7498         calculate D2E/DX2 analytically  !
 ! A5    A(1,2,18)             126.6214         calculate D2E/DX2 analytically  !
 ! A6    A(3,2,18)             110.5805         calculate D2E/DX2 analytically  !
 ! A7    A(2,3,4)              123.5388         calculate D2E/DX2 analytically  !
 ! A8    A(2,3,7)              109.1463         calculate D2E/DX2 analytically  !
 ! A9    A(4,3,7)              125.5567         calculate D2E/DX2 analytically  !
 ! A10   A(3,4,6)              114.5519         calculate D2E/DX2 analytically  !
 ! A11   A(3,4,10)             113.5612         calculate D2E/DX2 analytically  !
 ! A12   A(6,4,10)             131.3975         calculate D2E/DX2 analytically  !
 ! A13   A(1,5,6)              121.995          calculate D2E/DX2 analytically  !
 ! A14   A(1,5,38)             118.9622         calculate D2E/DX2 analytically  !
 ! A15   A(6,5,38)             118.9791         calculate D2E/DX2 analytically  !
 ! A16   A(4,6,5)              122.3705         calculate D2E/DX2 analytically  !
 ! A17   A(4,6,39)             119.1682         calculate D2E/DX2 analytically  !
 ! A18   A(5,6,39)             118.4119         calculate D2E/DX2 analytically  !
 ! A19   A(3,7,8)              121.1638         calculate D2E/DX2 analytically  !
 ! A20   A(3,7,11)             109.0262         calculate D2E/DX2 analytically  !
 ! A21   A(8,7,11)             127.2591         calculate D2E/DX2 analytically  !
 ! A22   A(7,8,9)              114.1284         calculate D2E/DX2 analytically  !
 ! A23   A(7,8,14)             116.4229         calculate D2E/DX2 analytically  !
 ! A24   A(9,8,14)             128.4107         calculate D2E/DX2 analytically  !
 ! A25   A(8,9,10)             122.9729         calculate D2E/DX2 analytically  !
 ! A26   A(8,9,41)             118.4981         calculate D2E/DX2 analytically  !
 ! A27   A(10,9,41)            118.3641         calculate D2E/DX2 analytically  !
 ! A28   A(4,10,9)             121.2221         calculate D2E/DX2 analytically  !
 ! A29   A(4,10,40)            119.9932         calculate D2E/DX2 analytically  !
 ! A30   A(9,10,40)            118.618          calculate D2E/DX2 analytically  !
 ! A31   A(7,11,12)            112.2751         calculate D2E/DX2 analytically  !
 ! A32   A(7,11,18)            103.6449         calculate D2E/DX2 analytically  !
 ! A33   A(7,11,33)            109.21           calculate D2E/DX2 analytically  !
 ! A34   A(12,11,18)           122.0846         calculate D2E/DX2 analytically  !
 ! A35   A(12,11,33)           106.2988         calculate D2E/DX2 analytically  !
 ! A36   A(18,11,33)           102.5292         calculate D2E/DX2 analytically  !
 ! A37   A(11,12,13)           118.1097         calculate D2E/DX2 analytically  !
 ! A38   A(11,12,20)           119.888          calculate D2E/DX2 analytically  !
 ! A39   A(13,12,20)           121.1739         calculate D2E/DX2 analytically  !
 ! A40   A(12,13,14)           123.4158         calculate D2E/DX2 analytically  !
 ! A41   A(12,13,19)           114.7737         calculate D2E/DX2 analytically  !
 ! A42   A(14,13,19)           121.5298         calculate D2E/DX2 analytically  !
 ! A43   A(8,14,13)            118.8464         calculate D2E/DX2 analytically  !
 ! A44   A(8,14,42)            120.7744         calculate D2E/DX2 analytically  !
 ! A45   A(13,14,42)           118.5079         calculate D2E/DX2 analytically  !
 ! A46   A(1,15,16)            121.2029         calculate D2E/DX2 analytically  !
 ! A47   A(1,15,37)            120.7776         calculate D2E/DX2 analytically  !
 ! A48   A(16,15,37)           118.0102         calculate D2E/DX2 analytically  !
 ! A49   A(15,16,17)           122.6708         calculate D2E/DX2 analytically  !
 ! A50   A(15,16,23)           119.2225         calculate D2E/DX2 analytically  !
 ! A51   A(17,16,23)           118.096          calculate D2E/DX2 analytically  !
 ! A52   A(16,17,18)           115.2888         calculate D2E/DX2 analytically  !
 ! A53   A(16,17,26)           120.9471         calculate D2E/DX2 analytically  !
 ! A54   A(18,17,26)           123.6774         calculate D2E/DX2 analytically  !
 ! A55   A(2,18,11)            106.6109         calculate D2E/DX2 analytically  !
 ! A56   A(2,18,17)            119.7661         calculate D2E/DX2 analytically  !
 ! A57   A(11,18,17)           133.4407         calculate D2E/DX2 analytically  !
 ! A58   A(13,19,22)           124.3729         calculate D2E/DX2 analytically  !
 ! A59   A(13,19,43)           117.2769         calculate D2E/DX2 analytically  !
 ! A60   A(22,19,43)           118.3231         calculate D2E/DX2 analytically  !
 ! A61   A(12,20,21)           116.0931         calculate D2E/DX2 analytically  !
 ! A62   A(12,20,27)           125.7575         calculate D2E/DX2 analytically  !
 ! A63   A(12,20,46)            91.3712         calculate D2E/DX2 analytically  !
 ! A64   A(21,20,27)           114.441          calculate D2E/DX2 analytically  !
 ! A65   A(21,20,46)            95.3966         calculate D2E/DX2 analytically  !
 ! A66   A(27,20,46)           102.3619         calculate D2E/DX2 analytically  !
 ! A67   A(20,21,22)           119.4928         calculate D2E/DX2 analytically  !
 ! A68   A(20,21,45)           119.1017         calculate D2E/DX2 analytically  !
 ! A69   A(22,21,45)           121.1729         calculate D2E/DX2 analytically  !
 ! A70   A(19,22,21)           121.4807         calculate D2E/DX2 analytically  !
 ! A71   A(19,22,44)           119.0937         calculate D2E/DX2 analytically  !
 ! A72   A(21,22,44)           119.4247         calculate D2E/DX2 analytically  !
 ! A73   A(16,23,24)           121.1042         calculate D2E/DX2 analytically  !
 ! A74   A(16,23,36)           118.4296         calculate D2E/DX2 analytically  !
 ! A75   A(24,23,36)           120.4123         calculate D2E/DX2 analytically  !
 ! A76   A(23,24,25)           122.024          calculate D2E/DX2 analytically  !
 ! A77   A(23,24,35)           120.4224         calculate D2E/DX2 analytically  !
 ! A78   A(25,24,35)           117.5531         calculate D2E/DX2 analytically  !
 ! A79   A(24,25,26)           120.2625         calculate D2E/DX2 analytically  !
 ! A80   A(24,25,29)           118.6441         calculate D2E/DX2 analytically  !
 ! A81   A(26,25,29)           121.0931         calculate D2E/DX2 analytically  !
 ! A82   A(17,26,25)           116.5672         calculate D2E/DX2 analytically  !
 ! A83   A(17,26,27)           126.0052         calculate D2E/DX2 analytically  !
 ! A84   A(25,26,27)           117.357          calculate D2E/DX2 analytically  !
 ! A85   A(20,27,26)           129.6029         calculate D2E/DX2 analytically  !
 ! A86   A(20,27,28)           112.0916         calculate D2E/DX2 analytically  !
 ! A87   A(26,27,28)           118.1941         calculate D2E/DX2 analytically  !
 ! A88   A(27,28,30)           123.104          calculate D2E/DX2 analytically  !
 ! A89   A(27,28,32)           119.0707         calculate D2E/DX2 analytically  !
 ! A90   A(30,28,32)           117.8116         calculate D2E/DX2 analytically  !
 ! A91   A(25,29,30)           120.3874         calculate D2E/DX2 analytically  !
 ! A92   A(25,29,34)           118.8267         calculate D2E/DX2 analytically  !
 ! A93   A(30,29,34)           120.7668         calculate D2E/DX2 analytically  !
 ! A94   A(28,30,29)           118.9162         calculate D2E/DX2 analytically  !
 ! A95   A(28,30,31)           119.9918         calculate D2E/DX2 analytically  !
 ! A96   A(29,30,31)           121.0709         calculate D2E/DX2 analytically  !
 ! D1    D(5,1,2,3)              3.7061         calculate D2E/DX2 analytically  !
 ! D2    D(5,1,2,18)           170.865          calculate D2E/DX2 analytically  !
 ! D3    D(15,1,2,3)          -172.7972         calculate D2E/DX2 analytically  !
 ! D4    D(15,1,2,18)           -5.6383         calculate D2E/DX2 analytically  !
 ! D5    D(2,1,5,6)             -5.8006         calculate D2E/DX2 analytically  !
 ! D6    D(2,1,5,38)           177.1334         calculate D2E/DX2 analytically  !
 ! D7    D(15,1,5,6)           169.9897         calculate D2E/DX2 analytically  !
 ! D8    D(15,1,5,38)           -7.0764         calculate D2E/DX2 analytically  !
 ! D9    D(2,1,15,16)            3.7811         calculate D2E/DX2 analytically  !
 ! D10   D(2,1,15,37)         -177.3485         calculate D2E/DX2 analytically  !
 ! D11   D(5,1,15,16)         -172.0494         calculate D2E/DX2 analytically  !
 ! D12   D(5,1,15,37)            6.8211         calculate D2E/DX2 analytically  !
 ! D13   D(1,2,3,4)              3.219          calculate D2E/DX2 analytically  !
 ! D14   D(1,2,3,7)            168.8338         calculate D2E/DX2 analytically  !
 ! D15   D(18,2,3,4)          -165.797          calculate D2E/DX2 analytically  !
 ! D16   D(18,2,3,7)            -0.1821         calculate D2E/DX2 analytically  !
 ! D17   D(1,2,18,11)         -174.3526         calculate D2E/DX2 analytically  !
 ! D18   D(1,2,18,17)            1.3801         calculate D2E/DX2 analytically  !
 ! D19   D(3,2,18,11)           -5.9992         calculate D2E/DX2 analytically  !
 ! D20   D(3,2,18,17)          169.7335         calculate D2E/DX2 analytically  !
 ! D21   D(2,3,4,6)             -7.6785         calculate D2E/DX2 analytically  !
 ! D22   D(2,3,4,10)           165.2275         calculate D2E/DX2 analytically  !
 ! D23   D(7,3,4,6)           -170.9111         calculate D2E/DX2 analytically  !
 ! D24   D(7,3,4,10)             1.9949         calculate D2E/DX2 analytically  !
 ! D25   D(2,3,7,8)           -156.6339         calculate D2E/DX2 analytically  !
 ! D26   D(2,3,7,11)             6.4935         calculate D2E/DX2 analytically  !
 ! D27   D(4,3,7,8)              8.6199         calculate D2E/DX2 analytically  !
 ! D28   D(4,3,7,11)           171.7474         calculate D2E/DX2 analytically  !
 ! D29   D(3,4,6,5)              5.4652         calculate D2E/DX2 analytically  !
 ! D30   D(3,4,6,39)          -177.1314         calculate D2E/DX2 analytically  !
 ! D31   D(10,4,6,5)          -165.8552         calculate D2E/DX2 analytically  !
 ! D32   D(10,4,6,39)           11.5482         calculate D2E/DX2 analytically  !
 ! D33   D(3,4,10,9)            -6.6702         calculate D2E/DX2 analytically  !
 ! D34   D(3,4,10,40)          178.0881         calculate D2E/DX2 analytically  !
 ! D35   D(6,4,10,9)           164.7175         calculate D2E/DX2 analytically  !
 ! D36   D(6,4,10,40)          -10.5243         calculate D2E/DX2 analytically  !
 ! D37   D(1,5,6,4)              1.1976         calculate D2E/DX2 analytically  !
 ! D38   D(1,5,6,39)          -176.2246         calculate D2E/DX2 analytically  !
 ! D39   D(38,5,6,4)           178.2631         calculate D2E/DX2 analytically  !
 ! D40   D(38,5,6,39)            0.841          calculate D2E/DX2 analytically  !
 ! D41   D(3,7,8,9)            -13.3335         calculate D2E/DX2 analytically  !
 ! D42   D(3,7,8,14)           156.0114         calculate D2E/DX2 analytically  !
 ! D43   D(11,7,8,9)          -173.167          calculate D2E/DX2 analytically  !
 ! D44   D(11,7,8,14)           -3.8221         calculate D2E/DX2 analytically  !
 ! D45   D(3,7,11,12)         -143.3345         calculate D2E/DX2 analytically  !
 ! D46   D(3,7,11,18)           -9.6952         calculate D2E/DX2 analytically  !
 ! D47   D(3,7,11,33)           99.0273         calculate D2E/DX2 analytically  !
 ! D48   D(8,7,11,12)           18.4829         calculate D2E/DX2 analytically  !
 ! D49   D(8,7,11,18)          152.1222         calculate D2E/DX2 analytically  !
 ! D50   D(8,7,11,33)          -99.1553         calculate D2E/DX2 analytically  !
 ! D51   D(7,8,9,10)             8.7511         calculate D2E/DX2 analytically  !
 ! D52   D(7,8,9,41)          -175.9969         calculate D2E/DX2 analytically  !
 ! D53   D(14,8,9,10)         -159.0495         calculate D2E/DX2 analytically  !
 ! D54   D(14,8,9,41)           16.2024         calculate D2E/DX2 analytically  !
 ! D55   D(7,8,14,13)          -11.739          calculate D2E/DX2 analytically  !
 ! D56   D(7,8,14,42)         -175.9372         calculate D2E/DX2 analytically  !
 ! D57   D(9,8,14,13)          155.825          calculate D2E/DX2 analytically  !
 ! D58   D(9,8,14,42)           -8.3732         calculate D2E/DX2 analytically  !
 ! D59   D(8,9,10,4)             1.3155         calculate D2E/DX2 analytically  !
 ! D60   D(8,9,10,40)          176.621          calculate D2E/DX2 analytically  !
 ! D61   D(41,9,10,4)         -173.9425         calculate D2E/DX2 analytically  !
 ! D62   D(41,9,10,40)           1.363          calculate D2E/DX2 analytically  !
 ! D63   D(7,11,12,13)         -17.3376         calculate D2E/DX2 analytically  !
 ! D64   D(7,11,12,20)         172.9586         calculate D2E/DX2 analytically  !
 ! D65   D(18,11,12,13)       -141.2336         calculate D2E/DX2 analytically  !
 ! D66   D(18,11,12,20)         49.0627         calculate D2E/DX2 analytically  !
 ! D67   D(33,11,12,13)        102.0178         calculate D2E/DX2 analytically  !
 ! D68   D(33,11,12,20)        -67.6859         calculate D2E/DX2 analytically  !
 ! D69   D(7,11,18,2)            9.3628         calculate D2E/DX2 analytically  !
 ! D70   D(7,11,18,17)        -165.5335         calculate D2E/DX2 analytically  !
 ! D71   D(12,11,18,2)         137.1383         calculate D2E/DX2 analytically  !
 ! D72   D(12,11,18,17)        -37.7579         calculate D2E/DX2 analytically  !
 ! D73   D(33,11,18,2)        -104.2651         calculate D2E/DX2 analytically  !
 ! D74   D(33,11,18,17)         80.8387         calculate D2E/DX2 analytically  !
 ! D75   D(11,12,13,14)          3.9955         calculate D2E/DX2 analytically  !
 ! D76   D(11,12,13,19)        177.9827         calculate D2E/DX2 analytically  !
 ! D77   D(20,12,13,14)        173.5605         calculate D2E/DX2 analytically  !
 ! D78   D(20,12,13,19)        -12.4522         calculate D2E/DX2 analytically  !
 ! D79   D(11,12,20,21)       -170.9606         calculate D2E/DX2 analytically  !
 ! D80   D(11,12,20,27)        -13.9769         calculate D2E/DX2 analytically  !
 ! D81   D(11,12,20,46)         92.3507         calculate D2E/DX2 analytically  !
 ! D82   D(13,12,20,21)         19.6576         calculate D2E/DX2 analytically  !
 ! D83   D(13,12,20,27)        176.6413         calculate D2E/DX2 analytically  !
 ! D84   D(13,12,20,46)        -77.0312         calculate D2E/DX2 analytically  !
 ! D85   D(12,13,14,8)          11.8663         calculate D2E/DX2 analytically  !
 ! D86   D(12,13,14,42)        176.4252         calculate D2E/DX2 analytically  !
 ! D87   D(19,13,14,8)        -161.7271         calculate D2E/DX2 analytically  !
 ! D88   D(19,13,14,42)          2.8317         calculate D2E/DX2 analytically  !
 ! D89   D(12,13,19,22)          0.704          calculate D2E/DX2 analytically  !
 ! D90   D(12,13,19,43)       -177.3632         calculate D2E/DX2 analytically  !
 ! D91   D(14,13,19,22)        174.8164         calculate D2E/DX2 analytically  !
 ! D92   D(14,13,19,43)         -3.2508         calculate D2E/DX2 analytically  !
 ! D93   D(1,15,16,17)           1.9048         calculate D2E/DX2 analytically  !
 ! D94   D(1,15,16,23)        -176.8797         calculate D2E/DX2 analytically  !
 ! D95   D(37,15,16,17)       -176.9959         calculate D2E/DX2 analytically  !
 ! D96   D(37,15,16,23)          4.2195         calculate D2E/DX2 analytically  !
 ! D97   D(15,16,17,18)         -6.1439         calculate D2E/DX2 analytically  !
 ! D98   D(15,16,17,26)        177.1216         calculate D2E/DX2 analytically  !
 ! D99   D(23,16,17,18)        172.6537         calculate D2E/DX2 analytically  !
 ! D100  D(23,16,17,26)         -4.0808         calculate D2E/DX2 analytically  !
 ! D101  D(15,16,23,24)        175.3572         calculate D2E/DX2 analytically  !
 ! D102  D(15,16,23,36)         -1.9832         calculate D2E/DX2 analytically  !
 ! D103  D(17,16,23,24)         -3.483          calculate D2E/DX2 analytically  !
 ! D104  D(17,16,23,36)        179.1766         calculate D2E/DX2 analytically  !
 ! D105  D(16,17,18,2)           4.4866         calculate D2E/DX2 analytically  !
 ! D106  D(16,17,18,11)        178.8508         calculate D2E/DX2 analytically  !
 ! D107  D(26,17,18,2)        -178.879          calculate D2E/DX2 analytically  !
 ! D108  D(26,17,18,11)         -4.5148         calculate D2E/DX2 analytically  !
 ! D109  D(16,17,26,25)         10.8362         calculate D2E/DX2 analytically  !
 ! D110  D(16,17,26,27)       -172.316          calculate D2E/DX2 analytically  !
 ! D111  D(18,17,26,25)       -165.6154         calculate D2E/DX2 analytically  !
 ! D112  D(18,17,26,27)         11.2324         calculate D2E/DX2 analytically  !
 ! D113  D(13,19,22,21)          3.2047         calculate D2E/DX2 analytically  !
 ! D114  D(13,19,22,44)       -176.4574         calculate D2E/DX2 analytically  !
 ! D115  D(43,19,22,21)       -178.7468         calculate D2E/DX2 analytically  !
 ! D116  D(43,19,22,44)          1.5911         calculate D2E/DX2 analytically  !
 ! D117  D(12,20,21,22)        -15.4126         calculate D2E/DX2 analytically  !
 ! D118  D(12,20,21,45)        170.0627         calculate D2E/DX2 analytically  !
 ! D119  D(27,20,21,22)       -175.0157         calculate D2E/DX2 analytically  !
 ! D120  D(27,20,21,45)         10.4596         calculate D2E/DX2 analytically  !
 ! D121  D(46,20,21,22)         78.7754         calculate D2E/DX2 analytically  !
 ! D122  D(46,20,21,45)        -95.7493         calculate D2E/DX2 analytically  !
 ! D123  D(12,20,27,26)        -26.2435         calculate D2E/DX2 analytically  !
 ! D124  D(12,20,27,28)        157.7266         calculate D2E/DX2 analytically  !
 ! D125  D(21,20,27,26)        131.0689         calculate D2E/DX2 analytically  !
 ! D126  D(21,20,27,28)        -44.9611         calculate D2E/DX2 analytically  !
 ! D127  D(46,20,27,26)       -127.0802         calculate D2E/DX2 analytically  !
 ! D128  D(46,20,27,28)         56.8899         calculate D2E/DX2 analytically  !
 ! D129  D(20,21,22,19)          4.5902         calculate D2E/DX2 analytically  !
 ! D130  D(20,21,22,44)       -175.7488         calculate D2E/DX2 analytically  !
 ! D131  D(45,21,22,19)        178.9984         calculate D2E/DX2 analytically  !
 ! D132  D(45,21,22,44)         -1.3406         calculate D2E/DX2 analytically  !
 ! D133  D(16,23,24,25)          3.8612         calculate D2E/DX2 analytically  !
 ! D134  D(16,23,24,35)       -176.4223         calculate D2E/DX2 analytically  !
 ! D135  D(36,23,24,25)       -178.8508         calculate D2E/DX2 analytically  !
 ! D136  D(36,23,24,35)          0.8656         calculate D2E/DX2 analytically  !
 ! D137  D(23,24,25,26)          3.4855         calculate D2E/DX2 analytically  !
 ! D138  D(23,24,25,29)       -176.3031         calculate D2E/DX2 analytically  !
 ! D139  D(35,24,25,26)       -176.2387         calculate D2E/DX2 analytically  !
 ! D140  D(35,24,25,29)          3.9727         calculate D2E/DX2 analytically  !
 ! D141  D(24,25,26,17)        -10.5242         calculate D2E/DX2 analytically  !
 ! D142  D(24,25,26,27)        172.3467         calculate D2E/DX2 analytically  !
 ! D143  D(29,25,26,17)        169.2591         calculate D2E/DX2 analytically  !
 ! D144  D(29,25,26,27)         -7.87           calculate D2E/DX2 analytically  !
 ! D145  D(24,25,29,30)        179.4369         calculate D2E/DX2 analytically  !
 ! D146  D(24,25,29,34)          1.013          calculate D2E/DX2 analytically  !
 ! D147  D(26,25,29,30)         -0.3499         calculate D2E/DX2 analytically  !
 ! D148  D(26,25,29,34)       -178.7738         calculate D2E/DX2 analytically  !
 ! D149  D(17,26,27,20)         18.5346         calculate D2E/DX2 analytically  !
 ! D150  D(17,26,27,28)       -165.6396         calculate D2E/DX2 analytically  !
 ! D151  D(25,26,27,20)       -164.6399         calculate D2E/DX2 analytically  !
 ! D152  D(25,26,27,28)         11.186          calculate D2E/DX2 analytically  !
 ! D153  D(20,27,28,30)        169.6175         calculate D2E/DX2 analytically  !
 ! D154  D(20,27,28,32)         -9.0088         calculate D2E/DX2 analytically  !
 ! D155  D(26,27,28,30)         -6.9126         calculate D2E/DX2 analytically  !
 ! D156  D(26,27,28,32)        174.4612         calculate D2E/DX2 analytically  !
 ! D157  D(27,28,30,29)         -1.4251         calculate D2E/DX2 analytically  !
 ! D158  D(27,28,30,31)       -179.7701         calculate D2E/DX2 analytically  !
 ! D159  D(32,28,30,29)        177.2175         calculate D2E/DX2 analytically  !
 ! D160  D(32,28,30,31)         -1.1275         calculate D2E/DX2 analytically  !
 ! D161  D(25,29,30,28)          5.1012         calculate D2E/DX2 analytically  !
 ! D162  D(25,29,30,31)       -176.5723         calculate D2E/DX2 analytically  !
 ! D163  D(34,29,30,28)       -176.5058         calculate D2E/DX2 analytically  !
 ! D164  D(34,29,30,31)          1.8207         calculate D2E/DX2 analytically  !
 --------------------------------------------------------------------------------
 Trust Radius=3.00D-01 FncErr=1.00D-07 GrdErr=1.00D-06 EigMax=2.50D+02 EigMin=1.00D-04
 Number of steps in this run=    276 maximum allowed number of steps=    276.
 Search for a saddle point of order  1.
 GradGradGradGradGradGradGradGradGradGradGradGradGradGradGradGradGradGrad

                          Input orientation:                          
 ---------------------------------------------------------------------
 Center     Atomic      Atomic             Coordinates (Angstroms)
 Number     Number       Type             X           Y           Z
 ---------------------------------------------------------------------
      1          6           0       -1.499162   -2.791535    0.174049
      2          6           0       -1.378797   -1.470850   -0.277509
      3          6           0       -2.507247   -0.636216   -0.444829
      4          6           0       -3.805763   -1.022944   -0.119763
      5          6           0       -2.855981   -3.254504    0.371608
      6          6           0       -3.944133   -2.410745    0.243133
      7          6           0       -2.083735    0.662279   -0.651216
      8          6           0       -2.912992    1.741403   -0.373940
      9          6           0       -4.294122    1.384324   -0.161582
     10          6           0       -4.727048    0.067975   -0.052928
     11          6           0       -0.604634    0.674601   -0.777636
     12          6           0       -0.010031    1.852180   -0.170355
     13          6           0       -0.877830    2.997126    0.107996
     14          6           0       -2.267811    2.985765   -0.106594
     15          6           0       -0.271024   -3.421224    0.433595
     16          6           0        0.947390   -2.721355    0.318211
     17          6           0        1.012716   -1.311045   -0.032052
     18          6           0       -0.200118   -0.728471   -0.376544
     19          6           0       -0.230713    4.096343    0.744907
     20          6           0        1.457026    1.961521   -0.060895
     21          6           0        1.967193    3.089157    0.751812
     22          6           0        1.121089    4.126550    1.079775
     23          6           0        2.180554   -3.423182    0.527473
     24          6           0        3.373171   -2.813390    0.335612
     25          6           0        3.471011   -1.418974   -0.005548
     26          6           0        2.290065   -0.608579   -0.080350
     27          6           0        2.469681    0.803026   -0.258576
     28          6           0        3.746441    1.270528   -0.584620
     29          6           0        4.741029   -0.876642   -0.265823
     30          6           0        4.875095    0.451105   -0.606971
     31          1           0        5.841968    0.867744   -0.863473
     32          1           0        3.880244    2.321652   -0.811362
     33          1           0       -0.232067    0.717609   -2.237233
     34          1           0        5.607298   -1.527474   -0.218385
     35          1           0        4.297992   -3.370256    0.440853
     36          1           0        2.137825   -4.471804    0.802204
     37          1           0       -0.234651   -4.459933    0.747578
     38          1           0       -3.021209   -4.282864    0.675205
     39          1           0       -4.931858   -2.803878    0.464952
     40          1           0       -5.774828   -0.118827    0.162034
     41          1           0       -5.016512    2.179420   -0.004979
     42          1           0       -2.842892    3.857764    0.182107
     43          1           0       -0.846392    4.950581    1.010149
     44          1           0        1.512547    4.984245    1.615190
     45          1           0        3.017406    3.124864    0.999683
     46          1           0        1.517192    2.505813   -1.047167
 ---------------------------------------------------------------------
                    Distance matrix (angstroms):
                    1          2          3          4          5
     1  C    0.000000
     2  C    1.400929   0.000000
     3  C    2.458586   1.413510   0.000000
     4  C    2.921412   2.472988   1.393331   0.000000
     5  C    1.447179   2.405171   2.764709   2.474549   0.000000
     6  C    2.475410   2.781262   2.384719   1.441122   1.382935
     7  C    3.598836   2.277462   1.381321   2.467347   4.121131
     8  C    4.779826   3.561127   2.413033   2.916035   5.051552
     9  C    5.036095   4.082227   2.712145   2.456661   4.885823
    10  C    4.318283   3.691775   2.361565   1.429453   3.836664
    11  C    3.704050   2.335041   2.334296   3.682619   4.671958
    12  C    4.888785   3.595488   3.536034   4.761983   5.871233
    13  C    5.822286   4.512471   4.020173   4.978517   6.562427
    14  C    5.834962   4.547634   3.645611   4.293625   6.286142
    15  C    1.404349   2.353038   3.678123   4.307242   2.591069
    16  C    2.451800   2.707359   4.106647   5.066447   3.840928
    17  C    2.922988   2.409382   3.607758   4.827881   4.348194
    18  C    2.499380   1.396502   2.309982   3.626752   3.740880
    19  C    7.026927   5.775558   5.384719   6.303629   7.814495
    20  C    5.602302   4.457576   4.755113   6.050409   6.782035
    21  C    6.850691   5.748810   5.943986   7.141151   7.978070
    22  C    7.452916   6.278737   6.178445   7.227036   8.414187
    23  C    3.750226   4.138668   5.539678   6.481979   5.041769
    24  C    4.875060   4.975895   6.318899   7.412837   6.244855
    25  C    5.159341   4.857704   6.045266   7.288438   6.598655
    26  C    4.380440   3.773981   4.811217   6.110022   5.804048
    27  C    5.372127   4.470084   5.184199   6.537173   6.724831
    28  C    6.677746   5.820441   6.539406   7.906446   8.061158
    29  C    6.542193   6.148617   7.254471   8.549292   7.985932
    30  C    7.194154   6.550849   7.463748   8.818588   8.628945
    31  H    8.267948   7.612609   8.493913   9.859337   9.704260
    32  H    7.486904   6.505811   7.048643   8.410668   8.824379
    33  H    4.442286   3.153547   3.197186   4.503832   5.428504
    34  H    7.228667   6.986575   8.166484   9.427088   8.657818
    35  H    5.832075   6.029073   7.387197   8.455472   7.155244
    36  H    4.055312   4.747435   6.151709   6.933318   5.158036
    37  H    2.170593   3.360728   4.605143   5.031701   2.909602
    38  H    2.189029   3.393023   3.849243   3.445951   1.084894
    39  H    3.445022   3.866840   3.377158   2.186712   2.126274
    40  H    5.042304   4.620201   3.363489   2.184961   4.289063
    41  H    6.092142   5.160592   3.797063   3.425525   5.859799
    42  H    6.783720   5.545173   4.549897   4.983930   7.114804
    43  H    7.814444   6.570867   6.007304   6.761478   8.471694
    44  H    8.462271   7.321914   7.210548   8.208581   9.407843
    45  H    7.488981   6.486787   6.837699   8.063070   8.694107
    46  H    6.217046   4.979254   5.141135   6.453375   7.370130
                    6          7          8          9         10
     6  C    0.000000
     7  C    3.701948   0.000000
     8  C    4.322541   1.388905   0.000000
     9  C    3.832602   2.376321   1.442263   0.000000
    10  C    2.616230   2.774572   2.488817   1.389966   0.000000
    11  C    4.659784   1.484545   2.574792   3.807302   4.229361
    12  C    5.815553   2.438717   2.912199   4.309571   5.044544
    13  C    6.218162   2.735346   2.439464   3.787460   4.839659
    14  C    5.661686   2.393551   1.426944   2.583326   3.816310
    15  C    3.814325   4.597579   5.855325   6.295462   5.680437
    16  C    4.901950   4.645050   5.941198   6.675346   6.333826
    17  C    5.084822   3.723625   4.984527   5.953513   5.903137
    18  C    4.151108   2.357465   3.668783   4.612047   4.607836
    19  C    7.508892   4.144351   3.740612   4.968708   6.089443
    20  C    6.955693   3.817525   4.386742   5.780917   6.467484
    21  C    8.090207   4.926281   5.186518   6.553229   7.388370
    22  C    8.312200   5.026768   4.906732   6.195586   7.208034
    23  C    6.214312   6.021998   7.309562   8.093722   7.761444
    24  C    7.328957   6.544611   7.795220   8.755306   8.606206
    25  C    7.485306   5.966884   7.132965   8.257125   8.331953
    26  C    6.497512   4.590326   5.716678   6.879664   7.049706
    27  C    7.191456   4.572480   5.465074   6.789429   7.237092
    28  C    8.566322   5.862197   6.679383   8.052488   8.574896
    29  C    8.834282   7.006726   8.090110   9.314332   9.517463
    30  C    9.310835   6.962174   7.897688   9.227340   9.625742
    31  H   10.379829   7.931207   8.812051  10.173486  10.630179
    32  H    9.204804   6.192593   6.831990   8.253548   8.929712
    33  H    5.451445   2.438685   3.421604   4.610111   5.039649
    34  H    9.603281   8.008392   9.127163  10.320848  10.458085
    35  H    8.300143   7.627607   8.876443   9.838363   9.670398
    36  H    6.445986   6.803882   8.093084   8.751746   8.274498
    37  H    4.267774   5.622525   6.847473   7.173647   6.428405
    38  H    2.131503   5.205064   6.115898   5.868351   4.729679
    39  H    1.085982   4.622973   5.043723   4.282556   2.925352
    40  H    2.934435   3.859491   3.455116   2.134638   1.085793
    41  H    4.720294   3.364598   2.180089   1.085610   2.131734
    42  H    6.364799   3.388491   2.189312   2.888269   4.238843
    43  H    8.023306   4.762424   4.060217   5.096860   6.326884
    44  H    9.292135   6.062114   5.835928   7.059303   8.116950
    45  H    8.926274   5.900121   6.242630   7.605028   8.392206
    46  H    7.460797   4.064735   4.545777   5.984427   6.776585
                   11         12         13         14         15
    11  C    0.000000
    12  C    1.452252   0.000000
    13  C    2.500620   1.463371   0.000000
    14  C    2.925395   2.527182   1.406494   0.000000
    15  C    4.284175   5.314289   6.455187   6.732642   0.000000
    16  C    3.891295   4.698146   6.006384   6.564236   1.409845
    17  C    2.667303   3.327331   4.706816   5.406477   2.513498
    18  C    1.514305   2.595844   3.817610   4.259551   2.812876
    19  C    3.763811   2.433654   1.425726   2.471478   7.524118
    20  C    2.533836   1.475193   2.559796   3.863363   5.674912
    21  C    3.844943   2.507971   2.918411   4.322362   6.891730
    22  C    4.282995   2.831080   2.493117   3.767427   7.702235
    23  C    5.123710   5.754570   7.123905   7.827170   2.453376
    24  C    5.406324   5.785292   7.203118   8.102248   3.695838
    25  C    4.646510   4.779672   6.198972   7.235055   4.266694
    26  C    3.242228   3.369552   4.803347   5.804673   3.838527
    27  C    3.120469   2.693971   4.019239   5.218360   5.082800
    28  C    4.395934   3.823744   4.984450   6.272302   6.260138
    29  C    5.589671   5.479795   6.835012   8.004210   5.664341
    30  C    5.486940   5.100794   6.331631   7.595787   6.523822
    31  H    6.450066   5.974564   7.115736   8.415901   7.579334
    32  H    4.777870   3.970584   4.892929   6.223851   7.194690
    33  H    1.507010   2.368235   3.333663   3.718657   4.925929
    34  H    6.614378   6.555818   7.914254   9.077399   6.210156
    35  H    6.471578   6.797534   8.212398   9.154697   4.569306
    36  H    6.041727   6.749217   8.084616   8.709241   2.653704
    37  H    5.369041   6.382462   7.512022   7.765421   1.085737
    38  H    5.703248   6.886286   7.610128   7.349271   2.892113
    39  H    5.689350   6.804915   7.086198   6.398732   4.701646
    40  H    5.314453   6.101495   5.804539   4.691463   6.424284
    41  H    4.725055   5.019889   4.220201   2.866335   7.353857
    42  H    4.007921   3.488796   2.146546   1.083720   7.724080
    43  H    4.640973   3.419529   2.151942   2.669841   8.411337
    44  H    5.364802   3.913598   3.454588   4.609725   8.673477
    45  H    4.720363   3.486271   3.998035   5.401548   7.347482
    46  H    2.815694   1.878416   2.704056   3.929539   6.365543
                   16         17         18         19         20
    16  C    0.000000
    17  C    1.454622   0.000000
    18  C    2.402300   1.388897   0.000000
    19  C    6.931883   5.602645   4.953526   0.000000
    20  C    4.725757   3.302716   3.175188   2.838176   0.000000
    21  C    5.915239   4.570257   4.532627   2.417698   1.480651
    22  C    6.892311   5.551157   5.238099   1.392989   2.470088
    23  C    1.434240   2.477506   3.707602   7.899667   5.464860
    24  C    2.427589   2.822050   4.197910   7.803840   5.160291
    25  C    2.858265   2.460806   3.753881   6.684659   3.935346
    26  C    2.534847   1.458565   2.510601   5.401080   2.701804
    27  C    3.882179   2.577471   3.080134   4.375505   1.551341
    28  C    4.958318   3.800408   4.428840   5.056741   2.448097
    29  C    4.258610   3.760807   4.944608   7.104250   4.345324
    30  C    5.132965   4.284119   5.215581   6.417524   3.776606
    31  H    6.183438   5.362840   6.268318   7.063157   4.590010
    32  H    5.942179   4.693243   5.112893   4.740408   2.562202
    33  H    4.443859   3.244649   2.356763   4.506551   3.022714
    34  H    4.840251   4.603449   5.864256   8.163187   5.424265
    35  H    3.415062   3.906025   5.280167   8.737947   6.062234
    36  H    2.171510   3.457203   4.568147   8.889679   6.526569
    37  H    2.145747   3.475521   3.897262   8.556277   6.689579
    38  H    4.279665   5.060086   4.658158   8.831921   7.719377
    39  H    5.881658   6.149270   5.234959   8.354172   7.987702
    40  H    7.210115   6.894186   5.633749   6.988892   7.528430
    41  H    7.725942   6.966755   5.638399   5.209683   6.477446
    42  H    7.594048   6.451989   5.322584   2.682749   4.705750
    43  H    7.909174   6.614410   5.881515   1.085881   3.922671
    44  H    7.834400   6.526401   6.287714   2.141195   3.456762
    45  H    6.239202   4.975997   5.205252   3.399847   2.216524
    46  H    5.432515   3.981628   3.722833   2.965887   1.128098
                   21         22         23         24         25
    21  C    0.000000
    22  C    1.378273   0.000000
    23  C    6.519694   7.643687   0.000000
    24  C    6.081945   7.334059   1.353142   0.000000
    25  C    4.812308   6.119877   2.442589   1.438874   0.000000
    26  C    3.803944   5.013366   2.881568   2.491452   1.434214
    27  C    2.549465   3.828276   4.308399   3.774628   2.450300
    28  C    2.873880   4.221320   5.071456   4.202921   2.764888
    29  C    4.945433   6.320327   3.697326   2.446171   1.405280
    30  C    4.154697   5.517841   4.853619   3.714992   2.414613
    31  H    4.749495   6.056627   5.809710   4.591678   3.403902
    32  H    2.586956   3.800920   6.138774   5.285956   3.848258
    33  H    4.404018   4.945144   5.532675   5.664382   4.822675
    34  H    5.958601   7.333436   3.986551   2.636630   2.149603
    35  H    6.874106   8.167193   2.119870   1.084652   2.165796
    36  H    7.563054   8.662707   1.084855   2.119935   3.427772
    37  H    7.863644   8.699200   2.637520   3.987129   4.852480
    38  H    8.901501   9.382993   5.274392   6.569838   7.128409
    39  H    9.077833   9.222093   7.139597   8.306042   8.529217
    40  H    8.401065   8.149794   8.622089   9.538170   9.338308
    41  H    7.083254   6.529790   9.136214   9.768876   9.218812
    42  H    4.904308   4.073230   8.852483   9.119611   8.230708
    43  H    3.383474   2.134211   8.917134   8.862221   7.761626
    44  H    2.131545   1.084228   8.503775   8.118026   6.889382
    45  H    1.079658   2.146115   6.618173   5.985852   4.675758
    46  H    1.943995   2.703251   6.170294   5.800919   4.506255
                   26         27         28         29         30
    26  C    0.000000
    27  C    1.434104   0.000000
    28  C    2.430301   1.398206   0.000000
    29  C    2.472546   2.824953   2.387714   0.000000
    30  C    2.842998   2.455859   1.394924   1.377413   0.000000
    31  H    3.925408   3.426720   2.152029   2.147588   1.083617
    32  H    3.413107   2.145107   1.083594   3.356732   2.128485
    33  H    3.573803   3.349899   4.343429   5.582094   5.367670
    34  H    3.444917   3.908642   3.380197   1.084553   2.145203
    35  H    3.454024   4.609577   4.784630   2.629407   4.004221
    36  H    3.965676   5.390660   6.122524   4.565363   5.806329
    37  H    4.678951   6.002041   7.103663   6.214849   7.215442
    38  H    6.502374   7.542420   8.844682   8.528788   9.295486
    39  H    7.567884   8.265351   9.644442   9.890046  10.388468
    40  H    8.083385   8.306543   9.651029  10.551805  10.692850
    41  H    7.820786   7.615895   8.829010  10.228253  10.059491
    42  H    6.809137   6.144026   7.120461   8.951598   8.473210
    43  H    6.475400   5.459690   6.097556   8.173366   7.456257
    44  H    5.895682   4.680780   4.860158   6.950633   6.065813
    45  H    3.953997   2.697063   2.545598   4.537007   3.630611
    46  H    3.351344   2.104423   2.590257   4.737576   3.961201
                   31         32         33         34         35
    31  H    0.000000
    32  H    2.442320   0.000000
    33  H    6.229258   4.638660   0.000000
    34  H    2.491642   4.260294   6.573761   0.000000
    35  H    4.695293   5.842976   6.663649   2.354723   0.000000
    36  H    6.708646   7.196573   6.464099   4.663467   2.451592
    37  H    8.240445   8.084092   5.976290   6.607630   4.671866
    38  H   10.365915   9.667449   6.423888   9.101748   7.379599
    39  H   11.459531  10.273908   6.464573  10.638137   9.247243
    40  H   11.703629  10.006191   6.097402  11.475269  10.588259
    41  H   10.971057   8.934358   5.478208  11.253975  10.851620
    42  H    9.244471   6.967581   4.746597  10.028305  10.163830
    43  H    8.056933   5.707036   5.370376   9.226300   9.799240
    44  H    6.467862   4.310864   6.007414   7.907684   8.884563
    45  H    4.067443   2.160908   5.179921   5.462186   6.643702
    46  H    4.628250   2.381918   2.770169   5.803727   6.668976
                   36         37         38         39         40
    36  H    0.000000
    37  H    2.373134   0.000000
    38  H    5.164055   2.793116   0.000000
    39  H    7.271598   4.988602   2.425322   0.000000
    40  H    9.053635   7.062692   5.018463   2.830522   0.000000
    41  H    9.801779   8.216663   6.797426   5.006122   2.425876
    42  H    9.724904   8.735374   8.157498   6.987221   4.940640
    43  H    9.885855   9.434031   9.492024   8.781794   7.120932
    44  H    9.511508   9.643544  10.359432  10.173901   9.014369
    45  H    7.649969   8.256426   9.562667   9.931098   9.408856
    46  H    7.245171   7.403491   8.345645   8.489380   7.843753
                   41         42         43         44         45
    41  H    0.000000
    42  H    2.752538   0.000000
    43  H    5.108788   2.421965   0.000000
    44  H    7.288388   4.721497   2.435529   0.000000
    45  H    8.151506   5.962270   4.273440   2.469969   0.000000
    46  H    6.624347   4.727496   3.974414   3.637416   2.612176
                   46
    46  H    0.000000
 Stoichiometry    C30H16
 Framework group  C1[X(C30H16)]
 Deg. of freedom   132
 Full point group                 C1      NOp   1
 Largest Abelian subgroup         C1      NOp   1
 Largest concise Abelian subgroup C1      NOp   1
                         Standard orientation:                         
 ---------------------------------------------------------------------
 Center     Atomic      Atomic             Coordinates (Angstroms)
 Number     Number       Type             X           Y           Z
 ---------------------------------------------------------------------
      1          6           0       -1.499162   -2.791535    0.174049
      2          6           0       -1.378797   -1.470850   -0.277509
      3          6           0       -2.507247   -0.636216   -0.444829
      4          6           0       -3.805763   -1.022944   -0.119763
      5          6           0       -2.855981   -3.254504    0.371608
      6          6           0       -3.944133   -2.410745    0.243133
      7          6           0       -2.083735    0.662279   -0.651216
      8          6           0       -2.912992    1.741403   -0.373940
      9          6           0       -4.294122    1.384324   -0.161582
     10          6           0       -4.727048    0.067974   -0.052928
     11          6           0       -0.604634    0.674601   -0.777636
     12          6           0       -0.010031    1.852180   -0.170355
     13          6           0       -0.877830    2.997126    0.107996
     14          6           0       -2.267811    2.985765   -0.106594
     15          6           0       -0.271024   -3.421224    0.433595
     16          6           0        0.947390   -2.721355    0.318211
     17          6           0        1.012716   -1.311045   -0.032052
     18          6           0       -0.200118   -0.728471   -0.376544
     19          6           0       -0.230713    4.096343    0.744907
     20          6           0        1.457026    1.961521   -0.060895
     21          6           0        1.967193    3.089157    0.751812
     22          6           0        1.121089    4.126550    1.079775
     23          6           0        2.180554   -3.423182    0.527473
     24          6           0        3.373171   -2.813390    0.335612
     25          6           0        3.471011   -1.418974   -0.005548
     26          6           0        2.290065   -0.608579   -0.080350
     27          6           0        2.469681    0.803026   -0.258576
     28          6           0        3.746441    1.270528   -0.584620
     29          6           0        4.741029   -0.876642   -0.265823
     30          6           0        4.875095    0.451105   -0.606971
     31          1           0        5.841968    0.867744   -0.863473
     32          1           0        3.880244    2.321652   -0.811362
     33          1           0       -0.232067    0.717609   -2.237233
     34          1           0        5.607298   -1.527474   -0.218385
     35          1           0        4.297992   -3.370256    0.440853
     36          1           0        2.137826   -4.471804    0.802204
     37          1           0       -0.234650   -4.459933    0.747578
     38          1           0       -3.021209   -4.282864    0.675205
     39          1           0       -4.931858   -2.803879    0.464952
     40          1           0       -5.774828   -0.118828    0.162034
     41          1           0       -5.016512    2.179419   -0.004979
     42          1           0       -2.842892    3.857764    0.182107
     43          1           0       -0.846392    4.950581    1.010149
     44          1           0        1.512547    4.984245    1.615190
     45          1           0        3.017406    3.124864    0.999683
     46          1           0        1.517192    2.505813   -1.047167
 ---------------------------------------------------------------------
 Rotational constants (GHZ):           0.2475581           0.1733652           0.1055027
 Standard basis: 6-311+G(d,p) (5D, 7F)
 There are   786 symmetry adapted cartesian basis functions of A   symmetry.
 There are   756 symmetry adapted basis functions of A   symmetry.
   756 basis functions,  1208 primitive gaussians,   786 cartesian basis functions
    98 alpha electrons       98 beta electrons
       nuclear repulsion energy      2636.2907479782 Hartrees.
 NAtoms=   46 NActive=   46 NUniq=   46 SFac= 1.00D+00 NAtFMM=   60 NAOKFM=F Big=F
 Integral buffers will be    131072 words long.
 Raffenetti 2 integral format.
 Two-electron integral symmetry is turned on.
 One-electron integrals computed using PRISM.
 NBasis=   756 RedAO= T EigKep=  1.25D-06  NBF=   756
 NBsUse=   736 1.00D-06 EigRej=  9.68D-07 NBFU=   736
 ExpMin= 4.38D-02 ExpMax= 4.56D+03 ExpMxC= 6.82D+02 IAcc=2 IRadAn=         4 AccDes= 0.00D+00
 Harris functional with IExCor=  402 and IRadAn=       4 diagonalized for initial guess.
 HarFok:  IExCor=  402 AccDes= 0.00D+00 IRadAn=         4 IDoV= 1 UseB2=F ITyADJ=14
 ICtDFT=  3500011 ScaDFX=  1.000000  1.000000  1.000000  1.000000
 FoFCou: FMM=F IPFlag=           0 FMFlag=      100000 FMFlg1=           0
         NFxFlg=           0 DoJE=T BraDBF=F KetDBF=T FulRan=T
         wScrn=  0.000000 ICntrl=       500 IOpCl=  0 I1Cent=   200000004 NGrid=           0
         NMat0=    1 NMatS0=      1 NMatT0=    0 NMatD0=    1 NMtDS0=    0 NMtDT0=    0
 Petite list used in FoFCou.
 Requested convergence on RMS density matrix=1.00D-08 within 128 cycles.
 Requested convergence on MAX density matrix=1.00D-06.
 Requested convergence on             energy=1.00D-06.
 No special actions if energy rises.
 EnCoef did     8 forward-backward iterations
 EnCoef did     4 forward-backward iterations
 Restarting incremental Fock formation.
 SCF Done:  E(RB3LYP) =  -1152.96514323     A.U. after   23 cycles
            NFock= 23  Conv=0.41D-08     -V/T= 2.0046
 DoSCS=F DFT=T ScalE2(SS,OS)=  1.000000  1.000000
 Range of M.O.s used for correlation:     1   736
 NBasis=   756 NAE=    98 NBE=    98 NFC=     0 NFV=     0
 NROrb=    736 NOA=    98 NOB=    98 NVA=   638 NVB=   638

 **** Warning!!: The largest alpha MO coefficient is  0.13867507D+03


 **** Warning!!: The smallest alpha delta epsilon is  0.27806356D-01

 Symmetrizing basis deriv contribution to polar:
 IMax=3 JMax=2 DiffMx= 0.00D+00
 G2DrvN: will do    47 centers at a time, making    1 passes.
 Calling FoFCou, ICntrl=  3107 FMM=F I1Cent=   0 AccDes= 0.00D+00.
 End of G2Drv F.D. properties file   721 does not exist.
 End of G2Drv F.D. properties file   722 does not exist.
 End of G2Drv F.D. properties file   788 does not exist.
          IDoAtm=1111111111111111111111111111111111111111111111
          Differentiating once with respect to nuclear coordinates.
 CalDSu exits because no D1Ps are significant.
          There are   141 degrees of freedom in the 1st order CPHF.  IDoFFX=6 NUNeed=     0.
    135 vectors produced by pass  0 Test12= 6.25D-14 1.00D-09 XBig12= 3.69D-01 1.97D-01.
 AX will form   135 AO Fock derivatives at one time.
    135 vectors produced by pass  1 Test12= 6.25D-14 1.00D-09 XBig12= 6.69D-02 6.32D-02.
    135 vectors produced by pass  2 Test12= 6.25D-14 1.00D-09 XBig12= 9.80D-04 3.79D-03.
    135 vectors produced by pass  3 Test12= 6.25D-14 1.00D-09 XBig12= 7.46D-06 2.21D-04.
    135 vectors produced by pass  4 Test12= 6.25D-14 1.00D-09 XBig12= 2.15D-08 1.40D-05.
    135 vectors produced by pass  5 Test12= 6.25D-14 1.00D-09 XBig12= 9.99D-11 1.08D-06.
    118 vectors produced by pass  6 Test12= 6.25D-14 1.00D-09 XBig12= 1.88D-11 3.17D-07.
     85 vectors produced by pass  7 Test12= 6.25D-14 1.00D-09 XBig12= 3.37D-12 1.03D-07.
     58 vectors produced by pass  8 Test12= 6.25D-14 1.00D-09 XBig12= 2.68D-13 2.82D-08.
      8 vectors produced by pass  9 Test12= 6.25D-14 1.00D-09 XBig12= 1.95D-15 2.72D-09.
      1 vectors produced by pass 10 Test12= 6.25D-14 1.00D-09 XBig12= 2.41D-16 1.01D-09.
 InvSVY:  IOpt=1 It=  1 EMax= 1.22D-15
 Solved reduced A of dimension  1080 with   141 vectors.
 End of Minotr F.D. properties file   721 does not exist.
 End of Minotr F.D. properties file   722 does not exist.
 End of Minotr F.D. properties file   788 does not exist.

 **********************************************************************

            Population analysis using the SCF Density.

 **********************************************************************

 Orbital symmetries:
       Occupied  (A) (A) (A) (A) (A) (A) (A) (A) (A) (A) (A) (A)
                 (A) (A) (A) (A) (A) (A) (A) (A) (A) (A) (A) (A)
                 (A) (A) (A) (A) (A) (A) (A) (A) (A) (A) (A) (A)
                 (A) (A) (A) (A) (A) (A) (A) (A) (A) (A) (A) (A)
                 (A) (A) (A) (A) (A) (A) (A) (A) (A) (A) (A) (A)
                 (A) (A) (A) (A) (A) (A) (A) (A) (A) (A) (A) (A)
                 (A) (A) (A) (A) (A) (A) (A) (A) (A) (A) (A) (A)
                 (A) (A) (A) (A) (A) (A) (A) (A) (A) (A) (A) (A)
                 (A) (A)
       Virtual   (A) (A) (A) (A) (A) (A) (A) (A) (A) (A) (A) (A)
                 (A) (A) (A) (A) (A) (A) (A) (A) (A) (A) (A) (A)
                 (A) (A) (A) (A) (A) (A) (A) (A) (A) (A) (A) (A)
                 (A) (A) (A) (A) (A) (A) (A) (A) (A) (A) (A) (A)
                 (A) (A) (A) (A) (A) (A) (A) (A) (A) (A) (A) (A)
                 (A) (A) (A) (A) (A) (A) (A) (A) (A) (A) (A) (A)
                 (A) (A) (A) (A) (A) (A) (A) (A) (A) (A) (A) (A)
                 (A) (A) (A) (A) (A) (A) (A) (A) (A) (A) (A) (A)
                 (A) (A) (A) (A) (A) (A) (A) (A) (A) (A) (A) (A)
                 (A) (A) (A) (A) (A) (A) (A) (A) (A) (A) (A) (A)
                 (A) (A) (A) (A) (A) (A) (A) (A) (A) (A) (A) (A)
                 (A) (A) (A) (A) (A) (A) (A) (A) (A) (A) (A) (A)
                 (A) (A) (A) (A) (A) (A) (A) (A) (A) (A) (A) (A)
                 (A) (A) (A) (A) (A) (A) (A) (A) (A) (A) (A) (A)
                 (A) (A) (A) (A) (A) (A) (A) (A) (A) (A) (A) (A)
                 (A) (A) (A) (A) (A) (A) (A) (A) (A) (A) (A) (A)
                 (A) (A) (A) (A) (A) (A) (A) (A) (A) (A) (A) (A)
                 (A) (A) (A) (A) (A) (A) (A) (A) (A) (A) (A) (A)
                 (A) (A) (A) (A) (A) (A) (A) (A) (A) (A) (A) (A)
                 (A) (A) (A) (A) (A) (A) (A) (A) (A) (A) (A) (A)
                 (A) (A) (A) (A) (A) (A) (A) (A) (A) (A) (A) (A)
                 (A) (A) (A) (A) (A) (A) (A) (A) (A) (A) (A) (A)
                 (A) (A) (A) (A) (A) (A) (A) (A) (A) (A) (A) (A)
                 (A) (A) (A) (A) (A) (A) (A) (A) (A) (A) (A) (A)
                 (A) (A) (A) (A) (A) (A) (A) (A) (A) (A) (A) (A)
                 (A) (A) (A) (A) (A) (A) (A) (A) (A) (A) (A) (A)
                 (A) (A) (A) (A) (A) (A) (A) (A) (A) (A) (A) (A)
                 (A) (A) (A) (A) (A) (A) (A) (A) (A) (A) (A) (A)
                 (A) (A) (A) (A) (A) (A) (A) (A) (A) (A) (A) (A)
                 (A) (A) (A) (A) (A) (A) (A) (A) (A) (A) (A) (A)
                 (A) (A) (A) (A) (A) (A) (A) (A) (A) (A) (A) (A)
                 (A) (A) (A) (A) (A) (A) (A) (A) (A) (A) (A) (A)
                 (A) (A) (A) (A) (A) (A) (A) (A) (A) (A) (A) (A)
                 (A) (A) (A) (A) (A) (A) (A) (A) (A) (A) (A) (A)
                 (A) (A) (A) (A) (A) (A) (A) (A) (A) (A) (A) (A)
                 (A) (A) (A) (A) (A) (A) (A) (A) (A) (A) (A) (A)
                 (A) (A) (A) (A) (A) (A) (A) (A) (A) (A) (A) (A)
                 (A) (A) (A) (A) (A) (A) (A) (A) (A) (A) (A) (A)
                 (A) (A) (A) (A) (A) (A) (A) (A) (A) (A) (A) (A)
                 (A) (A) (A) (A) (A) (A) (A) (A) (A) (A) (A) (A)
                 (A) (A) (A) (A) (A) (A) (A) (A) (A) (A) (A) (A)
                 (A) (A) (A) (A) (A) (A) (A) (A) (A) (A) (A) (A)
                 (A) (A) (A) (A) (A) (A) (A) (A) (A) (A) (A) (A)
                 (A) (A) (A) (A) (A) (A) (A) (A) (A) (A) (A) (A)
                 (A) (A) (A) (A) (A) (A) (A) (A) (A) (A) (A) (A)
                 (A) (A) (A) (A) (A) (A) (A) (A) (A) (A) (A) (A)
                 (A) (A) (A) (A) (A) (A) (A) (A) (A) (A) (A) (A)
                 (A) (A) (A) (A) (A) (A) (A) (A) (A) (A) (A) (A)
                 (A) (A) (A) (A) (A) (A) (A) (A) (A) (A) (A) (A)
                 (A) (A) (A) (A) (A) (A) (A) (A) (A) (A) (A) (A)
                 (A) (A) (A) (A) (A) (A) (A) (A) (A) (A) (A) (A)
                 (A) (A) (A) (A) (A) (A) (A) (A) (A) (A) (A) (A)
                 (A) (A) (A) (A) (A) (A) (A) (A) (A) (A) (A) (A)
                 (A) (A)
 The electronic state is 1-A.
 Alpha  occ. eigenvalues --  -10.24136 -10.23562 -10.22343 -10.21963 -10.21943
 Alpha  occ. eigenvalues --  -10.21650 -10.20984 -10.20543 -10.20470 -10.19844
 Alpha  occ. eigenvalues --  -10.19721 -10.19356 -10.19261 -10.18898 -10.18835
 Alpha  occ. eigenvalues --  -10.18792 -10.18463 -10.18282 -10.18116 -10.18051
 Alpha  occ. eigenvalues --  -10.17956 -10.17866 -10.17422 -10.17349 -10.17286
 Alpha  occ. eigenvalues --  -10.16972 -10.16909 -10.16131 -10.15886 -10.14796
 Alpha  occ. eigenvalues --   -0.92098  -0.89786  -0.88948  -0.85418  -0.84052
 Alpha  occ. eigenvalues --   -0.83302  -0.80970  -0.79754  -0.79064  -0.77898
 Alpha  occ. eigenvalues --   -0.75253  -0.74929  -0.72820  -0.71308  -0.70838
 Alpha  occ. eigenvalues --   -0.67048  -0.66192  -0.64031  -0.63527  -0.62305
 Alpha  occ. eigenvalues --   -0.60124  -0.59860  -0.58389  -0.57070  -0.56235
 Alpha  occ. eigenvalues --   -0.53015  -0.52299  -0.51708  -0.51356  -0.50359
 Alpha  occ. eigenvalues --   -0.49773  -0.48333  -0.48010  -0.47068  -0.45564
 Alpha  occ. eigenvalues --   -0.45111  -0.44936  -0.44340  -0.44026  -0.43066
 Alpha  occ. eigenvalues --   -0.42445  -0.42166  -0.41374  -0.41001  -0.40757
 Alpha  occ. eigenvalues --   -0.39920  -0.39672  -0.39086  -0.38873  -0.37493
 Alpha  occ. eigenvalues --   -0.36665  -0.36464  -0.36005  -0.35955  -0.34639
 Alpha  occ. eigenvalues --   -0.34304  -0.33463  -0.32619  -0.31992  -0.30606
 Alpha  occ. eigenvalues --   -0.30336  -0.28483  -0.27447  -0.25259  -0.24919
 Alpha  occ. eigenvalues --   -0.21758  -0.20649  -0.15535
 Alpha virt. eigenvalues --   -0.12755  -0.06864  -0.06015  -0.03851  -0.03074
 Alpha virt. eigenvalues --   -0.01133  -0.00646  -0.00239   0.00277   0.00884
 Alpha virt. eigenvalues --    0.01182   0.01724   0.01860   0.02138   0.02565
 Alpha virt. eigenvalues --    0.02937   0.03259   0.03772   0.04137   0.04549
 Alpha virt. eigenvalues --    0.04696   0.05070   0.05214   0.05437   0.05849
 Alpha virt. eigenvalues --    0.06317   0.06770   0.06972   0.07442   0.07562
 Alpha virt. eigenvalues --    0.08352   0.08687   0.08989   0.09140   0.09553
 Alpha virt. eigenvalues --    0.09703   0.10084   0.10145   0.10362   0.10585
 Alpha virt. eigenvalues --    0.11126   0.11701   0.12066   0.12445   0.12625
 Alpha virt. eigenvalues --    0.12951   0.13193   0.13853   0.14047   0.14116
 Alpha virt. eigenvalues --    0.14515   0.14774   0.15080   0.15118   0.15336
 Alpha virt. eigenvalues --    0.15514   0.15870   0.16014   0.16161   0.16502
 Alpha virt. eigenvalues --    0.16791   0.17096   0.17370   0.17594   0.17837
 Alpha virt. eigenvalues --    0.17892   0.18181   0.18457   0.18627   0.18757
 Alpha virt. eigenvalues --    0.18934   0.19398   0.19470   0.19816   0.19881
 Alpha virt. eigenvalues --    0.20020   0.20326   0.20637   0.20858   0.21087
 Alpha virt. eigenvalues --    0.21146   0.21492   0.21532   0.21759   0.22208
 Alpha virt. eigenvalues --    0.22283   0.22411   0.22627   0.22980   0.23326
 Alpha virt. eigenvalues --    0.23545   0.23722   0.23863   0.24015   0.24435
 Alpha virt. eigenvalues --    0.24905   0.25071   0.25261   0.25689   0.25804
 Alpha virt. eigenvalues --    0.25847   0.26175   0.26316   0.26438   0.26753
 Alpha virt. eigenvalues --    0.26944   0.27090   0.27205   0.27620   0.27700
 Alpha virt. eigenvalues --    0.27973   0.28327   0.28465   0.28933   0.29012
 Alpha virt. eigenvalues --    0.29200   0.29346   0.29741   0.29972   0.30546
 Alpha virt. eigenvalues --    0.30636   0.30797   0.31172   0.31683   0.32015
 Alpha virt. eigenvalues --    0.32249   0.32385   0.32909   0.33236   0.33308
 Alpha virt. eigenvalues --    0.33692   0.33842   0.34275   0.34890   0.35202
 Alpha virt. eigenvalues --    0.35301   0.35464   0.36408   0.36710   0.37021
 Alpha virt. eigenvalues --    0.37248   0.37709   0.38260   0.38820   0.38976
 Alpha virt. eigenvalues --    0.39098   0.39915   0.40561   0.40891   0.41141
 Alpha virt. eigenvalues --    0.41641   0.42122   0.43458   0.44392   0.44721
 Alpha virt. eigenvalues --    0.45157   0.45776   0.46881   0.47615   0.48179
 Alpha virt. eigenvalues --    0.48904   0.49805   0.50269   0.50723   0.51151
 Alpha virt. eigenvalues --    0.51646   0.51933   0.52309   0.52928   0.53124
 Alpha virt. eigenvalues --    0.53770   0.54092   0.54701   0.54858   0.55012
 Alpha virt. eigenvalues --    0.55552   0.55823   0.56113   0.56468   0.57215
 Alpha virt. eigenvalues --    0.57559   0.57914   0.58269   0.58567   0.59193
 Alpha virt. eigenvalues --    0.59508   0.59810   0.60248   0.60569   0.60710
 Alpha virt. eigenvalues --    0.61026   0.61343   0.61578   0.61927   0.62329
 Alpha virt. eigenvalues --    0.63255   0.63609   0.63912   0.64464   0.65395
 Alpha virt. eigenvalues --    0.65994   0.66113   0.66607   0.66682   0.67504
 Alpha virt. eigenvalues --    0.67616   0.68230   0.68719   0.69323   0.69500
 Alpha virt. eigenvalues --    0.69740   0.70493   0.70514   0.71261   0.71586
 Alpha virt. eigenvalues --    0.71761   0.71983   0.72593   0.72691   0.73073
 Alpha virt. eigenvalues --    0.73167   0.73406   0.73536   0.74051   0.74206
 Alpha virt. eigenvalues --    0.74424   0.74819   0.75072   0.75454   0.75649
 Alpha virt. eigenvalues --    0.76168   0.76909   0.77497   0.77648   0.78057
 Alpha virt. eigenvalues --    0.78469   0.78871   0.79788   0.80941   0.81165
 Alpha virt. eigenvalues --    0.81820   0.83032   0.83622   0.84867   0.85294
 Alpha virt. eigenvalues --    0.85464   0.85805   0.86371   0.86846   0.87400
 Alpha virt. eigenvalues --    0.88310   0.88386   0.89027   0.89210   0.89784
 Alpha virt. eigenvalues --    0.90455   0.90731   0.91383   0.91689   0.91981
 Alpha virt. eigenvalues --    0.92195   0.92351   0.93292   0.93593   0.93879
 Alpha virt. eigenvalues --    0.94206   0.94416   0.95158   0.95521   0.95741
 Alpha virt. eigenvalues --    0.96086   0.96662   0.97072   0.97400   0.98103
 Alpha virt. eigenvalues --    0.98324   0.99872   0.99947   1.00179   1.00704
 Alpha virt. eigenvalues --    1.01295   1.02143   1.02876   1.03693   1.04108
 Alpha virt. eigenvalues --    1.04577   1.05278   1.05963   1.06230   1.06990
 Alpha virt. eigenvalues --    1.07726   1.08438   1.09048   1.09502   1.10036
 Alpha virt. eigenvalues --    1.10540   1.11888   1.12633   1.13017   1.13598
 Alpha virt. eigenvalues --    1.14056   1.14480   1.16351   1.17204   1.18154
 Alpha virt. eigenvalues --    1.18810   1.19333   1.20805   1.21785   1.23538
 Alpha virt. eigenvalues --    1.25101   1.25565   1.27668   1.28290   1.29050
 Alpha virt. eigenvalues --    1.31009   1.31723   1.32755   1.33986   1.35023
 Alpha virt. eigenvalues --    1.35906   1.37776   1.38040   1.39241   1.39693
 Alpha virt. eigenvalues --    1.41115   1.41445   1.42245   1.43708   1.44549
 Alpha virt. eigenvalues --    1.45715   1.46438   1.46890   1.47159   1.47979
 Alpha virt. eigenvalues --    1.48721   1.49587   1.49932   1.50620   1.50973
 Alpha virt. eigenvalues --    1.51728   1.51987   1.52520   1.53229   1.53786
 Alpha virt. eigenvalues --    1.54291   1.54529   1.54908   1.55268   1.56393
 Alpha virt. eigenvalues --    1.57303   1.58087   1.58676   1.59301   1.59802
 Alpha virt. eigenvalues --    1.60472   1.61390   1.61791   1.62545   1.63354
 Alpha virt. eigenvalues --    1.64698   1.65379   1.65988   1.66597   1.67575
 Alpha virt. eigenvalues --    1.68521   1.69425   1.70412   1.71296   1.71877
 Alpha virt. eigenvalues --    1.72207   1.72576   1.73062   1.74166   1.74406
 Alpha virt. eigenvalues --    1.75246   1.75564   1.76802   1.76968   1.77083
 Alpha virt. eigenvalues --    1.77948   1.78749   1.79513   1.80243   1.80932
 Alpha virt. eigenvalues --    1.81280   1.82424   1.82904   1.84079   1.85116
 Alpha virt. eigenvalues --    1.85288   1.85418   1.86945   1.87172   1.87498
 Alpha virt. eigenvalues --    1.87742   1.88158   1.89043   1.89355   1.89969
 Alpha virt. eigenvalues --    1.90940   1.91199   1.91838   1.92363   1.93115
 Alpha virt. eigenvalues --    1.93376   1.93817   1.93947   1.95238   1.96153
 Alpha virt. eigenvalues --    1.96833   1.97601   1.98159   1.98728   1.99979
 Alpha virt. eigenvalues --    2.00578   2.01220   2.01727   2.03574   2.04449
 Alpha virt. eigenvalues --    2.04983   2.05146   2.05785   2.06009   2.06483
 Alpha virt. eigenvalues --    2.06752   2.08019   2.10654   2.11342   2.11482
 Alpha virt. eigenvalues --    2.12259   2.12994   2.13891   2.14283   2.15462
 Alpha virt. eigenvalues --    2.16469   2.17232   2.17581   2.18445   2.18783
 Alpha virt. eigenvalues --    2.20252   2.21170   2.21661   2.22438   2.23699
 Alpha virt. eigenvalues --    2.24008   2.25373   2.26180   2.27428   2.28158
 Alpha virt. eigenvalues --    2.29064   2.29802   2.30820   2.31866   2.34166
 Alpha virt. eigenvalues --    2.35043   2.36880   2.37843   2.39264   2.39571
 Alpha virt. eigenvalues --    2.40631   2.41835   2.43518   2.44745   2.44989
 Alpha virt. eigenvalues --    2.45572   2.46087   2.48539   2.50546   2.51146
 Alpha virt. eigenvalues --    2.51600   2.54732   2.56191   2.56956   2.57989
 Alpha virt. eigenvalues --    2.58304   2.59176   2.60042   2.61451   2.64431
 Alpha virt. eigenvalues --    2.65731   2.66272   2.67349   2.68880   2.69230
 Alpha virt. eigenvalues --    2.69783   2.70351   2.70963   2.71538   2.72418
 Alpha virt. eigenvalues --    2.72843   2.73407   2.73501   2.73841   2.74358
 Alpha virt. eigenvalues --    2.74669   2.75223   2.76191   2.76608   2.76910
 Alpha virt. eigenvalues --    2.77164   2.77717   2.78418   2.78659   2.78692
 Alpha virt. eigenvalues --    2.80048   2.80290   2.80879   2.81660   2.81971
 Alpha virt. eigenvalues --    2.83362   2.84007   2.84562   2.85424   2.85540
 Alpha virt. eigenvalues --    2.86432   2.87331   2.87676   2.88660   2.89050
 Alpha virt. eigenvalues --    2.90592   2.90926   2.91863   2.93597   2.93861
 Alpha virt. eigenvalues --    2.95445   2.95585   2.95877   2.98380   2.99076
 Alpha virt. eigenvalues --    3.01049   3.04725   3.06567   3.07542   3.07917
 Alpha virt. eigenvalues --    3.09117   3.11124   3.12629   3.13215   3.13545
 Alpha virt. eigenvalues --    3.15840   3.18015   3.19805   3.20081   3.21215
 Alpha virt. eigenvalues --    3.22644   3.23831   3.24433   3.26415   3.28322
 Alpha virt. eigenvalues --    3.30380   3.30874   3.32490   3.34323   3.34456
 Alpha virt. eigenvalues --    3.35859   3.36659   3.38093   3.38805   3.40273
 Alpha virt. eigenvalues --    3.41139   3.43570   3.45127   3.45333   3.48212
 Alpha virt. eigenvalues --    3.48733   3.49385   3.50784   3.52800   3.53675
 Alpha virt. eigenvalues --    3.55124   3.57667   3.59931   3.61254   3.62514
 Alpha virt. eigenvalues --    3.63963   3.66228   3.68434   3.70100   3.73471
 Alpha virt. eigenvalues --    3.82484   3.82774   3.87159   3.91406   3.94891
 Alpha virt. eigenvalues --    4.01816   4.05423   4.06947   4.07655   4.08848
 Alpha virt. eigenvalues --    4.08912   4.10052   4.13306   4.21949   4.25307
 Alpha virt. eigenvalues --    4.29356   4.32857   4.40607   4.48025   4.59666
 Alpha virt. eigenvalues --    4.67532   4.70285   4.72462   4.75160   4.78730
 Alpha virt. eigenvalues --    4.81697   4.83625   4.89540  23.42928  23.62149
 Alpha virt. eigenvalues --   23.64175  23.77265  23.82482  23.84351  23.85890
 Alpha virt. eigenvalues --   23.88495  23.88865  23.90700  23.93480  23.94349
 Alpha virt. eigenvalues --   23.94658  23.96288  23.99520  23.99826  24.01353
 Alpha virt. eigenvalues --   24.03093  24.04977  24.06528  24.07004  24.09191
 Alpha virt. eigenvalues --   24.09385  24.12231  24.13773  24.14001  24.15745
 Alpha virt. eigenvalues --   24.18143  24.20209  24.22329
          Condensed to atoms (all electrons):
               1          2          3          4          5          6
     1  C   11.736671   1.283065  -0.721714   0.072064  -1.746669  -0.795925
     2  C    1.283065   8.217646   0.733411   0.523718   0.646400   0.261824
     3  C   -0.721714   0.733411   9.084366   2.440042   1.311208  -1.447686
     4  C    0.072064   0.523718   2.440042  13.020647  -0.749900  -2.524115
     5  C   -1.746669   0.646400   1.311208  -0.749900  10.700469   1.792108
     6  C   -0.795925   0.261824  -1.447686  -2.524115   1.792108  10.981481
     7  C   -1.862011  -0.215298   1.237423  -1.337368   0.134733  -1.448733
     8  C   -1.064251  -1.241157  -0.570218   0.188635   0.346397  -0.263456
     9  C    0.354931   0.274239   1.970754   0.900681  -0.093403  -0.546202
    10  C   -0.818973  -1.720250  -1.793448  -4.080815  -0.337151  -0.633298
    11  C   -1.872985  -0.833127  -1.407911  -1.006807  -0.053181   0.725486
    12  C    0.079834  -0.409715   0.194494  -0.476376  -0.168462   0.314220
    13  C   -0.355087  -1.023505  -0.460647   0.339679   0.049518  -0.024290
    14  C   -0.154270  -0.269599  -0.398112   0.451833   0.014279  -0.035459
    15  C    1.825034   0.242107  -0.791883  -0.673996  -1.365338   0.135205
    16  C    0.456231  -0.327363  -1.428331  -0.404520  -1.083970   0.044842
    17  C   -0.251947  -0.076128  -0.675392  -0.524053  -1.180498   0.146728
    18  C    0.707736   0.519562  -0.737542  -0.443774  -0.938868  -0.773087
    19  C    0.058843   0.032568  -0.039632   0.115703  -0.009787   0.010258
    20  C    0.511426   0.839804   0.245861   0.045663   0.052241   0.020550
    21  C    0.259239   0.243438   0.043245   0.041815  -0.008946   0.027913
    22  C   -0.075011  -0.123154  -0.077865  -0.033559   0.010124  -0.013535
    23  C   -0.844432  -0.896444  -0.368232  -0.202533  -0.719874  -0.079740
    24  C   -0.087443  -0.245578  -0.021655  -0.028022  -0.272830  -0.029773
    25  C    0.140181  -0.292298  -0.033577  -0.073055  -0.045675   0.017985
    26  C   -0.810410   0.047538  -0.268471   0.010170  -0.221740  -0.094817
    27  C   -0.111418  -0.052018  -0.011638  -0.071662  -0.131256   0.001750
    28  C    0.047810   0.030699   0.013101   0.002525  -0.007006   0.001101
    29  C    0.038788  -0.131349  -0.027521  -0.004862  -0.000316   0.002752
    30  C   -0.035172  -0.016436  -0.003926   0.001823  -0.010691   0.000320
    31  H    0.000036   0.000092   0.000002   0.000001   0.000001  -0.000000
    32  H    0.000058   0.000531  -0.000245   0.000010  -0.000012   0.000004
    33  H   -0.052044  -0.091646  -0.005504  -0.036200  -0.005297  -0.015066
    34  H    0.000162  -0.000094   0.000024  -0.000003   0.000015   0.000000
    35  H    0.003007   0.001264   0.000145   0.000008   0.000201  -0.000002
    36  H    0.033104   0.005610   0.001102   0.000163   0.005328   0.000159
    37  H   -0.025619   0.023955   0.000632   0.004207   0.033903   0.009435
    38  H   -0.059622   0.017659  -0.021819  -0.057005   0.362458  -0.013749
    39  H   -0.009710  -0.005705   0.024978  -0.088301  -0.020472   0.376240
    40  H    0.012238  -0.000223   0.035484  -0.033989   0.015077   0.036057
[...]
 -0.00000420,0.00000004,0.00002174,0.00003317,-0.00009336,-0.00010110,-
 0.00003417,-0.00008940,0.00013729,-0.00029950,0.00007523,0.00005058,-0
 .00008210,-0.00001607,-0.00000506,-0.00001448,0.00001296,0.00002856,0.
 00000437,-0.00001175,0.00000021,0.00000759,0.00003211,0.00000790,0.000
 06602,0.00026631,0.00004648,-0.00034090,-0.00000307,0.00000817,0.00000
 229,-0.00000405,0.00000337,0.00000091,0.00000380,0.00000227,0.00000016
 ,0.00000217,0.00000290,-0.00000004,-0.00001017,-0.00000182,-0.00001669
 ,0.00000431,0.00000464,0.00000546,0.00000296,0.00001269,-0.00001120,-0
 .00000399,-0.00001518,-0.00000265,-0.00019504,0.00007687,0.00023396,0.
 13471722,-0.00008042,-0.00000664,0.00000984,0.00006578,-0.00011443,0.0
 0000814,-0.00004598,0.00002967,0.00004750,-0.00003603,-0.00003109,0.00
 002474,0.00007833,-0.00000219,-0.00000771,-0.00004955,0.00004799,-0.00
 001200,0.00023578,0.00015927,-0.00004432,-0.00062164,0.00007212,0.0000
 1384,0.00008606,0.00001866,-0.00001495,-0.00002915,-0.00005464,0.00001
 114,0.00108717,-0.00079598,0.00058870,-0.00492858,-0.00245695,-0.00092
 280,0.01693492,-0.01808027,-0.00672292,0.00246747,0.00075643,0.0002895
 3,0.00002906,-0.00002851,-0.00000300,-0.00001110,-0.00002400,0.0000454
 0,0.00003619,-0.00000102,-0.00001703,-0.00034342,-0.00001914,-0.000415
 79,0.11753648,-0.24117135,-0.06396939,-0.00011060,0.00000687,-0.000074
 60,-0.00130811,0.00095030,0.00018783,-0.00416518,0.00613496,0.00214069
 ,0.00000191,-0.00001220,-0.00000303,-0.00000328,0.00000140,0.00000089,
 0.00003344,0.00000110,0.00000994,-0.00003314,-0.00002358,-0.00000946,-
 0.00007245,0.00016748,-0.00001282,0.00008667,-0.00003443,0.00002723,-0
 .00002107,-0.00005285,-0.00000178,-0.00002263,0.00006088,0.00000527,0.
 00000972,-0.00000137,-0.00000270,-0.00000442,0.00000146,-0.00000435,0.
 00010323,0.00006423,0.00015392,0.00000298,-0.00000390,-0.00000094,0.00
 000341,-0.00000302,-0.00000125,0.00000112,-0.00000463,-0.00000033,0.00
 000079,-0.00000423,-0.00000503,-0.00000440,-0.00000429,0.00001512,-0.0
 0000353,-0.00000282,0.00000117,-0.00000470,0.00000060,-0.00000411,-0.0
 0002833,-0.00000270,0.00000916,-0.00117928,0.00034255,0.00014803,-0.12
 606948,0.25331461,-0.00027730,0.00013076,0.00010857,-0.00003932,-0.000
 18847,0.00007246,-0.00004283,-0.00017564,-0.00017350,0.00029673,-0.000
 34895,-0.00009753,0.00021590,-0.00010585,-0.00003209,-0.00008044,0.000
 23145,0.00006958,0.00091004,-0.00029674,0.00001372,0.00030767,0.001092
 48,0.00091412,-0.00039953,-0.00035906,0.00005944,-0.00011066,0.0004800
 4,0.00002170,-0.00083632,-0.00125899,0.00149307,0.00152825,0.00163338,
 0.00326319,-0.00081223,0.00256772,0.00076283,-0.00145933,-0.00059883,-
 0.00253822,0.00017691,0.00000135,0.00001659,-0.00000312,-0.00018586,-0
 .00003521,0.00009765,0.00015588,-0.00001031,-0.00044009,0.00019824,-0.
 00018879,0.04777844,-0.06327436,-0.05289700,-0.00092544,0.00103109,0.0
 0033669,0.00369079,0.00101277,0.00513342,0.00661207,-0.00954984,0.0015
 1211,0.00000128,-0.00001631,0.00000490,-0.00001138,-0.00001034,-0.0000
 0405,0.00001890,-0.00000620,0.00004879,-0.00010486,-0.00021984,-0.0000
 0900,-0.00032942,0.00003391,-0.00065011,0.00022947,0.00015032,-0.00000
 431,-0.00002603,-0.00004874,-0.00004310,-0.00006680,0.00003810,-0.0000
 0918,-0.00001250,0.00000516,0.00002381,-0.00003906,-0.00002583,0.00001
 401,0.00065358,0.00026518,-0.00047936,-0.00000093,-0.00000409,0.000004
 51,-0.00000077,-0.00000065,0.00000369,0.00000334,-0.00000183,-0.000001
 65,0.00000584,-0.00000197,0.00001095,-0.00001597,-0.00000971,-0.000046
 71,-0.00000079,0.00000089,0.00001192,-0.00000720,0.00000349,-0.0000079
 2,0.00000014,-0.00000644,0.00001844,-0.00015514,-0.00018154,0.00025901
 ,-0.05407454,0.06841804,0.04722296,0.00003999,0.00002462,0.00000352,0.
 00000848,-0.00005561,0.00000574,-0.00002047,0.00003154,0.00004289,-0.0
 0004876,0.00010532,0.00001141,-0.00008768,-0.00000394,0.00001343,0.000
 05374,-0.00008584,-0.00001502,-0.00017381,0.00010351,0.00002074,-0.000
 49438,-0.00019644,-0.00036028,0.00015104,0.00000370,-0.00009285,-0.000
 00693,-0.00014021,0.00001761,0.00013877,0.00022986,0.00008351,-0.00026
 931,-0.00010988,-0.00027441,-0.00378917,0.00083106,0.00484482,0.000303
 19,-0.00095702,-0.00000883,-0.00002050,0.00001291,-0.00000063,0.000012
 06,0.00000971,0.00000459,-0.00004149,-0.00002343,-0.00001093,0.0000019
 5,-0.00004886,-0.00002618,-0.00818771,-0.02822067,0.00343395,-0.001188
 30,0.00189149,0.00276003,0.00882889,0.01871332,-0.00151620,-0.09905033
 ,-0.10265472,0.02201462,-0.00000694,0.00000946,-0.00000130,-0.00001241
 ,0.00000409,0.00000366,0.00002263,0.00004527,-0.00001465,-0.00016226,0
 .00009419,-0.00010340,0.00044127,0.00035962,0.00020809,-0.00003361,0.0
 0000579,0.00001939,-0.00000825,0.00001953,0.00000972,0.00000460,-0.000
 02102,-0.00001405,-0.00000933,0.00000814,-0.00000720,-0.00002835,0.000
 04369,-0.00001442,0.00021871,0.00010911,-0.00012599,-0.00000025,-0.000
 00146,-0.00000019,0.00000145,0.00000652,0.00000168,0.00000030,-0.00000
 210,-0.00000011,0.00000176,-0.00000346,-0.00000044,0.00000054,-0.00000
 277,-0.00000026,-0.00000405,-0.00000505,-0.00000082,-0.00000582,-0.000
 01587,0.00000720,-0.00000596,0.00000747,0.00000888,-0.00002447,-0.0000
 0331,0.00007389,0.00019082,0.00052143,-0.00193174,0.10306884,0.0000208
 4,-0.00002062,0.00000798,-0.00001536,-0.00001685,-0.00000343,-0.000011
 06,-0.00000302,0.00000648,-0.00004043,0.00001305,-0.00000933,-0.000019
 53,-0.00000321,0.00000186,0.00001842,-0.00000618,0.00000407,0.00000617
 ,0.00001482,0.00009147,-0.00009832,0.00003585,0.00003540,0.00004124,0.
 00000239,-0.00003109,-0.00000753,-0.00003274,-0.00000400,-0.00001028,-
 0.00002496,-0.00015206,0.00049494,0.00058169,-0.00004586,0.00010283,0.
 00146254,-0.00025934,-0.00005381,-0.00005376,0.00002836,-0.00002225,-0
 .00000904,-0.00000242,-0.00000651,0.00002204,-0.00001105,-0.00001570,-
 0.00001986,0.00001845,0.00003025,0.00007859,0.00000316,0.00080407,0.00
 099466,-0.00064341,0.00351373,-0.00082275,-0.00098531,-0.01169590,-0.0
 2035170,0.00339595,-0.10204790,-0.28278539,0.03011706,-0.00000417,0.00
 000274,-0.00000145,0.00003766,0.00000215,0.00000031,-0.00005166,-0.000
 08103,-0.00001446,0.00035239,-0.00002677,0.00013924,-0.00080980,-0.000
 66158,-0.00025050,-0.00000418,-0.00008889,0.00000122,0.00003071,-0.000
 01397,0.00000534,0.00001834,0.00002134,-0.00000453,0.00003205,-0.00001
 033,0.00000868,-0.00000126,-0.00002884,0.00000927,-0.00010164,-0.00007
 957,-0.00002815,0.00000722,-0.00000564,0.00000547,0.00000736,-0.000016
 09,0.00000132,-0.00000169,-0.00000835,0.00000041,-0.00000105,-0.000006
 95,0.00000356,-0.00000167,-0.00000681,-0.00000415,-0.00000678,-0.00000
 388,0.00000181,-0.00000631,-0.00000586,0.00000523,-0.00000776,0.000005
 63,0.00000487,-0.00001104,-0.00000371,0.00001863,-0.00022820,0.0007018
 7,0.00031741,0.10939172,0.30036225,-0.00005399,-0.00001594,0.00000335,
 0.00006974,0.00003411,0.00000939,0.00003931,0.00008663,0.00005166,-0.0
 0003237,-0.00008149,0.00001482,0.00008923,0.00000812,-0.00001423,-0.00
 006374,0.00007133,-0.00000511,-0.00007032,-0.00019145,-0.00008950,0.00
 041767,0.00008343,-0.00064310,-0.00004569,0.00013737,0.00003656,0.0000
 6471,0.00001427,0.00003320,0.00019161,0.00029215,-0.00050266,0.0003641
 3,-0.00073796,-0.00018343,0.00467262,-0.00202646,0.00546707,0.00006593
 ,0.00121781,0.00057157,0.00001964,-0.00001104,0.00000307,-0.00001655,-
 0.00001821,-0.00000415,0.00005610,0.00003815,0.00001891,-0.00010861,0.
 00001807,0.00004280,0.00313422,0.01215298,0.00236448,0.00231261,-0.002
 24854,0.00565547,-0.00409256,-0.00622774,0.00351309,0.02418091,0.02944
 376,-0.04549409,0.00000962,-0.00002048,0.00000024,0.00000903,0.0000073
 3,0.00000576,-0.00001406,-0.00006916,-0.00005028,0.00025301,-0.0000200
 6,-0.00000776,-0.00056336,-0.00068812,0.00031652,-0.00008950,0.0000009
 0,-0.00011432,-0.00001191,-0.00003297,0.00000490,0.00000632,0.00002224
 ,-0.00001308,-0.00000351,0.00000185,0.00000478,-0.00003550,0.00009554,
 0.00005476,-0.00008432,-0.00014436,-0.00020390,0.00000117,0.00000063,0
 .00000518,-0.00000116,-0.00001088,0.00000269,-0.00000231,-0.00000122,0
 .00000022,-0.00000150,0.00000066,0.00000162,-0.00000219,0.00000008,0.0
 0000143,0.00000124,0.00000254,0.00000283,0.00000603,0.00001844,-0.0000
 0294,0.00000237,-0.00000562,-0.00000272,-0.00000023,-0.00010527,0.0001
 5256,-0.00176141,0.00005298,-0.00348520,-0.02717894,-0.03190227,0.0355
 8204,0.00009405,-0.00012864,-0.00002910,0.00011096,0.00006724,0.000027
 75,0.00000680,0.00025239,-0.00024235,-0.00024195,0.00013240,0.00009985
 ,0.00000590,0.00003346,-0.00002089,0.00000826,0.00000106,0.00001314,-0
 .00048713,-0.00026683,-0.00035660,-0.00041711,-0.00044838,0.00014530,0
 .00023713,0.00008146,0.00007179,-0.00006175,-0.00023123,-0.00005131,-0
 .00046040,0.00116949,0.00086354,0.00068953,-0.00310673,0.00034929,-0.0
 0013344,0.00001337,-0.00015484,0.00061190,-0.00020258,-0.00047766,-0.0
 0009225,-0.00001377,-0.00000037,0.00004115,-0.00003019,0.00001101,0.00
 012788,0.00002416,-0.00006166,0.00001091,0.00008540,-0.00005555,0.0015
 6360,0.00362979,0.00264586,-0.00774281,-0.00263069,0.00476841,-0.27249
 400,-0.04037194,0.10930058,-0.01255600,-0.00479904,0.00813383,-0.00004
 848,0.00005183,-0.00000896,0.00006208,0.00001104,0.00001496,-0.0002927
 5,-0.00002975,-0.00008689,0.00038264,-0.00052589,0.00019884,-0.0009606
 7,0.00040543,-0.00066440,-0.00086595,0.00091569,-0.00204414,-0.0000116
 4,0.00019914,0.00010939,0.00038668,0.00031427,-0.00005147,0.00000474,-
 0.00000315,-0.00008115,-0.00071329,0.00316232,-0.00135167,-0.00039206,
 0.00000022,0.00059932,-0.00000290,0.00004444,0.00005287,0.00000325,-0.
 00001261,0.00000826,0.00000053,-0.00000301,-0.00000644,-0.00000154,0.0
 0000017,0.00000445,0.00000390,-0.00000102,0.00001756,0.00000164,0.0000
 0206,0.00001120,-0.00000022,-0.00000863,-0.00001459,-0.00000547,0.0000
 0356,0.00001141,-0.00000557,0.00006383,-0.00009827,-0.00070026,-0.0002
 7355,0.00018754,0.00024904,0.00033021,-0.00186658,0.29305858,0.0000283
 5,0.00006943,0.00001491,-0.00012197,-0.00010038,-0.00001153,-0.0002136
 6,-0.00013231,0.00003589,0.00011369,0.00002364,0.00003072,-0.00008122,
 -0.00003584,0.00001556,0.00004241,-0.00006909,-0.00000472,0.00024554,-
 0.00031898,-0.00047335,-0.00007264,0.00009914,0.00003979,0.00005626,-0
 .00001028,0.00003775,-0.00005511,-0.00000351,0.00000594,-0.00194787,0.
 00045256,0.00151056,-0.00108998,-0.00560772,-0.00137139,-0.00003816,-0
 .00100822,0.00004790,0.00006980,-0.00006914,-0.00008798,-0.00000158,-0
 .00002942,0.00000319,0.00003784,-0.00000906,0.00002599,-0.00007468,0.0
 0005306,-0.00002033,0.00005485,0.00029624,-0.00012879,0.00282874,-0.00
 343743,-0.00121550,-0.02457656,0.00098331,0.01360445,-0.04340288,-0.06
 578835,0.01717811,0.02435661,0.00638112,-0.01026734,-0.00007054,0.0000
 8106,-0.00000427,0.00009423,-0.00002105,0.00000906,-0.00021547,-0.0000
 0178,0.00000112,0.00008822,-0.00028875,-0.00014888,-0.00075544,0.00144
 124,-0.00029150,0.00039061,-0.00080706,0.00049444,0.00008729,0.0002775
 3,0.00002046,0.00047292,-0.00010471,-0.00003417,0.00000007,-0.00002617
 ,0.00004842,0.00106482,-0.00100809,0.00185081,0.00056475,0.00029641,-0
 .00006756,-0.00000097,0.00003729,0.00002069,-0.00000132,0.00000458,-0.
 00000067,0.00000941,0.00000081,-0.00000092,0.00000363,-0.00000252,-0.0
 0000200,-0.00000077,-0.00000054,0.00000163,-0.00000134,-0.00001157,-0.
 00000175,-0.00000361,-0.00000075,-0.00000921,-0.00001127,-0.00000056,0
 .00000478,-0.00008617,0.00002767,-0.00002821,0.00112732,0.00010874,-0.
 00046856,-0.00015095,0.00097715,0.00007319,0.04150721,0.06741991,0.000
 23998,-0.00028591,-0.00005561,0.00026377,0.00029349,0.00002196,0.00038
 409,0.00064393,-0.00060050,-0.00067751,0.00036019,0.00023049,-0.000001
 08,0.00013276,-0.00004514,0.00000846,-0.00003084,0.00004821,-0.0015553
 6,0.00017837,-0.00030192,-0.00081873,-0.00131230,0.00035229,0.00055341
 ,0.00027996,0.00016018,0.00000200,-0.00061814,-0.00017235,0.00125896,0
 .00180976,0.00012982,-0.00000293,-0.00077473,0.00426946,-0.00234827,0.
 00066444,0.00006276,0.00175649,0.00004266,-0.00097542,-0.00023526,0.00
 004042,-0.00000563,0.00012124,-0.00010150,-0.00000570,0.00031752,-0.00
 000225,-0.00003819,0.00014090,-0.00027916,0.00012269,0.00269314,-0.001
 10663,0.00540376,0.00129999,-0.00587501,0.00209782,0.11186998,0.020320
 59,-0.08892464,0.00735026,0.00209697,0.00308282,-0.00007861,-0.0000368
 0,-0.00002590,-0.00003891,0.00015564,0.00002162,-0.00029366,-0.0000784
 9,-0.00007437,0.00014745,-0.00055706,0.00004061,-0.00059664,-0.0008911
 6,-0.00075794,0.00024137,0.00133638,-0.00000665,0.00022459,0.00020590,
 -0.00007233,-0.00007283,-0.00053020,-0.00017685,-0.00003584,0.00003713
 ,0.00006451,-0.00172692,0.00189166,-0.00128605,-0.00064541,0.00000882,
 0.00114204,-0.00000024,-0.00005333,0.00004666,0.00000296,-0.00000817,0
 .00001041,-0.00001331,0.00000252,-0.00000965,-0.00000684,0.00001192,0.
 00001355,0.00000948,0.00000648,0.00002928,0.00001069,0.00002184,0.0000
 1780,0.00000870,-0.00001093,-0.00002926,0.00000486,0.00000433,0.000014
 20,-0.00001428,0.00011235,-0.00021946,0.00025798,0.00005125,-0.0002239
 6,-0.00161160,0.00002629,-0.00311066,-0.12025696,-0.01958253,0.0788165
 2,-0.00058351,0.00154841,0.00023654,-0.00273300,-0.00121895,0.00038889
 ,-0.00455744,-0.00751165,-0.00140497,0.00616292,-0.00009548,-0.0018632
 7,-0.00104630,-0.00064186,0.00025015,0.00090799,-0.00142656,0.00020024
 ,0.01811187,0.00205926,0.00064538,0.00217458,0.00859047,0.00267394,-0.
 00200532,-0.00181280,-0.00025572,-0.00095685,0.00357470,0.00071696,-0.
 03652029,-0.00384666,0.05952061,-0.00179023,-0.00949316,0.00140876,-0.
 00197809,0.00786383,0.00130385,-0.00665931,-0.00494969,0.00074179,0.00
 033699,0.00026914,0.00012104,0.00016866,-0.00048898,0.00060096,-0.0015
 6006,0.00065546,-0.00126316,0.00048784,0.00397129,-0.00421048,0.005399
 68,-0.00657414,-0.00121813,-0.01094800,0.03096489,0.04266389,-0.003348
 74,-0.02398814,-0.00807962,-0.00701320,0.00516226,0.00124704,0.0000365
 2,0.00013473,-0.00001439,0.00011617,-0.00027658,-0.00000071,-0.0008859
 5,-0.00011626,0.00074303,0.00148137,-0.00057627,-0.00069882,-0.0115507
 8,0.00193665,-0.02200524,0.00028925,0.00218508,0.00032711,0.00002711,0
 .00025923,0.00003768,-0.00053557,-0.00023521,0.00073016,-0.00019760,0.
 00010657,-0.00016846,0.00031222,-0.00052254,-0.00029786,0.03430383,0.0
 1904321,-0.03225630,0.00000297,0.00003798,-0.00006343,-0.00001443,0.00
 001423,-0.00002936,0.00001937,0.00001316,-0.00000003,0.00006259,-0.000
 05818,-0.00009242,-0.00000504,-0.00000680,-0.00004876,-0.00002116,-0.0
 0010109,0.00001400,-0.00006558,0.00004249,0.00000790,-0.00010671,0.000
 00336,-0.00008083,-0.00003387,0.00013106,-0.00069367,-0.00028088,0.000
 12808,-0.00051079,-0.00005754,0.00004165,0.00013308,0.00102651,-0.0002
 7040,0.00186291,0.02402701,-0.00071780,0.00047674,0.00008741,-0.001171
 85,-0.00027527,0.00044867,-0.00235428,-0.00427340,-0.00082859,0.003061
 63,0.00010447,-0.00081578,0.00002312,-0.00004039,0.00002192,0.00016169
 ,-0.00060579,0.00009266,0.00895201,0.00127418,-0.00060891,0.00004392,0
 .00249575,0.00117576,-0.00078330,-0.00055374,-0.00006216,-0.00052000,0
 .00156976,0.00029745,-0.02422270,-0.00346624,0.03533729,0.01055851,-0.
 00814929,-0.02875469,-0.00860810,0.01295993,0.00002421,0.00195018,-0.0
 0435577,0.00105217,0.00046509,0.00018125,0.00006718,-0.00022725,-0.000
 73975,0.00022385,0.00040260,0.00135242,-0.00033579,-0.00177414,0.00147
 728,-0.00186592,0.00625498,-0.00255400,-0.00067484,0.01277662,-0.00367
 087,0.03947887,-0.00476723,-0.02865874,-0.01689695,-0.00997971,0.00381
 048,0.00287271,0.00005353,-0.00005924,-0.00004345,-0.00008949,0.000058
 77,0.00005665,0.00007673,0.00018439,0.00023175,0.00000995,-0.00183167,
 0.00044749,-0.00046601,0.00422014,0.00429048,0.00325589,-0.00003428,0.
 00057872,0.00024894,-0.00090233,-0.00001234,-0.00052814,0.00061589,-0.
 00102496,0.00005111,0.00000913,0.00001423,-0.00019954,-0.00063617,0.00
 038852,0.03222656,0.00016258,-0.01171594,-0.00004773,-0.00003677,0.000
 07947,-0.00001136,0.00001529,-0.00001235,-0.00002417,0.00001330,0.0000
 1898,0.00002803,-0.00001495,-0.00005426,-0.00000275,0.00000081,0.00002
 049,0.00000313,-0.00002131,0.00000687,-0.00000884,0.00003126,-0.000003
 00,-0.00007531,0.00000121,-0.00005512,0.00004848,0.00020878,-0.0004914
 9,-0.00025278,-0.00000495,-0.00042301,0.00011957,-0.00008042,0.0006846
 6,0.00058599,-0.00013759,0.00139911,-0.02452577,0.02987911,-0.00017913
 ,0.00110085,-0.00030285,-0.00214845,-0.00038516,0.00034794,-0.00207123
 ,-0.00481315,-0.00070753,0.00296534,0.00123599,-0.00068293,-0.00079283
 ,0.00022312,0.00012493,0.00036333,-0.00165629,0.00001807,0.00807245,0.
 00237129,-0.00178621,-0.00021810,-0.00191588,0.00114230,0.00000822,0.0
 0010939,0.00003104,-0.00024089,0.00049176,0.00003092,-0.01390868,-0.00
 503284,0.02966205,0.03253971,-0.02367693,-0.04364986,-0.01708415,0.022
 25619,-0.00227964,0.00836034,-0.00351487,0.00086208,0.00020943,0.00002
 231,0.00011541,0.00004192,-0.00027870,0.00054120,0.00016051,0.00107848
 ,-0.00096870,0.00044522,0.00420634,-0.00329564,0.00947733,-0.00387955,
 -0.00152375,0.01289709,0.04204735,0.02922015,-0.00337716,-0.03408350,-
 0.00249164,-0.01363364,0.00708056,0.00440108,0.00006033,0.00000999,-0.
 00002339,0.00001551,-0.00009404,0.00005305,-0.00064027,-0.00010431,0.0
 0068602,0.00028446,-0.00137857,0.00006008,-0.01512164,0.00254000,-0.02
 205010,0.00149297,0.00258952,0.00075866,-0.00003203,-0.00040079,-0.000
 09143,-0.00102504,0.00020138,0.00017331,-0.00021698,0.00013298,-0.0001
 2534,0.00014952,-0.00085126,-0.00001084,0.03455583,0.01962135,-0.02289
 055,-0.00001407,0.00001150,-0.00001133,-0.00002477,-0.00000113,-0.0000
 3806,0.00000063,0.00002475,-0.00000461,0.00002905,-0.00002034,-0.00008
 238,0.00000172,0.00002280,0.00012169,0.00001843,-0.00003068,-0.0000013
 4,-0.00000651,0.00003187,0.00000190,-0.00005298,-0.00001127,0.00000457
 ,0.00017635,0.00020827,-0.00033929,-0.00027436,-0.00001005,-0.00046328
 ,-0.00027892,0.00009348,0.00000614,0.00033570,-0.00085421,0.00091872,-
 0.04131952,-0.02471802,0.03453940\\-0.00000386,0.00000401,0.00000309,-
 0.00000072,0.00000249,0.00001288,0.00000071,-0.00000545,-0.00000316,0.
 00000410,0.00000225,0.00000834,0.00000127,0.00000422,-0.00000484,-0.00
 000667,0.00000624,-0.00000170,0.00001405,0.00000528,-0.00000800,0.0000
 0226,0.00001478,-0.00000036,-0.00000379,0.00000089,0.00000709,-0.00000
 154,0.00001141,0.00000028,-0.00001797,-0.00003356,-0.00000669,0.000006
 03,-0.00000849,0.00004583,0.00003403,0.00001317,0.00000522,-0.00001520
 ,0.00000622,-0.00001637,-0.00000213,-0.00000212,-0.00000894,-0.0000046
 8,-0.00000107,-0.00000345,-0.00000606,0.00000275,-0.00001893,-0.000002
 99,0.00000842,0.00001105,-0.00001646,0.00000260,0.00000337,0.00002507,
 0.00000381,-0.00003032,-0.00001371,0.00000252,0.00000728,0.00001308,-0
 .00001257,-0.00001517,-0.00000126,-0.00000134,-0.00000399,-0.00000498,
 -0.00000418,-0.00000391,0.00000064,-0.00000246,-0.00000231,-0.00000675
 ,-0.00000075,-0.00000709,0.00000514,0.00000804,0.00001604,0.00000030,-
 0.00000586,0.00000037,-0.00000097,-0.00000584,-0.00000438,0.00000027,-
 0.00000294,-0.00000601,0.00000166,-0.00000594,-0.00000337,0.00000275,-
 0.00000430,-0.00000365,-0.00001039,-0.00001854,0.00000218,-0.00000120,
 -0.00000553,-0.00000414,-0.00000324,-0.00000426,-0.00000449,-0.0000043
 9,-0.00000193,-0.00000426,-0.00000456,0.00000056,-0.00000058,-0.000004
 12,0.00000298,0.00000083,-0.00000242,0.00000494,0.00000198,0.00000056,
 0.00000569,0.00000478,0.00000247,0.00000370,0.00000608,0.00000218,0.00
 000015,0.00001193,0.00000867,-0.00000004,0.00001153,0.00000388,-0.0000
 0121,-0.00000018,0.00000762,-0.00000057,0.00001235,0.00000333,0.000011
 83,-0.00000621\\\@


 THE ONLY DIFFERENCE BETWEEN ECCENTRICS AND JOGGERS
 IS THAT JOGGERS WEAR SWEATBANDS WHEN THEY RUN IN THE RAIN.
 Job cpu time:       1 days  0 hours 33 minutes 36.9 seconds.
 Elapsed time:       0 days  1 hours 13 minutes 53.2 seconds.
 File lengths (MBytes):  RWF=   2279 Int=      0 D2E=      0 Chk=     49 Scr=      1
 Normal termination of Gaussian 16 at Wed Aug 28 21:20:15 2019.
