 Entering Gaussian System, Link 0=/share/apps/gaussian16/g16/g16
 Initial command:
 /share/apps/gaussian16/g16/l1.exe "/home/amen01//scratch/455/Gau-23685.inp" -scrdir="/home/amen01//scratch/455/"
 Entering Link 1 = /share/apps/gaussian16/g16/l1.exe PID=     23686.
  
 Copyright (c) 1988-2017, Gaussian, Inc.  All Rights Reserved.
  
 This is part of the Gaussian(R) 16 program.  It is based on
 the Gaussian(R) 09 system (copyright 2009, Gaussian, Inc.),
 the Gaussian(R) 03 system (copyright 2003, Gaussian, Inc.),
 the Gaussian(R) 98 system (copyright 1998, Gaussian, Inc.),
 the Gaussian(R) 94 system (copyright 1995, Gaussian, Inc.),
 the Gaussian 92(TM) system (copyright 1992, Gaussian, Inc.),
 the Gaussian 90(TM) system (copyright 1990, Gaussian, Inc.),
 the Gaussian 88(TM) system (copyright 1988, Gaussian, Inc.),
 the Gaussian 86(TM) system (copyright 1986, Carnegie Mellon
 University), and the Gaussian 82(TM) system (copyright 1983,
 Carnegie Mellon University). Gaussian is a federally registered
 trademark of Gaussian, Inc.
  
 This software contains proprietary and confidential information,
 including trade secrets, belonging to Gaussian, Inc.
  
 This software is provided under written license and may be
 used, copied, transmitted, or stored only in accord with that
 written license.
  
 The following legend is applicable only to US Government
 contracts under FAR:
  
                    RESTRICTED RIGHTS LEGEND
  
 Use, reproduction and disclosure by the US Government is
 subject to restrictions as set forth in subparagraphs (a)
 and (c) of the Commercial Computer Software - Restricted
 Rights clause in FAR 52.227-19.
  
 Gaussian, Inc.
 340 Quinnipiac St., Bldg. 40, Wallingford CT 06492
  
  
 ---------------------------------------------------------------
 Warning -- This program may not be used in any manner that
 competes with the business of Gaussian, Inc. or will provide
 assistance to any competitor of Gaussian, Inc.  The licensee
 of this program is prohibited from giving any competitor of
 Gaussian, Inc. access to this program.  By using this program,
 the user acknowledges that Gaussian, Inc. is engaged in the
 business of creating and licensing software in the field of
 computational chemistry and represents and warrants to the
 licensee that it is not a competitor of Gaussian, Inc. and that
 it will not use this program in any manner prohibited above.
 ---------------------------------------------------------------
  

 Cite this work as:
 Gaussian 16, Revision B.01,
 M. J. Frisch, G. W. Trucks, H. B. Schlegel, G. E. Scuseria, 
 M. A. Robb, J. R. Cheeseman, G. Scalmani, V. Barone, 
 G. A. Petersson, H. Nakatsuji, X. Li, M. Caricato, A. V. Marenich, 
 J. Bloino, B. G. Janesko, R. Gomperts, B. Mennucci, H. P. Hratchian, 
 J. V. Ortiz, A. F. Izmaylov, J. L. Sonnenberg, D. Williams-Young, 
 F. Ding, F. Lipparini, F. Egidi, J. Goings, B. Peng, A. Petrone, 
 T. Henderson, D. Ranasinghe, V. G. Zakrzewski, J. Gao, N. Rega, 
 G. Zheng, W. Liang, M. Hada, M. Ehara, K. Toyota, R. Fukuda, 
 J. Hasegawa, M. Ishida, T. Nakajima, Y. Honda, O. Kitao, H. Nakai, 
 T. Vreven, K. Throssell, J. A. Montgomery, Jr., J. E. Peralta, 
 F. Ogliaro, M. J. Bearpark, J. J. Heyd, E. N. Brothers, K. N. Kudin, 
 V. N. Staroverov, T. A. Keith, R. Kobayashi, J. Normand, 
 K. Raghavachari, A. P. Rendell, J. C. Burant, S. S. Iyengar, 
 J. Tomasi, M. Cossi, J. M. Millam, M. Klene, C. Adamo, R. Cammi, 
 J. W. Ochterski, R. L. Martin, K. Morokuma, O. Farkas, 
 J. B. Foresman, and D. J. Fox, Gaussian, Inc., Wallingford CT, 2016.
 
 ******************************************
 Gaussian 16:  ES64L-G16RevB.01 20-Dec-2017
                12-Jun-2019 
 ******************************************
 %nprocshared=20
 Will use up to   20 processors via shared memory.
 %mem=100GB
 %chk=7-path-TSguess-3b.chk
 ---------------------------------------------------------------
 # opt=(ts,calcfc,noeigen) freq b3lyp/6-311+g(d,p) int=grid=fine
 ---------------------------------------------------------------
 1/5=1,10=4,11=1,18=20,26=3,38=1/1,3;
 2/9=110,12=2,17=6,18=5,40=1/2;
 3/5=4,6=6,7=111,11=2,25=1,30=1,71=2,74=-5,75=-4,140=1/1,2,3;
 4//1;
 5/5=2,38=5/2;
 8/6=4,10=90,11=11/1;
 11/6=1,8=1,9=11,15=111,16=1/1,2,10;
 10/6=1,13=1/2;
 6/7=2,8=2,9=2,10=2,28=1/1;
 7/10=1,18=20,25=1/1,2,3,16;
 1/5=1,10=4,11=1,18=20,26=3/3(2);
 2/9=110/2;
 99//99;
 2/9=110/2;
 3/5=4,6=6,7=111,11=2,25=1,30=1,71=1,74=-5,75=-4/1,2,3;
 4/5=5,16=3,69=1/1;
 5/5=2,38=5/2;
 7//1,2,3,16;
 1/5=1,11=1,18=20,26=3/3(-5);
 2/9=110/2;
 6/7=2,8=2,9=2,10=2,19=2,28=1/1;
 99/9=1/99;
 -----------------
 7-path-TSguess-3b
 -----------------
 Symbolic Z-matrix:
 Charge =  0 Multiplicity = 2
 C                     0.78798   3.06555  -0.08085 
 C                     2.20587   3.01561   0.00894 
 C                     2.87292   1.80272   0.23792 
 C                     2.02809   0.70734   0.43785 
 C                     0.62949   0.6949    0.3654 
 C                    -0.04617   1.88094   0.10419 
 C                     0.21956  -0.70869   0.24688 
 C                     2.50626  -0.61159   0.37828 
 C                     1.40314  -1.46723   0.25592 
 C                     4.28161   1.45807   0.12298 
 C                     3.812    -0.97367   0.15006 
 C                     4.7276    0.15132   0.08087 
 C                     1.54551  -2.81283  -0.07371 
 C                     3.99237  -2.3864   -0.10626 
 C                     2.91832  -3.25598  -0.20537 
 C                    -0.98858  -1.33686  -0.0234 
 C                    -0.90292  -2.77206  -0.27223 
 C                     0.32269  -3.47091  -0.31956 
 C                    -2.26354  -0.64098   0.01853 
 C                    -2.13071  -3.48808  -0.46664 
 C                    -3.43219  -1.45736  -0.04598 
 C                    -3.32445  -2.86431  -0.33946 
 C                    -1.47068   1.92461  -0.08132 
 C                     0.13845   4.26897  -0.47382 
 C                    -1.20437   4.27471  -0.74068 
 C                    -1.99512   3.11338  -0.56175 
 C                    -2.42679   0.79212   0.25647 
 C                    -3.73598   1.23265   0.56583 
 C                    -4.70981  -0.92358   0.20402 
 C                    -4.85      0.40298   0.5584 
 H                     5.78901  -0.03003  -0.05515 
 H                     4.99182  -2.77889  -0.26466 
 H                     3.11571  -4.29861  -0.43266 
 H                     0.29657  -4.52826  -0.56422 
 H                     5.00858   2.25691   0.01681 
 H                     2.75931   3.92759  -0.19235 
 H                     0.73074   5.16814  -0.60534 
 H                    -1.68316   5.17981  -1.0972 
 H                    -3.04445   3.17819  -0.81558 
 H                    -3.87107   2.26908   0.84115 
 H                    -5.82231   0.80721   0.81578 
 H                    -5.57224  -1.57876   0.15116 
 H                    -4.24741  -3.42507  -0.4407 
 H                    -2.08494  -4.55019  -0.68222 
 H                    -1.82943   0.71079   2.1161 
 
 Add virtual bond connecting atoms H45        and C27        Dist= 3.69D+00.

 GradGradGradGradGradGradGradGradGradGradGradGradGradGradGradGradGradGrad
 Berny optimization.
 Initialization pass.
                           ----------------------------
                           !    Initial Parameters    !
                           ! (Angstroms and Degrees)  !
 --------------------------                            --------------------------
 ! Name  Definition              Value          Derivative Info.                !
 --------------------------------------------------------------------------------
 ! R1    R(1,2)                  1.4216         calculate D2E/DX2 analytically  !
 ! R2    R(1,6)                  1.4606         calculate D2E/DX2 analytically  !
 ! R3    R(1,24)                 1.4229         calculate D2E/DX2 analytically  !
 ! R4    R(2,3)                  1.403          calculate D2E/DX2 analytically  !
 ! R5    R(2,36)                 1.0856         calculate D2E/DX2 analytically  !
 ! R6    R(3,4)                  1.3977         calculate D2E/DX2 analytically  !
 ! R7    R(3,10)                 1.4548         calculate D2E/DX2 analytically  !
 ! R8    R(4,5)                  1.4005         calculate D2E/DX2 analytically  !
 ! R9    R(4,8)                  1.4042         calculate D2E/DX2 analytically  !
 ! R10   R(5,6)                  1.3898         calculate D2E/DX2 analytically  !
 ! R11   R(5,7)                  1.467          calculate D2E/DX2 analytically  !
 ! R12   R(6,23)                 1.4372         calculate D2E/DX2 analytically  !
 ! R13   R(7,9)                  1.4058         calculate D2E/DX2 analytically  !
 ! R14   R(7,16)                 1.3883         calculate D2E/DX2 analytically  !
 ! R15   R(8,9)                  1.4014         calculate D2E/DX2 analytically  !
 ! R16   R(8,11)                 1.3741         calculate D2E/DX2 analytically  !
 ! R17   R(9,13)                 1.3927         calculate D2E/DX2 analytically  !
 ! R18   R(10,12)                1.3814         calculate D2E/DX2 analytically  !
 ! R19   R(10,35)                1.0853         calculate D2E/DX2 analytically  !
 ! R20   R(11,12)                1.4521         calculate D2E/DX2 analytically  !
 ! R21   R(11,14)                1.4471         calculate D2E/DX2 analytically  !
 ! R22   R(12,31)                1.0853         calculate D2E/DX2 analytically  !
 ! R23   R(13,15)                1.4486         calculate D2E/DX2 analytically  !
 ! R24   R(13,18)                1.4102         calculate D2E/DX2 analytically  !
 ! R25   R(14,15)                1.3855         calculate D2E/DX2 analytically  !
 ! R26   R(14,32)                1.0854         calculate D2E/DX2 analytically  !
 ! R27   R(15,33)                1.0852         calculate D2E/DX2 analytically  !
 ! R28   R(16,17)                1.4591         calculate D2E/DX2 analytically  !
 ! R29   R(16,19)                1.4531         calculate D2E/DX2 analytically  !
 ! R30   R(17,18)                1.4116         calculate D2E/DX2 analytically  !
 ! R31   R(17,20)                1.4346         calculate D2E/DX2 analytically  !
 ! R32   R(18,34)                1.0856         calculate D2E/DX2 analytically  !
 ! R33   R(19,21)                1.427          calculate D2E/DX2 analytically  !
 ! R34   R(19,27)                1.4619         calculate D2E/DX2 analytically  !
 ! R35   R(20,22)                1.3529         calculate D2E/DX2 analytically  !
 ! R36   R(20,44)                1.0847         calculate D2E/DX2 analytically  !
 ! R37   R(21,22)                1.4413         calculate D2E/DX2 analytically  !
 ! R38   R(21,29)                1.407          calculate D2E/DX2 analytically  !
 ! R39   R(22,43)                1.0847         calculate D2E/DX2 analytically  !
 ! R40   R(23,26)                1.3853         calculate D2E/DX2 analytically  !
 ! R41   R(23,27)                1.5201         calculate D2E/DX2 analytically  !
 ! R42   R(24,25)                1.3691         calculate D2E/DX2 analytically  !
 ! R43   R(24,37)                1.0847         calculate D2E/DX2 analytically  !
 ! R44   R(25,26)                1.4163         calculate D2E/DX2 analytically  !
 ! R45   R(25,38)                1.0842         calculate D2E/DX2 analytically  !
 ! R46   R(26,39)                1.0815         calculate D2E/DX2 analytically  !
 ! R47   R(27,28)                1.4155         calculate D2E/DX2 analytically  !
 ! R48   R(27,45)                1.9549         calculate D2E/DX2 analytically  !
 ! R49   R(28,30)                1.389          calculate D2E/DX2 analytically  !
 ! R50   R(28,40)                1.0809         calculate D2E/DX2 analytically  !
 ! R51   R(29,30)                1.3802         calculate D2E/DX2 analytically  !
 ! R52   R(29,42)                1.0844         calculate D2E/DX2 analytically  !
 ! R53   R(30,41)                1.084          calculate D2E/DX2 analytically  !
 ! A1    A(2,1,6)              122.216          calculate D2E/DX2 analytically  !
 ! A2    A(2,1,24)             120.1629         calculate D2E/DX2 analytically  !
 ! A3    A(6,1,24)             117.4029         calculate D2E/DX2 analytically  !
 ! A4    A(1,2,3)              120.9891         calculate D2E/DX2 analytically  !
 ! A5    A(1,2,36)             117.8559         calculate D2E/DX2 analytically  !
 ! A6    A(3,2,36)             120.9374         calculate D2E/DX2 analytically  !
 ! A7    A(2,3,4)              114.4223         calculate D2E/DX2 analytically  !
 ! A8    A(2,3,10)             130.714          calculate D2E/DX2 analytically  !
 ! A9    A(4,3,10)             114.2631         calculate D2E/DX2 analytically  !
 ! A10   A(3,4,5)              127.0976         calculate D2E/DX2 analytically  !
 ! A11   A(3,4,8)              121.615          calculate D2E/DX2 analytically  !
 ! A12   A(5,4,8)              109.2399         calculate D2E/DX2 analytically  !
 ! A13   A(4,5,6)              119.1855         calculate D2E/DX2 analytically  !
 ! A14   A(4,5,7)              106.9614         calculate D2E/DX2 analytically  !
 ! A15   A(6,5,7)              131.7187         calculate D2E/DX2 analytically  !
 ! A16   A(1,6,5)              115.9967         calculate D2E/DX2 analytically  !
 ! A17   A(1,6,23)             121.672          calculate D2E/DX2 analytically  !
 ! A18   A(5,6,23)             122.1455         calculate D2E/DX2 analytically  !
 ! A19   A(5,7,9)              106.2877         calculate D2E/DX2 analytically  !
 ! A20   A(5,7,16)             133.7753         calculate D2E/DX2 analytically  !
 ! A21   A(9,7,16)             119.3264         calculate D2E/DX2 analytically  !
 ! A22   A(4,8,9)              108.0069         calculate D2E/DX2 analytically  !
 ! A23   A(4,8,11)             125.3202         calculate D2E/DX2 analytically  !
 ! A24   A(9,8,11)             124.9319         calculate D2E/DX2 analytically  !
 ! A25   A(7,9,8)              109.5019         calculate D2E/DX2 analytically  !
 ! A26   A(7,9,13)             127.2916         calculate D2E/DX2 analytically  !
 ! A27   A(8,9,13)             122.013          calculate D2E/DX2 analytically  !
 ! A28   A(3,10,12)            122.6249         calculate D2E/DX2 analytically  !
 ! A29   A(3,10,35)            118.8129         calculate D2E/DX2 analytically  !
 ! A30   A(12,10,35)           118.492          calculate D2E/DX2 analytically  !
 ! A31   A(8,11,12)            113.761          calculate D2E/DX2 analytically  !
 ! A32   A(8,11,14)            113.8985         calculate D2E/DX2 analytically  !
 ! A33   A(12,11,14)           132.0121         calculate D2E/DX2 analytically  !
 ! A34   A(10,12,11)           121.8588         calculate D2E/DX2 analytically  !
 ! A35   A(10,12,31)           118.5295         calculate D2E/DX2 analytically  !
 ! A36   A(11,12,31)           119.547          calculate D2E/DX2 analytically  !
 ! A37   A(9,13,15)            114.4545         calculate D2E/DX2 analytically  !
 ! A38   A(9,13,18)            113.7964         calculate D2E/DX2 analytically  !
 ! A39   A(15,13,18)           131.5409         calculate D2E/DX2 analytically  !
 ! A40   A(11,14,15)           121.9233         calculate D2E/DX2 analytically  !
 ! A41   A(11,14,32)           119.5817         calculate D2E/DX2 analytically  !
 ! A42   A(15,14,32)           118.4527         calculate D2E/DX2 analytically  !
 ! A43   A(13,15,14)           122.4229         calculate D2E/DX2 analytically  !
 ! A44   A(13,15,33)           119.034          calculate D2E/DX2 analytically  !
 ! A45   A(14,15,33)           118.489          calculate D2E/DX2 analytically  !
 ! A46   A(7,16,17)            115.2885         calculate D2E/DX2 analytically  !
 ! A47   A(7,16,19)            122.7689         calculate D2E/DX2 analytically  !
 ! A48   A(17,16,19)           121.8349         calculate D2E/DX2 analytically  !
 ! A49   A(16,17,18)           122.9315         calculate D2E/DX2 analytically  !
 ! A50   A(16,17,20)           117.6324         calculate D2E/DX2 analytically  !
 ! A51   A(18,17,20)           119.4349         calculate D2E/DX2 analytically  !
 ! A52   A(13,18,17)           121.0617         calculate D2E/DX2 analytically  !
 ! A53   A(13,18,34)           120.9735         calculate D2E/DX2 analytically  !
 ! A54   A(17,18,34)           117.9599         calculate D2E/DX2 analytically  !
 ! A55   A(16,19,21)           116.3127         calculate D2E/DX2 analytically  !
 ! A56   A(16,19,27)           124.9005         calculate D2E/DX2 analytically  !
 ! A57   A(21,19,27)           118.4721         calculate D2E/DX2 analytically  !
 ! A58   A(17,20,22)           120.8189         calculate D2E/DX2 analytically  !
 ! A59   A(17,20,44)           118.6549         calculate D2E/DX2 analytically  !
 ! A60   A(22,20,44)           120.4884         calculate D2E/DX2 analytically  !
 ! A61   A(19,21,22)           120.4277         calculate D2E/DX2 analytically  !
 ! A62   A(19,21,29)           121.2358         calculate D2E/DX2 analytically  !
 ! A63   A(22,21,29)           118.3199         calculate D2E/DX2 analytically  !
 ! A64   A(20,22,21)           122.3572         calculate D2E/DX2 analytically  !
 ! A65   A(20,22,43)           120.2432         calculate D2E/DX2 analytically  !
 ! A66   A(21,22,43)           117.3911         calculate D2E/DX2 analytically  !
 ! A67   A(6,23,26)            116.4924         calculate D2E/DX2 analytically  !
 ! A68   A(6,23,27)            124.896          calculate D2E/DX2 analytically  !
 ! A69   A(26,23,27)           118.5722         calculate D2E/DX2 analytically  !
 ! A70   A(1,24,25)            120.3392         calculate D2E/DX2 analytically  !
 ! A71   A(1,24,37)            119.0338         calculate D2E/DX2 analytically  !
 ! A72   A(25,24,37)           120.56           calculate D2E/DX2 analytically  !
 ! A73   A(24,25,26)           121.3011         calculate D2E/DX2 analytically  !
 ! A74   A(24,25,38)           120.0477         calculate D2E/DX2 analytically  !
 ! A75   A(26,25,38)           118.6512         calculate D2E/DX2 analytically  !
 ! A76   A(23,26,25)           122.4175         calculate D2E/DX2 analytically  !
 ! A77   A(23,26,39)           120.0079         calculate D2E/DX2 analytically  !
 ! A78   A(25,26,39)           117.5746         calculate D2E/DX2 analytically  !
 ! A79   A(19,27,23)           128.6037         calculate D2E/DX2 analytically  !
 ! A80   A(19,27,28)           116.356          calculate D2E/DX2 analytically  !
 ! A81   A(19,27,45)            94.584          calculate D2E/DX2 analytically  !
 ! A82   A(23,27,28)           113.4798         calculate D2E/DX2 analytically  !
 ! A83   A(23,27,45)            92.8765         calculate D2E/DX2 analytically  !
 ! A84   A(28,27,45)            95.0291         calculate D2E/DX2 analytically  !
 ! A85   A(27,28,30)           123.6899         calculate D2E/DX2 analytically  !
 ! A86   A(27,28,40)           118.0137         calculate D2E/DX2 analytically  !
 ! A87   A(30,28,40)           118.2859         calculate D2E/DX2 analytically  !
 ! A88   A(21,29,30)           120.1634         calculate D2E/DX2 analytically  !
 ! A89   A(21,29,42)           118.9676         calculate D2E/DX2 analytically  !
 ! A90   A(30,29,42)           120.8267         calculate D2E/DX2 analytically  !
 ! A91   A(28,30,29)           119.6028         calculate D2E/DX2 analytically  !
 ! A92   A(28,30,41)           119.6943         calculate D2E/DX2 analytically  !
 ! A93   A(29,30,41)           120.696          calculate D2E/DX2 analytically  !
 ! D1    D(6,1,2,3)              2.1615         calculate D2E/DX2 analytically  !
 ! D2    D(6,1,2,36)           176.8503         calculate D2E/DX2 analytically  !
 ! D3    D(24,1,2,3)          -172.3297         calculate D2E/DX2 analytically  !
 ! D4    D(24,1,2,36)            2.3591         calculate D2E/DX2 analytically  !
 ! D5    D(2,1,6,5)             -0.4177         calculate D2E/DX2 analytically  !
 ! D6    D(2,1,6,23)          -175.563          calculate D2E/DX2 analytically  !
 ! D7    D(24,1,6,5)           174.2178         calculate D2E/DX2 analytically  !
 ! D8    D(24,1,6,23)           -0.9275         calculate D2E/DX2 analytically  !
 ! D9    D(2,1,24,25)          170.9491         calculate D2E/DX2 analytically  !
 ! D10   D(2,1,24,37)           -6.0931         calculate D2E/DX2 analytically  !
 ! D11   D(6,1,24,25)           -3.8019         calculate D2E/DX2 analytically  !
 ! D12   D(6,1,24,37)          179.1559         calculate D2E/DX2 analytically  !
 ! D13   D(1,2,3,4)             -3.411          calculate D2E/DX2 analytically  !
 ! D14   D(1,2,3,10)           167.0541         calculate D2E/DX2 analytically  !
 ! D15   D(36,2,3,4)          -177.9359         calculate D2E/DX2 analytically  !
 ! D16   D(36,2,3,10)           -7.4709         calculate D2E/DX2 analytically  !
 ! D17   D(2,3,4,5)              3.4371         calculate D2E/DX2 analytically  !
 ! D18   D(2,3,4,8)            165.361          calculate D2E/DX2 analytically  !
 ! D19   D(10,3,4,5)          -168.6467         calculate D2E/DX2 analytically  !
 ! D20   D(10,3,4,8)            -6.7229         calculate D2E/DX2 analytically  !
 ! D21   D(2,3,10,12)         -164.3152         calculate D2E/DX2 analytically  !
 ! D22   D(2,3,10,35)           12.5889         calculate D2E/DX2 analytically  !
 ! D23   D(4,3,10,12)            6.1619         calculate D2E/DX2 analytically  !
 ! D24   D(4,3,10,35)         -176.934          calculate D2E/DX2 analytically  !
 ! D25   D(3,4,5,6)             -1.8786         calculate D2E/DX2 analytically  !
 ! D26   D(3,4,5,7)            163.4205         calculate D2E/DX2 analytically  !
 ! D27   D(8,4,5,6)           -165.6266         calculate D2E/DX2 analytically  !
 ! D28   D(8,4,5,7)             -0.3275         calculate D2E/DX2 analytically  !
 ! D29   D(3,4,8,9)           -164.3198         calculate D2E/DX2 analytically  !
 ! D30   D(3,4,8,11)             1.2017         calculate D2E/DX2 analytically  !
 ! D31   D(5,4,8,9)              0.4841         calculate D2E/DX2 analytically  !
 ! D32   D(5,4,8,11)           166.0056         calculate D2E/DX2 analytically  !
 ! D33   D(4,5,6,1)              0.2079         calculate D2E/DX2 analytically  !
 ! D34   D(4,5,6,23)           175.3281         calculate D2E/DX2 analytically  !
 ! D35   D(7,5,6,1)           -160.8146         calculate D2E/DX2 analytically  !
 ! D36   D(7,5,6,23)            14.3057         calculate D2E/DX2 analytically  !
 ! D37   D(4,5,7,9)              0.0494         calculate D2E/DX2 analytically  !
 ! D38   D(4,5,7,16)          -170.573          calculate D2E/DX2 analytically  !
 ! D39   D(6,5,7,9)            162.7825         calculate D2E/DX2 analytically  !
 ! D40   D(6,5,7,16)            -7.8399         calculate D2E/DX2 analytically  !
 ! D41   D(1,6,23,26)            5.6981         calculate D2E/DX2 analytically  !
 ! D42   D(1,6,23,27)         -171.9754         calculate D2E/DX2 analytically  !
 ! D43   D(5,6,23,26)         -169.1477         calculate D2E/DX2 analytically  !
 ! D44   D(5,6,23,27)           13.1789         calculate D2E/DX2 analytically  !
 ! D45   D(5,7,9,8)              0.2475         calculate D2E/DX2 analytically  !
 ! D46   D(5,7,9,13)          -167.3338         calculate D2E/DX2 analytically  !
 ! D47   D(16,7,9,8)           172.4919         calculate D2E/DX2 analytically  !
 ! D48   D(16,7,9,13)            4.9107         calculate D2E/DX2 analytically  !
 ! D49   D(5,7,16,17)          169.9817         calculate D2E/DX2 analytically  !
 ! D50   D(5,7,16,19)          -13.732          calculate D2E/DX2 analytically  !
 ! D51   D(9,7,16,17)            0.316          calculate D2E/DX2 analytically  !
 ! D52   D(9,7,16,19)          176.6023         calculate D2E/DX2 analytically  !
 ! D53   D(4,8,9,7)             -0.4529         calculate D2E/DX2 analytically  !
 ! D54   D(4,8,9,13)           167.9064         calculate D2E/DX2 analytically  !
 ! D55   D(11,8,9,7)          -166.0447         calculate D2E/DX2 analytically  !
 ! D56   D(11,8,9,13)            2.3146         calculate D2E/DX2 analytically  !
 ! D57   D(4,8,11,12)            5.0427         calculate D2E/DX2 analytically  !
 ! D58   D(4,8,11,14)         -169.1825         calculate D2E/DX2 analytically  !
 ! D59   D(9,8,11,12)          168.1833         calculate D2E/DX2 analytically  !
 ! D60   D(9,8,11,14)           -6.0419         calculate D2E/DX2 analytically  !
 ! D61   D(7,9,13,15)          169.2826         calculate D2E/DX2 analytically  !
 ! D62   D(7,9,13,18)           -6.0899         calculate D2E/DX2 analytically  !
 ! D63   D(8,9,13,15)            3.1145         calculate D2E/DX2 analytically  !
 ! D64   D(8,9,13,18)         -172.258          calculate D2E/DX2 analytically  !
 ! D65   D(3,10,12,11)          -0.0432         calculate D2E/DX2 analytically  !
 ! D66   D(3,10,12,31)         177.0171         calculate D2E/DX2 analytically  !
 ! D67   D(35,10,12,11)       -176.9568         calculate D2E/DX2 analytically  !
 ! D68   D(35,10,12,31)          0.1035         calculate D2E/DX2 analytically  !
 ! D69   D(8,11,12,10)          -5.4858         calculate D2E/DX2 analytically  !
 ! D70   D(8,11,12,31)         177.4831         calculate D2E/DX2 analytically  !
 ! D71   D(14,11,12,10)        167.4022         calculate D2E/DX2 analytically  !
 ! D72   D(14,11,12,31)         -9.629          calculate D2E/DX2 analytically  !
 ! D73   D(8,11,14,15)           4.4997         calculate D2E/DX2 analytically  !
 ! D74   D(8,11,14,32)        -177.9018         calculate D2E/DX2 analytically  !
 ! D75   D(12,11,14,15)       -168.3807         calculate D2E/DX2 analytically  !
 ! D76   D(12,11,14,32)          9.2179         calculate D2E/DX2 analytically  !
 ! D77   D(9,13,15,14)          -4.4593         calculate D2E/DX2 analytically  !
 ! D78   D(9,13,15,33)         178.2606         calculate D2E/DX2 analytically  !
 ! D79   D(18,13,15,14)        169.8807         calculate D2E/DX2 analytically  !
 ! D80   D(18,13,15,33)         -7.3994         calculate D2E/DX2 analytically  !
 ! D81   D(9,13,18,17)           2.2223         calculate D2E/DX2 analytically  !
 ! D82   D(9,13,18,34)        -178.6063         calculate D2E/DX2 analytically  !
 ! D83   D(15,13,18,17)       -172.1469         calculate D2E/DX2 analytically  !
 ! D84   D(15,13,18,34)          7.0246         calculate D2E/DX2 analytically  !
 ! D85   D(11,14,15,13)          0.6407         calculate D2E/DX2 analytically  !
 ! D86   D(11,14,15,33)        177.9349         calculate D2E/DX2 analytically  !
 ! D87   D(32,14,15,13)       -176.984          calculate D2E/DX2 analytically  !
 ! D88   D(32,14,15,33)          0.3102         calculate D2E/DX2 analytically  !
 ! D89   D(7,16,17,18)          -3.7574         calculate D2E/DX2 analytically  !
 ! D90   D(7,16,17,20)         175.8453         calculate D2E/DX2 analytically  !
 ! D91   D(19,16,17,18)        179.9182         calculate D2E/DX2 analytically  !
 ! D92   D(19,16,17,20)         -0.4791         calculate D2E/DX2 analytically  !
 ! D93   D(7,16,19,21)        -169.2208         calculate D2E/DX2 analytically  !
 ! D94   D(7,16,19,27)           4.2139         calculate D2E/DX2 analytically  !
 ! D95   D(17,16,19,21)          6.8265         calculate D2E/DX2 analytically  !
 ! D96   D(17,16,19,27)       -179.7388         calculate D2E/DX2 analytically  !
 ! D97   D(16,17,18,13)          2.4733         calculate D2E/DX2 analytically  !
 ! D98   D(16,17,18,34)       -176.7225         calculate D2E/DX2 analytically  !
 ! D99   D(20,17,18,13)       -177.1226         calculate D2E/DX2 analytically  !
 ! D100  D(20,17,18,34)          3.6816         calculate D2E/DX2 analytically  !
 ! D101  D(16,17,20,22)         -4.0277         calculate D2E/DX2 analytically  !
 ! D102  D(16,17,20,44)        178.1967         calculate D2E/DX2 analytically  !
 ! D103  D(18,17,20,22)        175.5894         calculate D2E/DX2 analytically  !
 ! D104  D(18,17,20,44)         -2.1861         calculate D2E/DX2 analytically  !
 ! D105  D(16,19,21,22)         -8.9814         calculate D2E/DX2 analytically  !
 ! D106  D(16,19,21,29)        169.5115         calculate D2E/DX2 analytically  !
 ! D107  D(27,19,21,22)        177.1423         calculate D2E/DX2 analytically  !
 ! D108  D(27,19,21,29)         -4.3649         calculate D2E/DX2 analytically  !
 ! D109  D(16,19,27,23)         29.3835         calculate D2E/DX2 analytically  !
 ! D110  D(16,19,27,28)       -165.9202         calculate D2E/DX2 analytically  !
 ! D111  D(16,19,27,45)        -67.9957         calculate D2E/DX2 analytically  !
 ! D112  D(21,19,27,23)       -157.3119         calculate D2E/DX2 analytically  !
 ! D113  D(21,19,27,28)          7.3843         calculate D2E/DX2 analytically  !
 ! D114  D(21,19,27,45)        105.3089         calculate D2E/DX2 analytically  !
 ! D115  D(17,20,22,21)          1.9016         calculate D2E/DX2 analytically  !
 ! D116  D(17,20,22,43)       -177.0086         calculate D2E/DX2 analytically  !
 ! D117  D(44,20,22,21)        179.6363         calculate D2E/DX2 analytically  !
 ! D118  D(44,20,22,43)          0.7261         calculate D2E/DX2 analytically  !
 ! D119  D(19,21,22,20)          4.9717         calculate D2E/DX2 analytically  !
 ! D120  D(19,21,22,43)       -176.0887         calculate D2E/DX2 analytically  !
 ! D121  D(29,21,22,20)       -173.5644         calculate D2E/DX2 analytically  !
 ! D122  D(29,21,22,43)          5.3752         calculate D2E/DX2 analytically  !
 ! D123  D(19,21,29,30)         -1.9584         calculate D2E/DX2 analytically  !
 ! D124  D(19,21,29,42)       -179.6131         calculate D2E/DX2 analytically  !
 ! D125  D(22,21,29,30)        176.5653         calculate D2E/DX2 analytically  !
 ! D126  D(22,21,29,42)         -1.0894         calculate D2E/DX2 analytically  !
 ! D127  D(6,23,26,25)          -6.0657         calculate D2E/DX2 analytically  !
 ! D128  D(6,23,26,39)         173.9262         calculate D2E/DX2 analytically  !
 ! D129  D(27,23,26,25)        171.7615         calculate D2E/DX2 analytically  !
 ! D130  D(27,23,26,39)         -8.2465         calculate D2E/DX2 analytically  !
 ! D131  D(6,23,27,19)         -41.9879         calculate D2E/DX2 analytically  !
 ! D132  D(6,23,27,28)         152.9547         calculate D2E/DX2 analytically  !
 ! D133  D(6,23,27,45)          56.2055         calculate D2E/DX2 analytically  !
 ! D134  D(26,23,27,19)        140.3831         calculate D2E/DX2 analytically  !
 ! D135  D(26,23,27,28)        -24.6743         calculate D2E/DX2 analytically  !
 ! D136  D(26,23,27,45)       -121.4235         calculate D2E/DX2 analytically  !
 ! D137  D(1,24,25,26)           3.6383         calculate D2E/DX2 analytically  !
 ! D138  D(1,24,25,38)        -176.3153         calculate D2E/DX2 analytically  !
 ! D139  D(37,24,25,26)       -179.3651         calculate D2E/DX2 analytically  !
 ! D140  D(37,24,25,38)          0.6814         calculate D2E/DX2 analytically  !
 ! D141  D(24,25,26,23)          1.5655         calculate D2E/DX2 analytically  !
 ! D142  D(24,25,26,39)       -178.4266         calculate D2E/DX2 analytically  !
 ! D143  D(38,25,26,23)       -178.4804         calculate D2E/DX2 analytically  !
 ! D144  D(38,25,26,39)          1.5275         calculate D2E/DX2 analytically  !
 ! D145  D(19,27,28,30)         -4.657          calculate D2E/DX2 analytically  !
 ! D146  D(19,27,28,40)        174.1446         calculate D2E/DX2 analytically  !
 ! D147  D(23,27,28,30)        162.3472         calculate D2E/DX2 analytically  !
 ! D148  D(23,27,28,40)        -18.8512         calculate D2E/DX2 analytically  !
 ! D149  D(45,27,28,30)       -102.3078         calculate D2E/DX2 analytically  !
 ! D150  D(45,27,28,40)         76.4938         calculate D2E/DX2 analytically  !
 ! D151  D(27,28,30,29)         -1.5539         calculate D2E/DX2 analytically  !
 ! D152  D(27,28,30,41)        179.3956         calculate D2E/DX2 analytically  !
 ! D153  D(40,28,30,29)        179.6476         calculate D2E/DX2 analytically  !
 ! D154  D(40,28,30,41)          0.5971         calculate D2E/DX2 analytically  !
 ! D155  D(21,29,30,28)          4.9739         calculate D2E/DX2 analytically  !
 ! D156  D(21,29,30,41)       -175.9853         calculate D2E/DX2 analytically  !
 ! D157  D(42,29,30,28)       -177.4156         calculate D2E/DX2 analytically  !
 ! D158  D(42,29,30,41)          1.6252         calculate D2E/DX2 analytically  !
 --------------------------------------------------------------------------------
 Trust Radius=3.00D-01 FncErr=1.00D-07 GrdErr=1.00D-06 EigMax=2.50D+02 EigMin=1.00D-04
 Number of steps in this run=    270 maximum allowed number of steps=    270.
 Search for a saddle point of order  1.
 GradGradGradGradGradGradGradGradGradGradGradGradGradGradGradGradGradGrad

                          Input orientation:                          
 ---------------------------------------------------------------------
 Center     Atomic      Atomic             Coordinates (Angstroms)
 Number     Number       Type             X           Y           Z
 ---------------------------------------------------------------------
      1          6           0        0.787983    3.065551   -0.080853
      2          6           0        2.205866    3.015610    0.008935
      3          6           0        2.872924    1.802723    0.237923
      4          6           0        2.028088    0.707340    0.437853
      5          6           0        0.629489    0.694898    0.365403
      6          6           0       -0.046166    1.880935    0.104188
      7          6           0        0.219555   -0.708685    0.246883
      8          6           0        2.506263   -0.611588    0.378278
      9          6           0        1.403140   -1.467226    0.255919
     10          6           0        4.281613    1.458070    0.122981
     11          6           0        3.811996   -0.973673    0.150062
     12          6           0        4.727601    0.151318    0.080867
     13          6           0        1.545506   -2.812833   -0.073714
     14          6           0        3.992369   -2.386395   -0.106256
     15          6           0        2.918323   -3.255981   -0.205371
     16          6           0       -0.988583   -1.336855   -0.023402
     17          6           0       -0.902915   -2.772060   -0.272228
     18          6           0        0.322686   -3.470911   -0.319558
     19          6           0       -2.263535   -0.640975    0.018530
     20          6           0       -2.130707   -3.488077   -0.466636
     21          6           0       -3.432194   -1.457361   -0.045982
     22          6           0       -3.324450   -2.864306   -0.339461
     23          6           0       -1.470684    1.924613   -0.081321
     24          6           0        0.138450    4.268968   -0.473821
     25          6           0       -1.204366    4.274711   -0.740678
     26          6           0       -1.995122    3.113380   -0.561752
     27          6           0       -2.426793    0.792119    0.256469
     28          6           0       -3.735978    1.232647    0.565833
     29          6           0       -4.709811   -0.923584    0.204015
     30          6           0       -4.850003    0.402977    0.558403
     31          1           0        5.789012   -0.030033   -0.055146
     32          1           0        4.991819   -2.778888   -0.264658
     33          1           0        3.115710   -4.298611   -0.432657
     34          1           0        0.296574   -4.528264   -0.564219
     35          1           0        5.008579    2.256912    0.016808
     36          1           0        2.759309    3.927592   -0.192347
     37          1           0        0.730738    5.168145   -0.605335
     38          1           0       -1.683161    5.179807   -1.097205
     39          1           0       -3.044449    3.178190   -0.815575
     40          1           0       -3.871067    2.269080    0.841148
     41          1           0       -5.822313    0.807206    0.815783
     42          1           0       -5.572242   -1.578755    0.151161
     43          1           0       -4.247412   -3.425067   -0.440702
     44          1           0       -2.084939   -4.550193   -0.682216
     45          1           0       -1.829433    0.710786    2.116095
 ---------------------------------------------------------------------
                    Distance matrix (angstroms):
                    1          2          3          4          5
     1  C    0.000000
     2  C    1.421601   0.000000
     3  C    2.458319   1.403031   0.000000
     4  C    2.714420   2.354503   1.397707   0.000000
     5  C    2.417491   2.828027   2.505300   1.400530   0.000000
     6  C    1.460603   2.523531   2.923198   2.406489   1.389758
     7  C    3.830846   4.227579   3.653439   2.304862   1.467017
     8  C    4.084683   3.658308   2.446025   1.404198   2.286778
     9  C    4.586709   4.560832   3.585130   2.269889   2.298979
    10  C    3.851103   2.597626   1.454786   2.396062   3.738878
    11  C    5.051070   4.302784   2.932226   2.467986   3.599841
    12  C    4.903009   3.816869   2.488299   2.779203   4.143786
    13  C    5.926997   5.866315   4.812745   3.589736   3.651861
    14  C    6.323958   5.690916   4.349750   3.704815   4.585389
    15  C    6.672003   6.315566   5.078293   4.112684   4.601520
    16  C    4.747701   5.399028   4.983621   3.673118   2.626280
    17  C    6.080581   6.575766   5.953642   4.604478   3.843778
    18  C    6.557348   6.762339   5.884362   4.576008   4.232879
    19  C    4.802080   5.774621   5.692364   4.517943   3.205381
    20  C    7.184540   7.831346   7.316098   5.976220   5.080182
    21  C    6.186101   7.197097   7.103750   5.893616   4.615054
    22  C    7.220955   8.079554   7.779587   6.481553   5.366414
    23  C    2.530477   3.836071   4.357029   3.740682   2.474366
    24  C    1.422860   2.465394   3.750506   4.133652   3.703970
    25  C    2.422167   3.711730   4.867513   4.956191   4.171511
    26  C    2.824752   4.240701   5.104427   4.793168   3.687446
    27  C    3.951843   5.144581   5.395245   4.459378   3.059768
    28  C    4.923816   6.228531   6.641543   5.789368   4.403027
    29  C    6.798536   7.961275   8.058025   6.936417   5.581546
    30  C    6.267762   7.544074   7.855291   6.885877   5.490656
    31  H    5.881632   4.703082   3.456653   3.864106   5.227147
    32  H    7.201631   6.435262   5.072816   4.629364   5.611959
    33  H    7.731297   7.383810   6.142874   5.196177   5.635009
    34  H    7.625035   7.802816   6.882035   5.604805   5.315680
    35  H    4.298472   2.903599   2.194585   3.385525   4.662385
    36  H    2.154454   1.085599   2.170970   3.361824   3.911206
    37  H    2.167778   2.680809   4.077513   4.761317   4.578485
    38  H    3.407287   4.586047   5.826249   6.011051   5.253759
    39  H    3.903849   5.317147   6.165798   5.779863   4.589038
    40  H    4.815724   6.178916   6.786957   6.115694   4.791595
    41  H    7.042733   8.365388   8.771096   7.860127   6.468478
    42  H    7.878824   9.034787   9.097403   7.941879   6.608847
    43  H    8.222701   9.128488   8.859430   7.565087   6.434911
    44  H    8.161794   8.725255   8.110894   6.768545   5.998050
    45  H    4.149984   5.102546   5.179963   4.206777   3.018522
                    6          7          8          9         10
     6  C    0.000000
     7  C    2.607125   0.000000
     8  C    3.578085   2.292537   0.000000
     9  C    3.651533   1.405823   1.401417   0.000000
    10  C    4.348429   4.605485   2.738709   4.106170   0.000000
    11  C    4.799615   3.603502   1.374091   2.461176   2.476822
    12  C    5.077496   4.592346   2.367450   3.701671   1.381405
    13  C    4.959489   2.507662   2.443937   1.392690   5.075981
    14  C    5.879129   4.144097   2.365000   2.771308   3.862140
    15  C    5.939017   3.738529   2.739207   2.389187   4.918196
    16  C    3.355384   1.388254   3.591839   2.411505   5.967244
    17  C    4.746164   2.405604   4.088189   2.701744   6.702949
    18  C    5.381252   2.821592   3.664794   2.348043   6.337491
    19  C    3.359180   2.494487   4.783435   3.766105   6.874290
    20  C    5.787697   3.709159   5.521735   4.134489   8.119721
    21  C    4.757306   3.739192   6.013368   4.844760   8.248097
    22  C    5.784573   4.189328   6.291828   4.965523   8.760650
    23  C    1.437210   3.146249   4.739162   4.458382   5.774801
    24  C    2.463915   5.030211   5.491124   5.919112   5.042134
    25  C    2.790231   5.276084   6.236726   6.384523   6.226985
    26  C    2.400172   4.490753   5.917897   5.761833   6.527351
    27  C    2.622231   3.042312   5.130329   4.446687   6.742701
    28  C    3.774666   4.417775   6.511678   5.813424   8.032976
    29  C    5.442874   4.934234   7.224918   6.137297   9.301857
    30  C    5.046536   5.199351   7.428084   6.533831   9.202675
    31  H    6.142189   5.618776   3.361920   4.625814   2.125660
    32  H    6.872503   5.227037   3.359843   3.856174   4.313522
    33  H    6.962216   4.662302   3.824027   3.379907   5.899783
    34  H    6.453067   3.905509   4.594712   3.356645   7.224194
    35  H    5.069462   5.637593   3.823681   5.188985   1.085311
    36  H    3.485316   5.304558   4.581899   5.580699   2.918112
    37  H    3.451486   5.960261   6.125790   6.724733   5.186889
    38  H    3.873713   6.332554   7.298533   7.452466   7.135735
    39  H    3.393897   5.185589   6.826281   6.519895   7.583593
    40  H    3.914541   5.094450   7.013047   6.489972   8.224335
    41  H    5.918035   6.255057   8.459880   7.595634  10.148543
    42  H    6.519906   5.857567   8.139363   6.977060  10.311235
    43  H    6.789774   5.273073   7.361964   6.020561   9.844137
    44  H    6.792233   4.575052   6.141367   4.748840   8.790936
    45  H    2.932074   3.115638   4.854579   4.318972   6.471153
                   11         12         13         14         15
    11  C    0.000000
    12  C    1.452145   0.000000
    13  C    2.927381   4.351530   0.000000
    14  C    1.447072   2.648692   2.483958   0.000000
    15  C    2.476674   3.868476   1.448565   1.385489   0.000000
    16  C    4.817421   5.907647   2.933027   5.091000   4.356612
    17  C    5.063883   6.354016   2.456794   4.913257   3.852338
    18  C    4.316483   5.717006   1.410246   3.832525   2.607022
    19  C    6.086055   7.036163   4.385689   6.496029   5.808618
    20  C    6.482150   7.783402   3.758309   6.231825   5.061110
    21  C    7.262966   8.317824   5.159028   7.482705   6.602235
    22  C    7.398850   8.608495   4.877473   7.336118   6.256485
    23  C    6.029951   6.449001   5.616125   6.959192   6.790974
    24  C    6.431909   6.190560   7.231307   7.699458   8.026495
    25  C    7.314564   7.270869   7.631508   8.472242   8.602002
    26  C    7.136757   7.374400   6.920566   8.142791   8.052187
    27  C    6.484738   7.185180   5.374371   7.172180   6.720913
    28  C    7.874810   8.546147   6.683487   8.560170   8.063638
    29  C    8.522125   9.499228   6.540289   8.829724   7.987246
    30  C    8.780213   9.592803   7.186344   9.295693   8.620801
    31  H    2.200263   1.085348   5.074610   2.963609   4.320898
    32  H    2.196082   2.962314   3.451766   1.085377   2.128501
    33  H    3.446678   4.760648   2.191328   2.128765   1.085218
    34  H    5.050100   6.476776   2.177873   4.296072   2.936161
    35  H    3.447644   2.125224   6.140308   4.754800   5.900044
    36  H    5.024718   4.267208   6.849870   6.433839   7.185345
    37  H    6.912793   6.450918   8.040055   8.243688   8.712715
    38  H    8.343725   8.232340   8.680675   9.510049   9.650468
    39  H    8.073491   8.388702   7.583561   8.999141   8.793495
    40  H    8.367945   8.888196   7.483453   9.187200   8.815743
    41  H    9.820113  10.595800   8.257157  10.362298   9.692830
    42  H    9.403725  10.444370   7.227438   9.602100   8.661980
    43  H    8.444666   9.675403   5.836729   8.311720   7.171592
    44  H    6.946800   8.312473   4.070482   6.476683   5.189894
    45  H    6.207126   6.888385   5.348025   6.958790   6.607998
                   16         17         18         19         20
    16  C    0.000000
    17  C    1.459132   0.000000
    18  C    2.522168   1.411641   0.000000
    19  C    1.453104   2.545064   3.848556   0.000000
    20  C    2.475613   1.434555   2.457858   2.891197   0.000000
    21  C    2.446685   2.859523   4.269467   1.427029   2.448392
    22  C    2.808785   2.424224   3.697292   2.489357   1.352881
    23  C    3.297416   4.734717   5.690748   2.687159   5.466380
    24  C    5.735707   7.120474   7.743608   5.488122   8.082133
    25  C    5.661336   7.068755   7.905940   5.085490   7.822665
    26  C    4.594294   5.992925   6.984539   3.808406   6.603534
    27  C    2.584435   3.912173   5.105376   1.461857   4.350934
    28  C    3.807587   4.976572   6.275359   2.445013   5.091966
    29  C    3.751006   4.258653   5.664718   2.469522   3.698402
    30  C    4.275053   5.133255   6.521851   2.840971   4.856498
    31  H    6.902506   7.235173   6.464540   8.076026   8.651551
    32  H    6.156531   5.894743   4.720457   7.569084   7.160595
    33  H    5.077865   4.301795   2.915281   6.520594   5.308767
    34  H    3.482701   2.146692   1.085604   4.690924   2.642575
    35  H    6.991619   7.766586   7.408015   7.828243   9.176493
    36  H    6.464491   7.635680   7.790453   6.793028   8.887049
    37  H    6.753498   8.113362   8.653408   6.565116   9.117965
    38  H    6.640962   8.032531   8.914207   5.955099   8.702306
    39  H    5.023918   6.347194   7.469550   3.986424   6.737640
    40  H    4.696693   5.955050   7.202937   3.424804   6.154999
    41  H    5.354080   6.180242   7.573130   3.923996   5.807065
    42  H    4.593356   4.837959   6.209026   3.441593   3.983886
    43  H    3.892908   3.411812   4.571933   3.449323   2.117801
    44  H    3.458551   2.174173   2.663274   3.975541   1.084740
    45  H    3.078524   4.323510   5.296283   2.532880   4.938797
                   21         22         23         24         25
    21  C    0.000000
    22  C    1.441261   0.000000
    23  C    3.909798   5.141676   0.000000
    24  C    6.761907   7.930531   2.870430   0.000000
    25  C    6.188899   7.457969   2.455328   1.369087   0.000000
    26  C    4.819011   6.127745   1.385286   2.428013   1.416333
    27  C    2.482432   3.811872   1.520128   4.382040   3.823229
    28  C    2.775382   4.215915   2.455439   5.031035   4.167755
    29  C    1.407026   2.445607   4.322683   7.136364   6.340573
    30  C    2.415848   3.715994   3.760907   6.395001   5.474359
    31  H    9.331023   9.548253   7.518279   7.112352   8.240638
    32  H    8.529845   8.317044   7.995028   8.559861   9.400668
    33  H    7.148235   6.598604   7.738667   9.070236   9.605196
    34  H    4.858264   3.991377   6.707907   8.799117   8.931759
    35  H    9.222061   9.787399   6.488521   5.292187   6.576168
    36  H    8.206939   9.119410   4.681569   2.657944   4.016451
    37  H    7.844757   9.001972   3.954915   1.084721   2.135689
    38  H    6.943788   8.244741   3.416644   2.129907   1.084230
    39  H    4.714971   6.067688   2.141803   3.381928   2.143332
    40  H    3.855642   5.295685   2.594503   4.669574   3.692699
    41  H    3.403465   4.588454   4.581492   7.012672   5.980936
    42  H    2.152535   2.635511   5.399112   8.197467   7.357770
    43  H    2.166160   1.084694   6.038083   8.856357   8.284727
    44  H    3.433002   2.120397   6.531577   9.097499   8.868921
    45  H    3.456050   4.587604   2.535885   4.820880   4.610143
                   26         27         28         29         30
    26  C    0.000000
    27  C    2.498815   0.000000
    28  C    2.799854   1.415534   0.000000
    29  C    4.924735   2.856319   2.393448   0.000000
    30  C    4.092845   2.472760   1.389050   1.380221   0.000000
    31  H    8.410139   8.262717   9.628365  10.539966  10.665485
    32  H    9.144639   8.249816   9.641399   9.888551  10.376086
    33  H    9.004159   7.557100   8.862134   8.546048   9.302672
    34  H    7.977882   6.032970   7.122260   6.216735   7.215585
    35  H    7.079555   7.582072   8.821441  10.227302  10.045996
    36  H    4.837770   6.076864   7.072929   8.915086   8.419511
    37  H    3.413835   5.464642   6.067234   8.207544   7.430059
    38  H    2.157348   4.651583   4.749718   6.935789   5.965570
    39  H    1.081533   2.687771   2.484278   4.542856   3.584641
    40  H    2.490008   2.146903   1.080852   3.361924   2.126170
    41  H    4.675835   3.441310   2.143891   2.146522   1.083989
    42  H    5.943077   3.940302   3.383460   1.084357   2.148194
    43  H    6.916556   4.646005   4.792596   2.624288   4.001905
    44  H    7.665046   5.434914   6.142051   4.563732   5.806773
    45  H    3.601496   1.954907   2.512084   3.824107   3.412476
                   31         32         33         34         35
    31  H    0.000000
    32  H    2.869776   0.000000
    33  H    5.050724   2.420241   0.000000
    34  H    7.117592   5.019500   2.831533   0.000000
    35  H    2.417513   5.043688   6.838118   8.281256   0.000000
    36  H    4.986053   7.068678   8.237426   8.815036   2.809650
    37  H    7.273919   9.023758   9.764086   9.706211   5.211743
    38  H    9.168516  10.420620  10.644773   9.922201   7.386726
    39  H    9.428732  10.018577   9.695192   8.403276   8.148182
    40  H    9.970275  10.259412   9.673272   8.096183   8.917836
    41  H   11.674003  11.444338  10.369003   8.234830  10.956652
    42  H   11.468182  10.640141   9.122443   6.607146  11.255406
    43  H   10.602109   9.263473   7.414763   4.677618  10.870491
    44  H    9.100778   7.307009   5.212708   2.384535   9.856131
    45  H    7.956369   8.023421   7.486296   6.257127   7.318191
                   36         37         38         39         40
    36  H    0.000000
    37  H    2.413427   0.000000
    38  H    4.703440   2.463530   0.000000
    39  H    5.885034   4.272723   2.436984   0.000000
    40  H    6.912356   5.627921   4.125103   2.062646   0.000000
    41  H    9.186804   7.998740   6.317574   3.999928   2.438253
    42  H    9.992627   9.263936   7.896932   5.472919   4.263322
    43  H   10.159597   9.932390   9.002790   6.722399   5.848768
    44  H    9.776479  10.118302   9.747130   7.788860   7.212030
    45  H    6.060800   5.816245   5.506255   4.019830   2.867410
                   41         42         43         44         45
    41  H    0.000000
    42  H    2.489391   0.000000
    43  H    4.687345   2.348264   0.000000
    44  H    6.701768   4.656742   2.449597   0.000000
    45  H    4.200381   4.807451   5.430388   5.964372   0.000000
 Stoichiometry    C30H15(2)
 Framework group  C1[X(C30H15)]
 Deg. of freedom   129
 Full point group                 C1      NOp   1
 Largest Abelian subgroup         C1      NOp   1
 Largest concise Abelian subgroup C1      NOp   1
                         Standard orientation:                         
 ---------------------------------------------------------------------
 Center     Atomic      Atomic             Coordinates (Angstroms)
 Number     Number       Type             X           Y           Z
 ---------------------------------------------------------------------
      1          6           0        0.787983    3.065551   -0.080853
      2          6           0        2.205866    3.015610    0.008935
      3          6           0        2.872924    1.802723    0.237923
      4          6           0        2.028088    0.707340    0.437853
      5          6           0        0.629489    0.694898    0.365403
      6          6           0       -0.046166    1.880935    0.104188
      7          6           0        0.219555   -0.708685    0.246883
      8          6           0        2.506263   -0.611588    0.378278
      9          6           0        1.403140   -1.467226    0.255919
     10          6           0        4.281613    1.458070    0.122981
     11          6           0        3.811996   -0.973673    0.150062
     12          6           0        4.727601    0.151318    0.080867
     13          6           0        1.545506   -2.812833   -0.073714
     14          6           0        3.992369   -2.386395   -0.106256
     15          6           0        2.918323   -3.255981   -0.205371
     16          6           0       -0.988583   -1.336855   -0.023402
     17          6           0       -0.902915   -2.772060   -0.272228
     18          6           0        0.322686   -3.470911   -0.319558
     19          6           0       -2.263535   -0.640975    0.018530
     20          6           0       -2.130707   -3.488077   -0.466636
     21          6           0       -3.432194   -1.457361   -0.045982
     22          6           0       -3.324450   -2.864306   -0.339461
     23          6           0       -1.470684    1.924613   -0.081321
     24          6           0        0.138450    4.268968   -0.473821
     25          6           0       -1.204366    4.274711   -0.740678
     26          6           0       -1.995122    3.113380   -0.561752
     27          6           0       -2.426793    0.792119    0.256469
     28          6           0       -3.735978    1.232647    0.565833
     29          6           0       -4.709811   -0.923584    0.204015
     30          6           0       -4.850003    0.402977    0.558403
     31          1           0        5.789012   -0.030034   -0.055146
     32          1           0        4.991819   -2.778888   -0.264658
     33          1           0        3.115710   -4.298611   -0.432657
     34          1           0        0.296574   -4.528264   -0.564219
     35          1           0        5.008579    2.256912    0.016808
     36          1           0        2.759309    3.927592   -0.192347
     37          1           0        0.730738    5.168145   -0.605335
     38          1           0       -1.683161    5.179807   -1.097205
     39          1           0       -3.044449    3.178190   -0.815575
     40          1           0       -3.871067    2.269080    0.841148
     41          1           0       -5.822313    0.807206    0.815783
     42          1           0       -5.572242   -1.578755    0.151161
     43          1           0       -4.247412   -3.425067   -0.440702
     44          1           0       -2.084939   -4.550193   -0.682216
     45          1           0       -1.829433    0.710786    2.116095
 ---------------------------------------------------------------------
 Rotational constants (GHZ):           0.2442382           0.1765984           0.1044766
 Standard basis: 6-311+G(d,p) (5D, 7F)
 There are   780 symmetry adapted cartesian basis functions of A   symmetry.
 There are   750 symmetry adapted basis functions of A   symmetry.
   750 basis functions,  1200 primitive gaussians,   780 cartesian basis functions
    98 alpha electrons       97 beta electrons
       nuclear repulsion energy      2611.3054082342 Hartrees.
 NAtoms=   45 NActive=   45 NUniq=   45 SFac= 1.00D+00 NAtFMM=   60 NAOKFM=F Big=F
 Integral buffers will be    131072 words long.
 Raffenetti 2 integral format.
 Two-electron integral symmetry is turned on.
 One-electron integrals computed using PRISM.
 NBasis=   750 RedAO= T EigKep=  1.02D-06  NBF=   750
 NBsUse=   728 1.00D-06 EigRej=  8.63D-07 NBFU=   728
 ExpMin= 4.38D-02 ExpMax= 4.56D+03 ExpMxC= 6.82D+02 IAcc=2 IRadAn=         4 AccDes= 0.00D+00
 Harris functional with IExCor=  402 and IRadAn=       4 diagonalized for initial guess.
 HarFok:  IExCor=  402 AccDes= 0.00D+00 IRadAn=         4 IDoV= 1 UseB2=F ITyADJ=14
 ICtDFT=  3500011 ScaDFX=  1.000000  1.000000  1.000000  1.000000
 FoFCou: FMM=F IPFlag=           0 FMFlag=      100000 FMFlg1=           0
         NFxFlg=           0 DoJE=T BraDBF=F KetDBF=T FulRan=T
         wScrn=  0.000000 ICntrl=       500 IOpCl=  0 I1Cent=   200000004 NGrid=           0
         NMat0=    1 NMatS0=      1 NMatT0=    0 NMatD0=    1 NMtDS0=    0 NMtDT0=    0
 Petite list used in FoFCou.
 Initial guess <Sx>= 0.0000 <Sy>= 0.0000 <Sz>= 0.5000 <S**2>= 0.7500 S= 0.5000
 Requested convergence on RMS density matrix=1.00D-08 within 128 cycles.
 Requested convergence on MAX density matrix=1.00D-06.
 Requested convergence on             energy=1.00D-06.
 No special actions if energy rises.
 Restarting incremental Fock formation.
 SCF Done:  E(UB3LYP) =  -1152.42236265     A.U. after   29 cycles
            NFock= 29  Conv=0.50D-08     -V/T= 2.0045
 <Sx>= 0.0000 <Sy>= 0.0000 <Sz>= 0.5000 <S**2>= 0.7723 S= 0.5111
 <L.S>=  0.00000000000    
 Annihilation of the first spin contaminant:
 S**2 before annihilation     0.7723,   after     0.7502
 DoSCS=F DFT=T ScalE2(SS,OS)=  1.000000  1.000000
 Range of M.O.s used for correlation:     1   728
 NBasis=   750 NAE=    98 NBE=    97 NFC=     0 NFV=     0
 NROrb=    728 NOA=    98 NOB=    97 NVA=   630 NVB=   631

 **** Warning!!: The largest alpha MO coefficient is  0.13671206D+03


 **** Warning!!: The smallest alpha delta epsilon is  0.98340632D-01


 **** Warning!!: The largest beta MO coefficient is  0.13841762D+03

 Symmetrizing basis deriv contribution to polar:
 IMax=3 JMax=2 DiffMx= 0.00D+00
 G2DrvN: will do    46 centers at a time, making    1 passes.
 Calling FoFCou, ICntrl=  3107 FMM=F I1Cent=   0 AccDes= 0.00D+00.
 End of G2Drv F.D. properties file   721 does not exist.
 End of G2Drv F.D. properties file   722 does not exist.
 End of G2Drv F.D. properties file   788 does not exist.
          IDoAtm=111111111111111111111111111111111111111111111
          Differentiating once with respect to nuclear coordinates.
 CalDSu exits because no D1Ps are significant.
          There are   138 degrees of freedom in the 1st order CPHF.  IDoFFX=6 NUNeed=     0.
    132 vectors produced by pass  0 Test12= 1.23D-13 1.00D-09 XBig12= 6.27D-01 1.46D-01.
 AX will form   132 AO Fock derivatives at one time.
    132 vectors produced by pass  1 Test12= 1.23D-13 1.00D-09 XBig12= 1.12D-01 5.51D-02.
    132 vectors produced by pass  2 Test12= 1.23D-13 1.00D-09 XBig12= 1.74D-03 5.28D-03.
    132 vectors produced by pass  3 Test12= 1.23D-13 1.00D-09 XBig12= 1.18D-05 4.74D-04.
    132 vectors produced by pass  4 Test12= 1.23D-13 1.00D-09 XBig12= 8.89D-08 3.64D-05.
    132 vectors produced by pass  5 Test12= 1.23D-13 1.00D-09 XBig12= 7.12D-10 1.89D-06.
    132 vectors produced by pass  6 Test12= 1.23D-13 1.00D-09 XBig12= 5.63D-11 5.12D-07.
    120 vectors produced by pass  7 Test12= 1.23D-13 1.00D-09 XBig12= 9.70D-12 1.80D-07.
     92 vectors produced by pass  8 Test12= 1.23D-13 1.00D-09 XBig12= 1.38D-12 6.40D-08.
     39 vectors produced by pass  9 Test12= 1.23D-13 1.00D-09 XBig12= 2.08D-14 6.71D-09.
      4 vectors produced by pass 10 Test12= 1.23D-13 1.00D-09 XBig12= 6.34D-16 1.35D-09.
      3 vectors produced by pass 11 Test12= 1.23D-13 1.00D-09 XBig12= 1.20D-15 2.09D-09.
      2 vectors produced by pass 12 Test12= 1.23D-13 1.00D-09 XBig12= 1.84D-15 2.22D-09.
      2 vectors produced by pass 13 Test12= 1.23D-13 1.00D-09 XBig12= 8.44D-16 1.51D-09.
      2 vectors produced by pass 14 Test12= 1.23D-13 1.00D-09 XBig12= 1.38D-15 1.73D-09.
      2 vectors produced by pass 15 Test12= 1.23D-13 1.00D-09 XBig12= 7.58D-16 1.28D-09.
      2 vectors produced by pass 16 Test12= 1.23D-13 1.00D-09 XBig12= 7.13D-16 1.21D-09.
      2 vectors produced by pass 17 Test12= 1.23D-13 1.00D-09 XBig12= 9.63D-16 1.46D-09.
      2 vectors produced by pass 18 Test12= 1.23D-13 1.00D-09 XBig12= 7.95D-16 1.30D-09.
      2 vectors produced by pass 19 Test12= 1.23D-13 1.00D-09 XBig12= 8.15D-16 1.35D-09.
      2 vectors produced by pass 20 Test12= 1.23D-13 1.00D-09 XBig12= 8.52D-16 2.01D-09.
      2 vectors produced by pass 21 Test12= 1.23D-13 1.00D-09 XBig12= 1.16D-15 1.78D-09.
      2 vectors produced by pass 22 Test12= 1.23D-13 1.00D-09 XBig12= 8.96D-16 1.82D-09.
      1 vectors produced by pass 23 Test12= 1.23D-13 1.00D-09 XBig12= 6.47D-16 1.17D-09.
 InvSVY:  IOpt=1 It=  1 EMax= 1.05D-15
 Solved reduced A of dimension  1205 with   138 vectors.
 End of Minotr F.D. properties file   721 does not exist.
 End of Minotr F.D. properties file   722 does not exist.
 End of Minotr F.D. properties file   788 does not exist.

 **********************************************************************

            Population analysis using the SCF Density.

 **********************************************************************

 Orbital symmetries:
 Alpha Orbitals:
       Occupied  (A) (A) (A) (A) (A) (A) (A) (A) (A) (A) (A) (A)
                 (A) (A) (A) (A) (A) (A) (A) (A) (A) (A) (A) (A)
                 (A) (A) (A) (A) (A) (A) (A) (A) (A) (A) (A) (A)
                 (A) (A) (A) (A) (A) (A) (A) (A) (A) (A) (A) (A)
                 (A) (A) (A) (A) (A) (A) (A) (A) (A) (A) (A) (A)
                 (A) (A) (A) (A) (A) (A) (A) (A) (A) (A) (A) (A)
                 (A) (A) (A) (A) (A) (A) (A) (A) (A) (A) (A) (A)
                 (A) (A) (A) (A) (A) (A) (A) (A) (A) (A) (A) (A)
                 (A) (A)
       Virtual   (A) (A) (A) (A) (A) (A) (A) (A) (A) (A) (A) (A)
                 (A) (A) (A) (A) (A) (A) (A) (A) (A) (A) (A) (A)
                 (A) (A) (A) (A) (A) (A) (A) (A) (A) (A) (A) (A)
                 (A) (A) (A) (A) (A) (A) (A) (A) (A) (A) (A) (A)
                 (A) (A) (A) (A) (A) (A) (A) (A) (A) (A) (A) (A)
                 (A) (A) (A) (A) (A) (A) (A) (A) (A) (A) (A) (A)
                 (A) (A) (A) (A) (A) (A) (A) (A) (A) (A) (A) (A)
                 (A) (A) (A) (A) (A) (A) (A) (A) (A) (A) (A) (A)
                 (A) (A) (A) (A) (A) (A) (A) (A) (A) (A) (A) (A)
                 (A) (A) (A) (A) (A) (A) (A) (A) (A) (A) (A) (A)
                 (A) (A) (A) (A) (A) (A) (A) (A) (A) (A) (A) (A)
                 (A) (A) (A) (A) (A) (A) (A) (A) (A) (A) (A) (A)
                 (A) (A) (A) (A) (A) (A) (A) (A) (A) (A) (A) (A)
                 (A) (A) (A) (A) (A) (A) (A) (A) (A) (A) (A) (A)
                 (A) (A) (A) (A) (A) (A) (A) (A) (A) (A) (A) (A)
                 (A) (A) (A) (A) (A) (A) (A) (A) (A) (A) (A) (A)
                 (A) (A) (A) (A) (A) (A) (A) (A) (A) (A) (A) (A)
                 (A) (A) (A) (A) (A) (A) (A) (A) (A) (A) (A) (A)
                 (A) (A) (A) (A) (A) (A) (A) (A) (A) (A) (A) (A)
                 (A) (A) (A) (A) (A) (A) (A) (A) (A) (A) (A) (A)
                 (A) (A) (A) (A) (A) (A) (A) (A) (A) (A) (A) (A)
                 (A) (A) (A) (A) (A) (A) (A) (A) (A) (A) (A) (A)
                 (A) (A) (A) (A) (A) (A) (A) (A) (A) (A) (A) (A)
                 (A) (A) (A) (A) (A) (A) (A) (A) (A) (A) (A) (A)
                 (A) (A) (A) (A) (A) (A) (A) (A) (A) (A) (A) (A)
                 (A) (A) (A) (A) (A) (A) (A) (A) (A) (A) (A) (A)
                 (A) (A) (A) (A) (A) (A) (A) (A) (A) (A) (A) (A)
                 (A) (A) (A) (A) (A) (A) (A) (A) (A) (A) (A) (A)
                 (A) (A) (A) (A) (A) (A) (A) (A) (A) (A) (A) (A)
                 (A) (A) (A) (A) (A) (A) (A) (A) (A) (A) (A) (A)
                 (A) (A) (A) (A) (A) (A) (A) (A) (A) (A) (A) (A)
                 (A) (A) (A) (A) (A) (A) (A) (A) (A) (A) (A) (A)
                 (A) (A) (A) (A) (A) (A) (A) (A) (A) (A) (A) (A)
                 (A) (A) (A) (A) (A) (A) (A) (A) (A) (A) (A) (A)
                 (A) (A) (A) (A) (A) (A) (A) (A) (A) (A) (A) (A)
                 (A) (A) (A) (A) (A) (A) (A) (A) (A) (A) (A) (A)
                 (A) (A) (A) (A) (A) (A) (A) (A) (A) (A) (A) (A)
                 (A) (A) (A) (A) (A) (A) (A) (A) (A) (A) (A) (A)
                 (A) (A) (A) (A) (A) (A) (A) (A) (A) (A) (A) (A)
                 (A) (A) (A) (A) (A) (A) (A) (A) (A) (A) (A) (A)
                 (A) (A) (A) (A) (A) (A) (A) (A) (A) (A) (A) (A)
                 (A) (A) (A) (A) (A) (A) (A) (A) (A) (A) (A) (A)
                 (A) (A) (A) (A) (A) (A) (A) (A) (A) (A) (A) (A)
                 (A) (A) (A) (A) (A) (A) (A) (A) (A) (A) (A) (A)
                 (A) (A) (A) (A) (A) (A) (A) (A) (A) (A) (A) (A)
                 (A) (A) (A) (A) (A) (A) (A) (A) (A) (A) (A) (A)
                 (A) (A) (A) (A) (A) (A) (A) (A) (A) (A) (A) (A)
                 (A) (A) (A) (A) (A) (A) (A) (A) (A) (A) (A) (A)
                 (A) (A) (A) (A) (A) (A) (A) (A) (A) (A) (A) (A)
                 (A) (A) (A) (A) (A) (A) (A) (A) (A) (A) (A) (A)
                 (A) (A) (A) (A) (A) (A) (A) (A) (A) (A) (A) (A)
                 (A) (A) (A) (A) (A) (A) (A) (A) (A) (A) (A) (A)
                 (A) (A) (A) (A) (A) (A)
 Beta  Orbitals:
       Occupied  (A) (A) (A) (A) (A) (A) (A) (A) (A) (A) (A) (A)
                 (A) (A) (A) (A) (A) (A) (A) (A) (A) (A) (A) (A)
                 (A) (A) (A) (A) (A) (A) (A) (A) (A) (A) (A) (A)
                 (A) (A) (A) (A) (A) (A) (A) (A) (A) (A) (A) (A)
                 (A) (A) (A) (A) (A) (A) (A) (A) (A) (A) (A) (A)
                 (A) (A) (A) (A) (A) (A) (A) (A) (A) (A) (A) (A)
                 (A) (A) (A) (A) (A) (A) (A) (A) (A) (A) (A) (A)
                 (A) (A) (A) (A) (A) (A) (A) (A) (A) (A) (A) (A)
                 (A)
       Virtual   (A) (A) (A) (A) (A) (A) (A) (A) (A) (A) (A) (A)
                 (A) (A) (A) (A) (A) (A) (A) (A) (A) (A) (A) (A)
                 (A) (A) (A) (A) (A) (A) (A) (A) (A) (A) (A) (A)
                 (A) (A) (A) (A) (A) (A) (A) (A) (A) (A) (A) (A)
                 (A) (A) (A) (A) (A) (A) (A) (A) (A) (A) (A) (A)
                 (A) (A) (A) (A) (A) (A) (A) (A) (A) (A) (A) (A)
                 (A) (A) (A) (A) (A) (A) (A) (A) (A) (A) (A) (A)
                 (A) (A) (A) (A) (A) (A) (A) (A) (A) (A) (A) (A)
                 (A) (A) (A) (A) (A) (A) (A) (A) (A) (A) (A) (A)
                 (A) (A) (A) (A) (A) (A) (A) (A) (A) (A) (A) (A)
                 (A) (A) (A) (A) (A) (A) (A) (A) (A) (A) (A) (A)
                 (A) (A) (A) (A) (A) (A) (A) (A) (A) (A) (A) (A)
                 (A) (A) (A) (A) (A) (A) (A) (A) (A) (A) (A) (A)
                 (A) (A) (A) (A) (A) (A) (A) (A) (A) (A) (A) (A)
                 (A) (A) (A) (A) (A) (A) (A) (A) (A) (A) (A) (A)
                 (A) (A) (A) (A) (A) (A) (A) (A) (A) (A) (A) (A)
                 (A) (A) (A) (A) (A) (A) (A) (A) (A) (A) (A) (A)
                 (A) (A) (A) (A) (A) (A) (A) (A) (A) (A) (A) (A)
                 (A) (A) (A) (A) (A) (A) (A) (A) (A) (A) (A) (A)
                 (A) (A) (A) (A) (A) (A) (A) (A) (A) (A) (A) (A)
                 (A) (A) (A) (A) (A) (A) (A) (A) (A) (A) (A) (A)
                 (A) (A) (A) (A) (A) (A) (A) (A) (A) (A) (A) (A)
                 (A) (A) (A) (A) (A) (A) (A) (A) (A) (A) (A) (A)
                 (A) (A) (A) (A) (A) (A) (A) (A) (A) (A) (A) (A)
                 (A) (A) (A) (A) (A) (A) (A) (A) (A) (A) (A) (A)
                 (A) (A) (A) (A) (A) (A) (A) (A) (A) (A) (A) (A)
                 (A) (A) (A) (A) (A) (A) (A) (A) (A) (A) (A) (A)
                 (A) (A) (A) (A) (A) (A) (A) (A) (A) (A) (A) (A)
                 (A) (A) (A) (A) (A) (A) (A) (A) (A) (A) (A) (A)
                 (A) (A) (A) (A) (A) (A) (A) (A) (A) (A) (A) (A)
                 (A) (A) (A) (A) (A) (A) (A) (A) (A) (A) (A) (A)
                 (A) (A) (A) (A) (A) (A) (A) (A) (A) (A) (A) (A)
                 (A) (A) (A) (A) (A) (A) (A) (A) (A) (A) (A) (A)
                 (A) (A) (A) (A) (A) (A) (A) (A) (A) (A) (A) (A)
                 (A) (A) (A) (A) (A) (A) (A) (A) (A) (A) (A) (A)
                 (A) (A) (A) (A) (A) (A) (A) (A) (A) (A) (A) (A)
                 (A) (A) (A) (A) (A) (A) (A) (A) (A) (A) (A) (A)
                 (A) (A) (A) (A) (A) (A) (A) (A) (A) (A) (A) (A)
                 (A) (A) (A) (A) (A) (A) (A) (A) (A) (A) (A) (A)
                 (A) (A) (A) (A) (A) (A) (A) (A) (A) (A) (A) (A)
                 (A) (A) (A) (A) (A) (A) (A) (A) (A) (A) (A) (A)
                 (A) (A) (A) (A) (A) (A) (A) (A) (A) (A) (A) (A)
                 (A) (A) (A) (A) (A) (A) (A) (A) (A) (A) (A) (A)
                 (A) (A) (A) (A) (A) (A) (A) (A) (A) (A) (A) (A)
                 (A) (A) (A) (A) (A) (A) (A) (A) (A) (A) (A) (A)
                 (A) (A) (A) (A) (A) (A) (A) (A) (A) (A) (A) (A)
                 (A) (A) (A) (A) (A) (A) (A) (A) (A) (A) (A) (A)
                 (A) (A) (A) (A) (A) (A) (A) (A) (A) (A) (A) (A)
                 (A) (A) (A) (A) (A) (A) (A) (A) (A) (A) (A) (A)
                 (A) (A) (A) (A) (A) (A) (A) (A) (A) (A) (A) (A)
                 (A) (A) (A) (A) (A) (A) (A) (A) (A) (A) (A) (A)
                 (A) (A) (A) (A) (A) (A) (A) (A) (A) (A) (A) (A)
                 (A) (A) (A) (A) (A) (A) (A)
 The electronic state is 2-A.
 Alpha  occ. eigenvalues --  -10.22159 -10.20929 -10.20395 -10.20325 -10.20090
 Alpha  occ. eigenvalues --  -10.20006 -10.19864 -10.19776 -10.19698 -10.19371
 Alpha  occ. eigenvalues --  -10.19344 -10.19309 -10.19296 -10.19239 -10.19238
 Alpha  occ. eigenvalues --  -10.19126 -10.19047 -10.18849 -10.18779 -10.18718
 Alpha  occ. eigenvalues --  -10.18539 -10.18508 -10.18473 -10.18388 -10.18347
 Alpha  occ. eigenvalues --  -10.18315 -10.18170 -10.16936 -10.16816 -10.16804
 Alpha  occ. eigenvalues --   -0.92478  -0.89247  -0.88342  -0.85656  -0.84438
 Alpha  occ. eigenvalues --   -0.83583  -0.80781  -0.80093  -0.78527  -0.77730
 Alpha  occ. eigenvalues --   -0.75590  -0.75087  -0.72892  -0.71728  -0.71093
 Alpha  occ. eigenvalues --   -0.66915  -0.65686  -0.64186  -0.63681  -0.62747
 Alpha  occ. eigenvalues --   -0.60430  -0.59526  -0.58556  -0.56973  -0.56195
 Alpha  occ. eigenvalues --   -0.52962  -0.52292  -0.51514  -0.51252  -0.50206
 Alpha  occ. eigenvalues --   -0.49184  -0.47991  -0.47367  -0.45892  -0.45641
 Alpha  occ. eigenvalues --   -0.45028  -0.44447  -0.44325  -0.43754  -0.43088
 Alpha  occ. eigenvalues --   -0.42694  -0.41794  -0.41497  -0.40876  -0.40582
 Alpha  occ. eigenvalues --   -0.40209  -0.39872  -0.39358  -0.38266  -0.36969
 Alpha  occ. eigenvalues --   -0.36324  -0.35898  -0.35507  -0.34901  -0.34640
 Alpha  occ. eigenvalues --   -0.34456  -0.33593  -0.32966  -0.31803  -0.30965
 Alpha  occ. eigenvalues --   -0.28811  -0.28369  -0.26411  -0.26005  -0.23592
 Alpha  occ. eigenvalues --   -0.22261  -0.21108  -0.19577
 Alpha virt. eigenvalues --   -0.09743  -0.06838  -0.04870  -0.03895  -0.03081
 Alpha virt. eigenvalues --   -0.00609   0.00034   0.00518   0.00573   0.01101
 Alpha virt. eigenvalues --    0.01512   0.01567   0.01813   0.02801   0.02888
 Alpha virt. eigenvalues --    0.03301   0.03602   0.03892   0.04128   0.04518
 Alpha virt. eigenvalues --    0.04782   0.05360   0.05653   0.05762   0.06278
 Alpha virt. eigenvalues --    0.06658   0.07005   0.07386   0.07902   0.08056
 Alpha virt. eigenvalues --    0.08496   0.08825   0.09001   0.09316   0.09543
 Alpha virt. eigenvalues --    0.10133   0.10311   0.10651   0.10899   0.11483
 Alpha virt. eigenvalues --    0.11596   0.11675   0.12318   0.12637   0.12878
 Alpha virt. eigenvalues --    0.13247   0.13766   0.14358   0.14700   0.14919
 Alpha virt. eigenvalues --    0.14969   0.15094   0.15265   0.15829   0.16230
 Alpha virt. eigenvalues --    0.16362   0.16464   0.16570   0.16835   0.16913
 Alpha virt. eigenvalues --    0.17048   0.17344   0.17479   0.17833   0.18034
 Alpha virt. eigenvalues --    0.18344   0.18471   0.18826   0.19092   0.19268
 Alpha virt. eigenvalues --    0.19503   0.19749   0.20127   0.20333   0.20506
 Alpha virt. eigenvalues --    0.20644   0.20942   0.21146   0.21286   0.21466
 Alpha virt. eigenvalues --    0.21545   0.21728   0.22101   0.22302   0.22526
 Alpha virt. eigenvalues --    0.22647   0.22940   0.23120   0.23395   0.23500
 Alpha virt. eigenvalues --    0.23793   0.24166   0.24383   0.24799   0.25151
 Alpha virt. eigenvalues --    0.25206   0.25426   0.25542   0.25840   0.26148
 Alpha virt. eigenvalues --    0.26361   0.26560   0.26796   0.27064   0.27195
 Alpha virt. eigenvalues --    0.27528   0.27688   0.27953   0.28256   0.28621
 Alpha virt. eigenvalues --    0.28810   0.29017   0.29150   0.29882   0.30109
 Alpha virt. eigenvalues --    0.30212   0.30703   0.31034   0.31164   0.31528
 Alpha virt. eigenvalues --    0.31685   0.32250   0.32369   0.32798   0.33045
 Alpha virt. eigenvalues --    0.33177   0.33219   0.34223   0.34539   0.34857
 Alpha virt. eigenvalues --    0.35179   0.35617   0.35813   0.36053   0.37180
 Alpha virt. eigenvalues --    0.37357   0.37713   0.38053   0.38187   0.38880
 Alpha virt. eigenvalues --    0.39262   0.39521   0.39958   0.40622   0.41086
 Alpha virt. eigenvalues --    0.41997   0.42642   0.43104   0.43368   0.43608
 Alpha virt. eigenvalues --    0.44907   0.45703   0.46046   0.47029   0.47646
 Alpha virt. eigenvalues --    0.48250   0.48499   0.49664   0.49937   0.50846
 Alpha virt. eigenvalues --    0.51255   0.51472   0.52237   0.52586   0.52748
 Alpha virt. eigenvalues --    0.53145   0.53758   0.53876   0.54250   0.54615
 Alpha virt. eigenvalues --    0.54959   0.55653   0.55702   0.56335   0.56708
 Alpha virt. eigenvalues --    0.57230   0.57552   0.57782   0.58006   0.58810
 Alpha virt. eigenvalues --    0.59011   0.59268   0.59422   0.59889   0.60142
 Alpha virt. eigenvalues --    0.60403   0.60786   0.61494   0.62136   0.62174
 Alpha virt. eigenvalues --    0.62612   0.62809   0.63538   0.63938   0.64354
 Alpha virt. eigenvalues --    0.65078   0.65448   0.65974   0.66092   0.66847
 Alpha virt. eigenvalues --    0.67212   0.67817   0.68417   0.68821   0.68961
 Alpha virt. eigenvalues --    0.69338   0.69534   0.69898   0.70933   0.71033
 Alpha virt. eigenvalues --    0.71147   0.71202   0.71497   0.72116   0.72269
 Alpha virt. eigenvalues --    0.72596   0.72755   0.73320   0.73630   0.74227
 Alpha virt. eigenvalues --    0.74734   0.75215   0.75492   0.75592   0.75878
 Alpha virt. eigenvalues --    0.76420   0.76569   0.77034   0.77686   0.78184
 Alpha virt. eigenvalues --    0.78623   0.79591   0.80329   0.80894   0.81900
 Alpha virt. eigenvalues --    0.82403   0.82916   0.83687   0.84282   0.84938
 Alpha virt. eigenvalues --    0.85303   0.86492   0.87063   0.87459   0.88196
 Alpha virt. eigenvalues --    0.88312   0.88751   0.89260   0.89382   0.89770
 Alpha virt. eigenvalues --    0.90597   0.90789   0.91366   0.91675   0.92032
 Alpha virt. eigenvalues --    0.92437   0.92963   0.93402   0.93954   0.94244
 Alpha virt. eigenvalues --    0.94319   0.94920   0.95008   0.95305   0.95577
 Alpha virt. eigenvalues --    0.95905   0.96674   0.97046   0.97530   0.97914
 Alpha virt. eigenvalues --    0.98755   0.98879   0.99329   1.00012   1.00132
 Alpha virt. eigenvalues --    1.00942   1.01306   1.02012   1.02785   1.03249
 Alpha virt. eigenvalues --    1.03838   1.04629   1.05029   1.05663   1.06215
 Alpha virt. eigenvalues --    1.07072   1.07601   1.07832   1.08687   1.09142
 Alpha virt. eigenvalues --    1.09536   1.10303   1.10901   1.12257   1.12930
 Alpha virt. eigenvalues --    1.13247   1.13628   1.15939   1.17057   1.18044
 Alpha virt. eigenvalues --    1.18192   1.19366   1.19577   1.20626   1.22485
 Alpha virt. eigenvalues --    1.22739   1.23587   1.24688   1.25465   1.27460
 Alpha virt. eigenvalues --    1.29306   1.29934   1.31948   1.32972   1.33834
 Alpha virt. eigenvalues --    1.34990   1.35634   1.37550   1.38199   1.39107
 Alpha virt. eigenvalues --    1.40050   1.40632   1.42666   1.43503   1.44263
 Alpha virt. eigenvalues --    1.45168   1.45701   1.46045   1.46623   1.48110
 Alpha virt. eigenvalues --    1.48246   1.48755   1.49315   1.49922   1.50649
 Alpha virt. eigenvalues --    1.50906   1.51551   1.51593   1.52603   1.52949
 Alpha virt. eigenvalues --    1.53682   1.54537   1.54728   1.55071   1.55856
 Alpha virt. eigenvalues --    1.57266   1.57704   1.57970   1.58989   1.59851
 Alpha virt. eigenvalues --    1.60480   1.60940   1.61409   1.62112   1.62696
 Alpha virt. eigenvalues --    1.63546   1.64579   1.65715   1.66893   1.67411
 Alpha virt. eigenvalues --    1.68870   1.69004   1.70123   1.70811   1.71970
 Alpha virt. eigenvalues --    1.72384   1.72615   1.73188   1.73657   1.74579
 Alpha virt. eigenvalues --    1.74706   1.75307   1.75998   1.76700   1.77281
 Alpha virt. eigenvalues --    1.77665   1.78144   1.78522   1.80517   1.81412
 Alpha virt. eigenvalues --    1.81895   1.82701   1.83067   1.83957   1.84424
 Alpha virt. eigenvalues --    1.84807   1.85585   1.86324   1.86775   1.87228
 Alpha virt. eigenvalues --    1.87853   1.88209   1.88554   1.89327   1.90406
 Alpha virt. eigenvalues --    1.91033   1.91914   1.92193   1.92315   1.93837
 Alpha virt. eigenvalues --    1.94165   1.94440   1.94877   1.95145   1.95727
 Alpha virt. eigenvalues --    1.96129   1.97204   1.97532   1.98023   1.98591
 Alpha virt. eigenvalues --    1.99826   2.01111   2.01999   2.02799   2.03600
 Alpha virt. eigenvalues --    2.04062   2.04108   2.04755   2.05260   2.06225
 Alpha virt. eigenvalues --    2.06921   2.07182   2.09265   2.09575   2.11696
 Alpha virt. eigenvalues --    2.12009   2.12504   2.12924   2.13595   2.16999
 Alpha virt. eigenvalues --    2.17392   2.17740   2.18558   2.18940   2.19826
 Alpha virt. eigenvalues --    2.20640   2.21515   2.22218   2.22297   2.24559
 Alpha virt. eigenvalues --    2.25512   2.25654   2.25974   2.27804   2.29090
 Alpha virt. eigenvalues --    2.30910   2.32471   2.33643   2.34408   2.35815
 Alpha virt. eigenvalues --    2.36860   2.39054   2.39539   2.40782   2.41068
 Alpha virt. eigenvalues --    2.42140   2.43157   2.44158   2.46040   2.46171
 Alpha virt. eigenvalues --    2.48282   2.48875   2.51631   2.53670   2.54516
 Alpha virt. eigenvalues --    2.55750   2.56526   2.57323   2.58727   2.59418
 Alpha virt. eigenvalues --    2.60515   2.61498   2.63229   2.64349   2.66187
 Alpha virt. eigenvalues --    2.67813   2.68717   2.69399   2.70028   2.71020
 Alpha virt. eigenvalues --    2.71542   2.71632   2.71975   2.72169   2.72620
 Alpha virt. eigenvalues --    2.73229   2.74177   2.74854   2.74942   2.75238
 Alpha virt. eigenvalues --    2.75487   2.75721   2.76493   2.76871   2.77395
 Alpha virt. eigenvalues --    2.77903   2.78424   2.78546   2.78783   2.80112
 Alpha virt. eigenvalues --    2.80582   2.81069   2.81343   2.82488   2.82933
 Alpha virt. eigenvalues --    2.83640   2.85174   2.85664   2.86642   2.87325
 Alpha virt. eigenvalues --    2.87786   2.88634   2.89650   2.90674   2.91311
 Alpha virt. eigenvalues --    2.91493   2.92829   2.93749   2.94578   2.96433
 Alpha virt. eigenvalues --    2.98411   2.99711   3.00319   3.01955   3.03281
 Alpha virt. eigenvalues --    3.03897   3.06325   3.07055   3.09986   3.12206
 Alpha virt. eigenvalues --    3.13280   3.14110   3.14473   3.17709   3.17874
 Alpha virt. eigenvalues --    3.19375   3.20329   3.21668   3.23041   3.23608
 Alpha virt. eigenvalues --    3.24026   3.24650   3.27306   3.30233   3.32958
 Alpha virt. eigenvalues --    3.33900   3.35939   3.37164   3.37473   3.39245
 Alpha virt. eigenvalues --    3.40026   3.40428   3.42170   3.42832   3.43410
 Alpha virt. eigenvalues --    3.44190   3.47113   3.47968   3.48951   3.49605
 Alpha virt. eigenvalues --    3.52449   3.53497   3.55717   3.57297   3.58971
 Alpha virt. eigenvalues --    3.60852   3.61711   3.62797   3.64824   3.68360
 Alpha virt. eigenvalues --    3.69989   3.72519   3.82907   3.83334   3.87317
 Alpha virt. eigenvalues --    3.91750   3.94377   4.03719   4.04550   4.05554
 Alpha virt. eigenvalues --    4.06608   4.07370   4.08998   4.10371   4.15929
 Alpha virt. eigenvalues --    4.20116   4.23946   4.27753   4.33167   4.41933
 Alpha virt. eigenvalues --    4.50910   4.66487   4.71759   4.75911   4.76399
 Alpha virt. eigenvalues --    4.79170   4.80998   4.81190   4.86115   4.89642
 Alpha virt. eigenvalues --   23.39062  23.61954  23.65824  23.77315  23.81322
[...]
 5,0.00001287,-0.00001420,-0.00003510,-0.00003662,-0.00000608,0.0000657
 7,0.00000625,0.00000435,-0.00061792,-0.00145687,-0.00010460,0.00008659
 ,-0.00014339,0.00001621,0.00011013,0.00009442,0.00002851,-0.00276391,0
 .00369623,0.00130466,0.00022329,0.00054909,0.00006962,-0.01886319,-0.0
 1864425,-0.00158502,0.00063304,-0.00236581,-0.00091963,0.00009030,0.00
 002000,-0.00014262,0.00000620,-0.00000085,0.00000040,-0.00000036,0.000
 00363,0.00001831,0.00003979,-0.00004270,-0.00001220,-0.00020305,0.0007
 1540,0.00013285,0.00175498,0.00105254,0.00086157,-0.23322582,-0.132307
 59,-0.00871294,0.00650321,0.00389554,0.00076985,-0.00000514,-0.0000005
 5,0.00000039,-0.00000354,0.00000073,0.00000051,-0.00000537,0.00000688,
 0.00000233,-0.00002365,0.00002453,0.00000614,-0.00000338,-0.00000274,0
 .00000075,-0.00000168,-0.00000257,0.00000174,-0.00000249,-0.00000348,-
 0.00000161,0.00000017,-0.00000566,0.00000107,-0.00000004,0.00000109,-0
 .00000838,0.00009704,0.00024998,0.00001731,0.00058518,-0.00029369,-0.0
 0067014,0.24572877,-0.00000477,-0.00002211,-0.00000977,-0.00000321,0.0
 0000108,0.00000344,-0.00000970,-0.00001002,-0.00000465,0.00002042,-0.0
 0000238,0.00000171,-0.00003343,0.00003203,-0.00000516,0.00009285,-0.00
 006527,0.00002104,0.00005612,-0.00013330,0.00002397,-0.00001951,-0.000
 00472,0.00000978,0.00007155,0.00001498,0.00001062,0.00000749,-0.000002
 71,0.00000293,0.00001768,-0.00001583,-0.00000625,-0.00000001,0.0000023
 7,-0.00000465,0.00006423,0.00004870,0.00000920,0.00000981,0.00003326,0
 .00000632,-0.00004065,-0.00001439,0.00000296,0.00050062,0.00038682,0.0
 0004919,0.00022808,0.00014926,0.00001363,-0.00013637,-0.00002337,-0.00
 001389,0.00218848,-0.00060012,-0.00160776,-0.00038578,0.00015136,0.000
 03958,0.00994482,0.00872741,0.00012379,0.00216839,0.00044463,0.0007043
 8,-0.00013742,-0.00002878,0.00022579,-0.00004575,-0.00001212,-0.000009
 19,0.00001463,0.00006412,0.00000204,-0.00009029,-0.00001056,0.00009649
 ,0.00063852,-0.00025979,0.00009657,0.00181440,-0.00435918,-0.00344881,
 -0.13338052,-0.15700330,-0.01406107,-0.02601212,-0.01253865,-0.0006849
 1,-0.00000415,0.00000138,0.00000050,-0.00000455,0.00000137,-0.00000054
 ,-0.00000109,0.00000415,0.00000117,0.00000767,0.00000183,-0.00000183,-
 0.00000299,-0.00000329,0.00000046,-0.00000443,-0.00000421,-0.00000049,
 -0.00000850,-0.00000384,-0.00000259,0.00000004,-0.00001082,0.00000273,
 -0.00002462,0.00001736,-0.00006814,-0.00114702,-0.00070244,0.00009833,
 0.00050760,0.00067842,0.00117281,0.14321494,0.16498336,-0.00004930,0.0
 0008447,-0.00000370,0.00001712,-0.00001749,0.00000090,-0.00001888,0.00
 001716,-0.00000563,-0.00002871,0.00000626,0.00000267,0.00001533,-0.000
 08541,0.00000090,-0.00019702,0.00003245,0.00004792,0.00006510,-0.00012
 293,-0.00002091,0.00005435,-0.00001824,-0.00004684,0.00000317,0.000006
 24,0.00003797,0.00002258,-0.00001495,-0.00000319,-0.00004610,0.0000086
 1,0.00001525,0.00000944,0.00002911,0.00000777,-0.00002380,0.00002012,-
 0.00001533,-0.00001029,-0.00002292,-0.00000758,0.00002760,0.00000106,-
 0.00000721,0.00036013,0.00015188,0.00008750,-0.00001947,0.00008334,0.0
 0009277,0.00000142,-0.00001013,0.00001514,0.00184737,-0.00031593,0.005
 12015,-0.00013791,0.00002081,-0.00006675,0.00310992,0.00350346,0.00377
 142,0.00018195,0.00110445,-0.00315251,-0.00004678,0.00030087,-0.000747
 83,0.00008103,-0.00001215,0.00001429,-0.00009432,-0.00004447,-0.000025
 00,0.00026838,-0.00003383,-0.00002829,0.00022643,-0.00042060,-0.000880
 91,0.00191450,-0.00311044,0.00601990,-0.00799316,-0.01437738,-0.037921
 49,-0.00692273,-0.00483682,0.00389835,0.00000091,0.00000132,0.00000032
 ,0.00000032,-0.00000105,0.00000263,0.00000115,0.00000036,-0.00000220,0
 .00000355,-0.00000618,0.00001129,0.00000051,-0.00000005,0.00000149,-0.
 00000128,0.00000124,0.00000301,-0.00000391,-0.00000011,0.00000634,0.00
 000407,0.00000927,-0.00000308,-0.00005781,0.00005175,0.00003711,-0.000
 46207,-0.00040025,0.00005719,-0.00056732,0.00131597,-0.00361723,0.0085
 4992,0.01736532,0.02685820,-0.00000110,-0.00000325,0.00000603,-0.00002
 314,-0.00000146,-0.00000677,0.00002333,-0.00002583,0.00000762,-0.00004
 982,-0.00001731,-0.00000660,0.00001715,0.00003272,0.00001423,-0.000027
 47,-0.00002003,-0.00001031,0.00010804,-0.00003691,-0.00005424,0.000022
 96,-0.00001360,-0.00000424,0.00001534,0.00007274,0.00003493,-0.0000166
 1,0.00001033,0.00000081,-0.00002696,0.00008410,0.00000746,0.00001145,-
 0.00002131,-0.00000236,-0.00047817,0.00028814,-0.00000628,-0.00009277,
 -0.00003797,0.00000195,0.00005434,-0.00012875,-0.00003644,0.00012186,0
 .00032545,0.00016537,-0.00228008,0.00418750,0.00098289,-0.00056006,-0.
 00111472,-0.00034089,0.00081844,0.00085295,0.00012802,-0.02035176,-0.0
 1684990,-0.00322655,0.00284465,0.00252823,0.00066270,-0.25579230,-0.12
 185000,-0.02228648,0.00000379,0.00006004,-0.00002415,-0.00000245,0.000
 00401,-0.00000336,0.00000323,0.00000684,-0.00000231,0.00002249,-0.0000
 0086,-0.00000906,-0.00001107,0.00030398,0.00008577,0.00020892,0.000136
 00,0.00000627,0.00070300,0.00203830,0.00049348,0.00019149,-0.00034167,
 -0.00010912,-0.00000802,0.00000004,0.00000134,-0.00001964,-0.00001142,
 0.00000199,-0.00000405,0.00001469,0.00000573,-0.00000313,0.00005523,0.
 00002409,-0.00000395,-0.00000550,0.00000024,-0.00000213,-0.00000460,0.
 00000235,-0.00000405,-0.00000393,0.00000111,0.00000229,-0.00000569,0.0
 0000299,0.00000346,0.00000281,-0.00000594,0.00001757,-0.00000808,0.000
 00210,0.00000146,-0.00004401,-0.00001834,0.00037233,-0.00005714,-0.000
 05177,0.27328682,-0.00001794,0.00000075,0.00000178,-0.00000763,-0.0000
 0681,0.00000163,-0.00001038,-0.00001565,-0.00000091,-0.00000352,0.0000
 4670,-0.00000858,0.00002799,0.00002780,0.00000095,0.00002767,-0.000027
 23,0.00002508,-0.00009015,0.00011769,0.00008905,-0.00001742,-0.0000400
 3,-0.00000624,0.00001787,-0.00005529,-0.00003512,0.00003643,-0.0000024
 5,-0.00000382,-0.00001593,-0.00001363,0.00001211,-0.00000878,0.0000319
 5,0.00000059,0.00017114,-0.00008805,0.00017455,0.00001660,0.00001015,-
 0.00001912,0.00001116,0.00005492,0.00004310,0.00056954,-0.00025624,0.0
 0010497,0.00281075,-0.00068494,-0.00202932,0.00026774,0.00052455,0.000
 09722,0.00244467,-0.00424722,-0.00202832,0.01467036,0.01113287,0.00128
 150,-0.02604268,-0.01353591,-0.00284549,-0.12219656,-0.13016326,-0.018
 57872,0.00031193,-0.00022161,-0.00016258,-0.00000852,-0.00002125,-0.00
 000244,0.00001751,0.00001328,0.00004633,-0.00012272,-0.00010190,0.0000
 1953,-0.00153369,-0.00033022,0.00040845,0.00009525,0.00008783,-0.00002
 386,-0.00228746,0.00083396,0.00087035,0.00036233,-0.00000148,0.0000024
 8,-0.00000029,0.00000185,0.00000008,0.00000560,0.00000636,-0.00000485,
 -0.00000087,-0.00000104,-0.00000061,-0.00000043,-0.00001324,-0.0000568
 9,-0.00000200,-0.00000063,0.00000210,-0.00000350,-0.00000001,0.0000021
 3,-0.00000368,-0.00000239,-0.00000429,-0.00000745,-0.00001771,0.000000
 74,0.00001037,0.00000334,-0.00002343,0.00008398,0.00002386,-0.00002567
 ,0.00000482,-0.00002915,-0.00003209,0.00133153,0.00005542,-0.00022210,
 0.12932936,0.13625778,-0.00001357,0.00001775,0.00000370,0.00001540,-0.
 00003564,0.00001180,-0.00000817,0.00006882,-0.00000478,-0.00007947,-0.
 00000122,-0.00000673,0.00003836,0.00009069,0.00002057,0.00003655,-0.00
 000854,0.00001413,-0.00043478,0.00002065,-0.00043541,-0.00006749,-0.00
 006338,-0.00002168,0.00023455,-0.00028625,0.00007872,0.00002797,-0.000
 03027,0.00000140,0.00006247,-0.00012226,-0.00002715,-0.00001010,0.0000
 3557,0.00000095,0.00042622,0.00033404,-0.00077150,0.00006225,0.0001052
 3,0.00008044,-0.00010198,0.00006897,-0.00007596,0.00094388,-0.00033236
 ,-0.00068023,0.00104731,-0.00233079,0.00910285,-0.00039019,0.00032904,
 0.00034999,-0.00044702,-0.00147552,0.00293122,0.00173641,0.00196709,0.
 00492630,-0.00510257,-0.00135889,0.00211552,-0.02098320,-0.01975996,-0
 .03943484,0.00009035,-0.00008529,-0.00000743,0.00001130,-0.00001349,0.
 00000941,-0.00000799,-0.00002749,-0.00000955,-0.00003825,-0.00001117,-
 0.00000777,-0.00030517,-0.00026062,0.00018915,-0.00012418,-0.00001729,
 0.00002748,-0.00069098,0.00023543,-0.00188555,0.00013698,0.00022634,-0
 .00006686,-0.00000045,0.00000047,0.00000275,0.00000613,0.00000210,0.00
 001621,-0.00000402,-0.00000130,-0.00000497,-0.00003597,-0.00007358,0.0
 0025294,-0.00000264,0.00000021,-0.00000370,-0.00000063,-0.00000219,-0.
 00000153,-0.00000090,-0.00000077,0.00000191,-0.00000374,-0.00000269,0.
 00000420,-0.00000386,0.00000416,0.00001084,0.00002327,-0.00000368,0.00
 001959,0.00001428,-0.00002365,0.00005964,0.00031116,-0.00011967,0.0002
 4520,0.02360799,0.02163915,0.02839679,0.00000503,-0.00001001,0.0000070
 1,0.00001157,-0.00000358,0.00000058,-0.00003224,0.00004025,0.00000782,
 -0.00000103,-0.00018373,0.00000248,-0.00031558,0.00000872,-0.00011988,
 -0.00004259,0.00004177,-0.00001964,0.00040076,-0.00137549,-0.00010052,
 -0.00001376,0.00013759,0.00002128,0.00009024,-0.00010961,-0.00001684,-
 0.00001632,-0.00001942,0.00000421,-0.00002835,-0.00002728,-0.00001073,
 0.00000047,0.00000765,0.00000312,0.00005962,0.00037723,0.00012200,0.00
 001468,-0.00002294,-0.00000021,-0.00000979,-0.00001210,-0.00000689,-0.
 00443317,-0.00120642,-0.00076621,0.00404034,-0.02542955,-0.00500090,0.
 00118874,-0.00178685,-0.00025107,-0.00060325,0.00010313,-0.00000471,-0
 .05807465,0.00991437,0.00141715,-0.00464192,0.00105681,0.00020304,0.00
 275954,0.02944933,0.00585876,-0.00003409,0.00001374,0.00000652,-0.0000
 0121,0.00000906,-0.00000117,0.00000763,-0.00001096,-0.00000161,0.00002
 345,0.00001706,-0.00000801,0.00020774,-0.00005028,0.00001100,-0.000105
 91,-0.00008366,-0.00002247,0.00060612,0.00112337,0.00015720,-0.0003717
 8,0.00019396,0.00014675,-0.00000198,-0.00000254,0.00000013,0.00000331,
 0.00000666,-0.00000148,-0.00002024,0.00000072,-0.00000013,-0.00051629,
 0.00067877,0.00013240,-0.00000406,0.00000195,-0.00000062,0.00000082,-0
 .00000167,-0.00000196,0.00000294,-0.00000182,0.00000160,0.00000074,0.0
 0000377,0.00000095,0.00000401,-0.00000677,0.00001163,0.00000802,0.0000
 0838,-0.00001130,-0.00001808,0.00013533,0.00005347,-0.00005094,-0.0000
 3026,-0.00002103,0.00090307,-0.00026666,0.00000591,0.05900019,0.000005
 74,-0.00001763,0.00000868,-0.00000617,0.00000671,-0.00000713,-0.000004
 80,0.00001130,0.00000457,0.00000187,-0.00012312,-0.00000404,-0.0001774
 7,0.00005932,-0.00004922,-0.00002700,-0.00000888,-0.00001232,0.0005759
 7,-0.00083327,-0.00004733,-0.00000495,0.00012543,0.00004142,0.00003739
 ,0.00024837,0.00003871,-0.00003961,0.00000268,0.00000495,-0.00006375,0
 .00008016,0.00000323,0.00001030,-0.00003051,-0.00000275,-0.00054457,0.
 00013986,0.00002155,-0.00006078,-0.00012656,-0.00001635,0.00014319,-0.
 00004218,-0.00003403,-0.00272536,0.00084526,-0.00097266,0.00287879,-0.
 01255675,-0.00288728,0.00208037,0.00048773,0.00066381,-0.00011417,0.00
 032905,0.00012473,0.01065773,-0.32082969,-0.05832361,0.00224778,0.0017
 9343,-0.00162495,-0.00186250,-0.01055990,-0.00306276,0.00002721,0.0000
 1633,-0.00001041,-0.00001053,-0.00000275,-0.00000135,0.00000785,0.0000
 0816,-0.00000237,0.00000082,-0.00002282,0.00001176,0.00001239,-0.00005
 230,0.00019314,0.00000407,0.00005280,0.00000210,-0.00031392,-0.0006777
 3,-0.00012870,0.00032556,-0.00008469,0.00006938,-0.00001060,-0.0000020
 3,-0.00000005,-0.00001183,0.00000024,0.00000336,-0.00001766,0.00001961
 ,0.00000481,-0.00063461,0.00071377,0.00003041,-0.00000616,-0.00000404,
 0.00000056,-0.00000300,-0.00000512,0.00000151,-0.00000363,-0.00000482,
 0.00000206,0.00000228,-0.00000819,0.00000147,0.00000485,0.00000126,-0.
 00000164,0.00000230,-0.00001400,-0.00002353,0.00000456,-0.00006990,-0.
 00002530,0.00002656,0.00002372,-0.00002699,0.00027327,0.00064839,0.001
 29550,-0.01268376,0.34045799,0.00000046,-0.00000541,-0.00000323,0.0000
 1066,-0.00000019,-0.00000443,-0.00000834,0.00001088,-0.00001220,0.0000
 1135,-0.00003415,0.00000517,-0.00006963,-0.00000670,0.00002043,-0.0000
 1123,0.00001406,0.00001121,0.00015519,-0.00024063,0.00014568,0.0000062
 6,0.00003033,0.00003259,-0.00001123,0.00005427,-0.00003374,-0.00000723
 ,-0.00000492,-0.00000399,-0.00001484,-0.00000147,-0.00001633,0.0000059
 1,0.00000087,0.00000561,-0.00005644,0.00010036,-0.00012170,0.00000239,
 -0.00000242,0.00001140,-0.00001299,-0.00003378,0.00004175,-0.00108746,
 -0.00059295,0.00370025,0.00083724,-0.00382040,0.00196520,0.00043441,0.
 00043903,-0.00180813,-0.00028406,0.00000510,-0.00062007,0.00128126,-0.
 05782971,-0.04854998,0.00086223,-0.00139198,0.00934910,0.00012712,-0.0
 0311573,0.00411512,-0.00000635,0.00004324,-0.00001746,-0.00000385,-0.0
 0000358,-0.00000261,0.00000553,0.00000552,-0.00001187,0.00001579,0.000
 00975,0.00000718,-0.00006872,0.00020506,-0.00068033,0.00012111,-0.0000
 0979,0.00008305,-0.00014499,0.00015128,0.00012369,-0.00008138,0.000049
 49,-0.00067409,-0.00000107,-0.00000040,0.00000384,-0.00000354,0.000000
 97,-0.00000823,-0.00000194,-0.00000021,0.00001450,-0.00018831,0.000043
 97,0.00026967,-0.00000089,-0.00000030,-0.00000096,-0.00000030,0.000000
 39,0.00000497,-0.00000134,-0.00000088,0.00000273,0.00000014,0.00000084
 ,0.00000159,-0.00000188,0.00000167,0.00001083,0.00001747,-0.00001291,0
 .00005914,-0.00000541,-0.00001610,-0.00000324,0.00002714,-0.00004652,0
 .00017926,-0.00002448,0.00127026,-0.00546892,-0.00182181,0.06474175,0.
 03791510,-0.00003504,0.00012494,0.00016889,0.00009601,-0.00000429,-0.0
 0001255,-0.00007978,0.00006413,-0.00002948,-0.00002914,0.00002688,-0.0
 0013894,-0.00031174,-0.00033442,0.00009147,-0.00072185,-0.00089710,0.0
 0097041,0.00038179,0.00059578,0.00052447,0.00010847,-0.00004689,0.0000
 5576,-0.00008006,0.00007024,-0.00005545,0.00008679,-0.00003307,-0.0000
 0295,-0.00006873,-0.00006325,0.00000708,-0.00000753,0.00007558,-0.0000
 0345,0.00022958,0.00002149,0.00001992,0.00009991,0.00004022,-0.0000037
 6,-0.00012979,0.00000894,-0.00000415,-0.00178880,0.00137494,0.00050690
 ,0.00001788,-0.00055047,0.00002467,-0.00022488,0.00002443,-0.00003469,
 0.00099161,-0.00513823,-0.00418181,0.00033569,0.00018257,0.00003761,0.
 00088353,0.00027673,-0.00030231,-0.00019170,0.00024295,0.00000109,0.00
 103432,0.00069464,-0.00014817,-0.00004392,-0.00032519,0.00000499,-0.00
 008980,0.00006596,-0.00025146,-0.00013908,-0.00048722,0.00016211,0.004
 35169,-0.00020775,0.01199207,-0.01227711,0.00148128,-0.00553866,-0.000
 25415,-0.00170153,0.00019783,0.00163809,0.00366979,-0.00039079,-0.0000
 0039,0.00000379,0.00000119,-0.00000167,0.00000270,0.00000228,0.0000020
 6,-0.00000209,0.00000262,-0.00000686,-0.00000004,0.00000447,0.00000105
 ,-0.00000158,0.00000866,-0.00000695,0.00000033,0.00000306,-0.00001801,
 0.00001235,0.00001627,-0.00001201,-0.00003251,0.00002245,-0.00013186,0
 .00006659,0.00010099,0.00023993,-0.00031220,0.00046619,0.00017311,0.00
 005668,0.00019040,0.00003996,0.00001593,-0.00001258,0.00000124,0.00002
 362,0.00001857,-0.00000179,-0.00000403,-0.00000196,0.00593993,0.000122
 29,0.00035947,-0.00005106,0.00009561,0.00002040,0.00003421,-0.00008090
 ,-0.00001859,-0.00002155,0.00020212,0.00000436,0.00003592,-0.00016360,
 -0.00019618,0.00003694,-0.00036899,-0.00031534,0.00082262,-0.00029481,
 0.00002596,0.00002524,-0.00006933,0.00003545,-0.00001488,0.00008883,-0
 .00006041,0.00001252,0.00006747,-0.00002659,-0.00000548,0.00004624,-0.
 00007684,0.00000325,-0.00002599,0.00003675,0.00000047,0.00001144,0.000
 11174,0.00000818,0.00001004,0.00007487,0.00000319,-0.00002499,0.000002
 16,0.00000959,-0.00006638,-0.00056014,-0.00099370,-0.00004765,0.000303
 17,0.00006479,-0.00012474,-0.00002784,-0.00000800,-0.00068828,-0.00187
 173,-0.00415670,-0.00019096,-0.00014495,-0.00000260,0.00033173,-0.0000
 3464,-0.00023908,0.00024049,-0.00022756,0.00005918,-0.00058653,-0.0023
 7029,0.00410759,0.00026885,-0.00032964,0.00010331,-0.00044284,-0.00032
 503,-0.00023489,-0.00028652,0.00087556,0.00012667,-0.00128358,-0.00221
 139,-0.00193823,0.00251159,0.00075366,0.00068886,0.00006145,0.00055371
 ,0.00029753,-0.00014425,-0.00088714,0.00018043,0.00000152,0.00000228,0
 .00000036,0.00000141,0.00000157,-0.00000094,-0.00000085,0.00000039,0.0
 0000118,-0.00000099,0.00000089,0.00000410,-0.00000170,0.00000003,0.000
 00244,-0.00000120,-0.00000351,-0.00000499,0.00000491,0.00000020,0.0000
 0899,-0.00001217,-0.00002920,-0.00000724,0.00001074,0.00002408,0.00005
 525,-0.00002908,0.00002066,-0.00005620,-0.00004197,-0.00001254,-0.0000
 4015,-0.00000976,0.00000818,-0.00001512,-0.00000279,-0.00000213,0.0000
 0675,-0.00000429,0.00000531,-0.00000795,0.00091839,0.00651083,-0.00086
 905,-0.00109993,0.00018815,0.00016548,0.00015520,-0.00002203,0.0000404
 8,-0.00002253,0.00001194,0.00026974,0.00001840,-0.00000493,-0.00078881
 ,-0.00053418,0.00009637,-0.00033127,0.00100139,-0.00133455,0.00085284,
 0.00130436,0.00106985,-0.00014116,0.00011775,-0.00004585,-0.00001854,-
 0.00001670,0.00018225,-0.00002085,0.00004313,0.00000494,0.00013088,-0.
 00012806,-0.00004371,-0.00002298,-0.00003739,0.00000635,0.00048643,0.0
 0013333,0.00001590,0.00020762,0.00014585,0.00002601,-0.00029718,0.0000
 2526,-0.00000743,-0.00533840,0.00234270,0.00007369,-0.00025279,-0.0013
 4358,-0.00004737,-0.00062167,-0.00002286,-0.00007789,-0.00015883,-0.01
 927462,-0.01401707,0.00087871,0.00005757,0.00010591,0.00417919,0.00071
 926,-0.00196980,-0.00031717,0.00056249,0.00025400,0.00265881,0.0088973
 0,-0.01211620,-0.00079031,0.00020977,-0.00032930,0.00102260,0.00111865
 ,-0.00015368,0.00081382,-0.00300073,0.00007853,0.02524137,0.00010990,0
 .04253041,-0.02602686,0.00332276,-0.00378964,-0.00198529,-0.00493271,-
 0.00022120,0.00529733,0.00914143,-0.00015821,0.00000287,-0.00000017,-0
 .00000265,0.00000289,0.00000732,0.00000203,0.00000273,-0.00000808,-0.0
 0000220,-0.00001841,0.00000119,0.00000258,0.00000361,0.00000405,-0.000
 00189,-0.00000401,0.00001557,0.00003189,-0.00003377,0.00004529,0.00003
 410,-0.00000318,0.00005614,0.00014845,-0.00031295,0.00007010,0.0002546
 7,0.00029084,-0.00054891,0.00100758,0.00020466,0.00021832,0.00011131,0
 .00009339,0.00001111,0.00002072,-0.00001777,0.00002032,0.00004082,0.00
 001418,-0.00000469,-0.00003755,-0.00448924,0.00109921,-0.01191530\\0.0
 0000049,-0.00000028,0.00000046,0.00000064,-0.00000046,-0.00000087,0.00
 000061,-0.00000076,-0.00000199,0.00000066,-0.00000065,-0.00000160,0.00
 000037,-0.00000053,-0.00000041,0.00000040,0.00000011,0.00000070,0.0000
 0034,0.00000004,-0.00000054,0.00000022,-0.00000071,-0.00000270,-0.0000
 0008,-0.00000040,-0.00000196,0.00000043,-0.00000095,-0.00000340,-0.000
 00005,-0.00000090,-0.00000399,0.00000011,-0.00000105,-0.00000433,-0.00
 000053,-0.00000031,-0.00000272,-0.00000054,-0.00000081,-0.00000473,-0.
 00000090,-0.00000053,-0.00000409,-0.00000111,0.00000054,0.00000023,-0.
 00000085,0.00000003,-0.00000050,-0.00000106,0.00000001,-0.00000182,0.0
 0000002,-0.00000222,0.00000059,-0.00000098,0.00000060,0.00000037,0.000
 00039,0.00000072,0.00000211,-0.00000097,0.00000096,0.00000177,0.000000
 60,0.00000127,0.00000053,0.00000036,0.00000021,0.00000152,0.00000036,0
 .00000067,0.00000274,0.00000034,0.00000035,0.00000305,0.00000438,0.000
 00063,0.00000895,-0.00000261,0.00000094,0.00000400,-0.00000042,0.00000
 014,0.00000368,0.00000126,0.00000206,0.00000451,-0.00000005,-0.0000012
 0,-0.00000540,-0.00000080,-0.00000095,-0.00000582,-0.00000127,-0.00000
 050,-0.00000474,-0.00000144,0.00000013,-0.00000227,0.00000049,-0.00000
 107,-0.00000373,0.00000065,-0.00000052,-0.00000098,0.00000052,0.000000
 07,0.00000138,0.00000009,0.00000079,0.00000360,-0.00000011,0.00000093,
 0.00000400,0.00000126,0.00000038,0.00000448,0.00000094,0.00000087,0.00
 000554,-0.00000016,0.00000108,0.00000431,-0.00000110,0.00000104,0.0000
 0233,-0.00000155,0.00000067,-0.00000012,0.00000066,-0.00000042,-0.0000
 0216\\\@


 SIC AS THE CAWSE OF EWERY THING IS, SIC WILBE THE EFFECT.
 -- PROVERBS AND REASONS OF THE YEAR 1585
           AS REPRINTED IN PAISLEY MAGAZINE 1828.
 Job cpu time:       2 days  8 hours  8 minutes 53.2 seconds.
 Elapsed time:       0 days  2 hours 48 minutes 55.3 seconds.
 File lengths (MBytes):  RWF=   4299 Int=      0 D2E=      0 Chk=     63 Scr=      1
 Normal termination of Gaussian 16 at Wed Jun 12 20:30:12 2019.
