 Entering Gaussian System, Link 0=/share/apps/gaussian16/g16/g16
 Initial command:
 /share/apps/gaussian16/g16/l1.exe "/home/amen01//scratch/506/Gau-18368.inp" -scrdir="/home/amen01//scratch/506/"
 Entering Link 1 = /share/apps/gaussian16/g16/l1.exe PID=     18369.
  
 Copyright (c) 1988-2017, Gaussian, Inc.  All Rights Reserved.
  
 This is part of the Gaussian(R) 16 program.  It is based on
 the Gaussian(R) 09 system (copyright 2009, Gaussian, Inc.),
 the Gaussian(R) 03 system (copyright 2003, Gaussian, Inc.),
 the Gaussian(R) 98 system (copyright 1998, Gaussian, Inc.),
 the Gaussian(R) 94 system (copyright 1995, Gaussian, Inc.),
 the Gaussian 92(TM) system (copyright 1992, Gaussian, Inc.),
 the Gaussian 90(TM) system (copyright 1990, Gaussian, Inc.),
 the Gaussian 88(TM) system (copyright 1988, Gaussian, Inc.),
 the Gaussian 86(TM) system (copyright 1986, Carnegie Mellon
 University), and the Gaussian 82(TM) system (copyright 1983,
 Carnegie Mellon University). Gaussian is a federally registered
 trademark of Gaussian, Inc.
  
 This software contains proprietary and confidential information,
 including trade secrets, belonging to Gaussian, Inc.
  
 This software is provided under written license and may be
 used, copied, transmitted, or stored only in accord with that
 written license.
  
 The following legend is applicable only to US Government
 contracts under FAR:
  
                    RESTRICTED RIGHTS LEGEND
  
 Use, reproduction and disclosure by the US Government is
 subject to restrictions as set forth in subparagraphs (a)
 and (c) of the Commercial Computer Software - Restricted
 Rights clause in FAR 52.227-19.
  
 Gaussian, Inc.
 340 Quinnipiac St., Bldg. 40, Wallingford CT 06492
  
  
 ---------------------------------------------------------------
 Warning -- This program may not be used in any manner that
 competes with the business of Gaussian, Inc. or will provide
 assistance to any competitor of Gaussian, Inc.  The licensee
 of this program is prohibited from giving any competitor of
 Gaussian, Inc. access to this program.  By using this program,
 the user acknowledges that Gaussian, Inc. is engaged in the
 business of creating and licensing software in the field of
 computational chemistry and represents and warrants to the
 licensee that it is not a competitor of Gaussian, Inc. and that
 it will not use this program in any manner prohibited above.
 ---------------------------------------------------------------
  

 Cite this work as:
 Gaussian 16, Revision B.01,
 M. J. Frisch, G. W. Trucks, H. B. Schlegel, G. E. Scuseria, 
 M. A. Robb, J. R. Cheeseman, G. Scalmani, V. Barone, 
 G. A. Petersson, H. Nakatsuji, X. Li, M. Caricato, A. V. Marenich, 
 J. Bloino, B. G. Janesko, R. Gomperts, B. Mennucci, H. P. Hratchian, 
 J. V. Ortiz, A. F. Izmaylov, J. L. Sonnenberg, D. Williams-Young, 
 F. Ding, F. Lipparini, F. Egidi, J. Goings, B. Peng, A. Petrone, 
 T. Henderson, D. Ranasinghe, V. G. Zakrzewski, J. Gao, N. Rega, 
 G. Zheng, W. Liang, M. Hada, M. Ehara, K. Toyota, R. Fukuda, 
 J. Hasegawa, M. Ishida, T. Nakajima, Y. Honda, O. Kitao, H. Nakai, 
 T. Vreven, K. Throssell, J. A. Montgomery, Jr., J. E. Peralta, 
 F. Ogliaro, M. J. Bearpark, J. J. Heyd, E. N. Brothers, K. N. Kudin, 
 V. N. Staroverov, T. A. Keith, R. Kobayashi, J. Normand, 
 K. Raghavachari, A. P. Rendell, J. C. Burant, S. S. Iyengar, 
 J. Tomasi, M. Cossi, J. M. Millam, M. Klene, C. Adamo, R. Cammi, 
 J. W. Ochterski, R. L. Martin, K. Morokuma, O. Farkas, 
 J. B. Foresman, and D. J. Fox, Gaussian, Inc., Wallingford CT, 2016.
 
 ******************************************
 Gaussian 16:  ES64L-G16RevB.01 20-Dec-2017
                14-Jun-2019 
 ******************************************
 %nprocshared=20
 Will use up to   20 processors via shared memory.
 %mem=100GB
 %chk=7-memb-haddTSguess-3a.chk
 ---------------------------------------------------------------
 # opt=(ts,calcfc,noeigen) freq b3lyp/6-311+g(d,p) int=grid=fine
 ---------------------------------------------------------------
 1/5=1,10=4,11=1,18=20,26=3,38=1/1,3;
 2/9=110,12=2,17=6,18=5,40=1/2;
 3/5=4,6=6,7=111,11=2,25=1,30=1,71=2,74=-5,75=-4,140=1/1,2,3;
 4//1;
 5/5=2,38=5/2;
 8/6=4,10=90,11=11/1;
 11/6=1,8=1,9=11,15=111,16=1/1,2,10;
 10/6=1,13=1/2;
 6/7=2,8=2,9=2,10=2,28=1/1;
 7/10=1,18=20,25=1/1,2,3,16;
 1/5=1,10=4,11=1,18=20,26=3/3(2);
 2/9=110/2;
 99//99;
 2/9=110/2;
 3/5=4,6=6,7=111,11=2,25=1,30=1,71=1,74=-5,75=-4/1,2,3;
 4/5=5,16=3,69=1/1;
 5/5=2,38=5/2;
 7//1,2,3,16;
 1/5=1,11=1,18=20,26=3/3(-5);
 2/9=110/2;
 6/7=2,8=2,9=2,10=2,19=2,28=1/1;
 99/9=1/99;
 ---------------------
 7-memb-haddTSguess-3a
 ---------------------
 Symbolic Z-matrix:
 Charge =  0 Multiplicity = 2
 C                     1.63322  -2.81103  -0.08572 
 C                     1.45234  -1.45341   0.1627 
 C                     2.53762  -0.57721   0.31111 
 C                     3.86362  -0.92049   0.16981 
 C                     3.02254  -3.23043  -0.14567 
 C                     4.07591  -2.3414   -0.03205 
 C                     2.04122   0.72498   0.35382 
 C                     2.86645   1.82895   0.2225 
 C                     4.27793   1.51819   0.169 
 C                     4.75497   0.21424   0.1459 
 C                     0.62751   0.69264   0.23202 
 C                    -0.04705   1.85615  -0.00544 
 C                     0.76275   3.05681  -0.1078 
 C                     2.15772   3.04392   0.01354 
 C                     0.42982  -3.50959  -0.29363 
 C                    -0.81578  -2.84204  -0.26252 
 C                    -0.94474  -1.39929  -0.08527 
 C                     0.25131  -0.72555   0.1232 
 C                     0.09271   4.30642  -0.45209 
 C                    -1.52489   1.85119  -0.38937 
 C                    -2.14244   3.25187  -0.14785 
 C                    -1.23954   4.39826  -0.50468 
 C                    -2.01864  -3.61257  -0.37589 
 C                    -3.22853  -3.02796  -0.22369 
 C                    -3.37835  -1.61398   0.00318 
 C                    -2.2463   -0.74397  -0.02438 
 C                    -2.46225   0.69253   0.12896 
 C                    -3.77868   1.08931   0.42406 
 C                    -4.67251  -1.12502   0.26675 
 C                    -4.85925   0.21184   0.52189 
 H                    -5.84225   0.60126   0.76111 
 H                    -3.99472   2.13192   0.5842 
 H                    -1.78968   0.86352   2.06034 
 H                    -5.5046   -1.82017   0.28316 
 H                    -4.1329   -3.62601  -0.25622 
 H                    -1.93905  -4.68169  -0.54109 
 H                     0.42736  -4.57994  -0.47508 
 H                     3.24647  -4.27851  -0.31641 
 H                     5.08757  -2.72374  -0.12387 
 H                     5.8259    0.05685   0.06703 
 H                     4.99484   2.33048   0.10379 
 H                     2.69178   3.97971  -0.12053 
 H                     0.7136    5.17022  -0.66793 
 H                    -1.7126    5.34373  -0.75022 
 H                    -1.52194   1.70925  -1.48299 
 H                    -3.07125   3.34734  -0.71324 
 H                    -2.41062   3.35579   0.91359 
 
 Add virtual bond connecting atoms H33        and C27        Dist= 3.88D+00.

 GradGradGradGradGradGradGradGradGradGradGradGradGradGradGradGradGradGrad
 Berny optimization.
 Initialization pass.
                           ----------------------------
                           !    Initial Parameters    !
                           ! (Angstroms and Degrees)  !
 --------------------------                            --------------------------
 ! Name  Definition              Value          Derivative Info.                !
 --------------------------------------------------------------------------------
 ! R1    R(1,2)                  1.392          calculate D2E/DX2 analytically  !
 ! R2    R(1,5)                  1.4525         calculate D2E/DX2 analytically  !
 ! R3    R(1,15)                 1.4069         calculate D2E/DX2 analytically  !
 ! R4    R(2,3)                  1.4027         calculate D2E/DX2 analytically  !
 ! R5    R(2,18)                 1.4049         calculate D2E/DX2 analytically  !
 ! R6    R(3,4)                  1.377          calculate D2E/DX2 analytically  !
 ! R7    R(3,7)                  1.3943         calculate D2E/DX2 analytically  !
 ! R8    R(4,6)                  1.4508         calculate D2E/DX2 analytically  !
 ! R9    R(4,10)                 1.4432         calculate D2E/DX2 analytically  !
 ! R10   R(5,6)                  1.3831         calculate D2E/DX2 analytically  !
 ! R11   R(5,38)                 1.0852         calculate D2E/DX2 analytically  !
 ! R12   R(6,39)                 1.0854         calculate D2E/DX2 analytically  !
 ! R13   R(7,8)                  1.3846         calculate D2E/DX2 analytically  !
 ! R14   R(7,11)                 1.4193         calculate D2E/DX2 analytically  !
 ! R15   R(8,9)                  1.4463         calculate D2E/DX2 analytically  !
 ! R16   R(8,14)                 1.422          calculate D2E/DX2 analytically  !
 ! R17   R(9,10)                 1.3887         calculate D2E/DX2 analytically  !
 ! R18   R(9,41)                 1.0854         calculate D2E/DX2 analytically  !
 ! R19   R(10,40)                1.0853         calculate D2E/DX2 analytically  !
 ! R20   R(11,12)                1.3657         calculate D2E/DX2 analytically  !
 ! R21   R(11,18)                1.4713         calculate D2E/DX2 analytically  !
 ! R22   R(12,13)                1.4518         calculate D2E/DX2 analytically  !
 ! R23   R(12,20)                1.5269         calculate D2E/DX2 analytically  !
 ! R24   R(13,14)                1.4003         calculate D2E/DX2 analytically  !
 ! R25   R(13,19)                1.4591         calculate D2E/DX2 analytically  !
 ! R26   R(14,42)                1.0858         calculate D2E/DX2 analytically  !
 ! R27   R(15,16)                1.4135         calculate D2E/DX2 analytically  !
 ! R28   R(15,37)                1.0856         calculate D2E/DX2 analytically  !
 ! R29   R(16,17)                1.4593         calculate D2E/DX2 analytically  !
 ! R30   R(16,23)                1.433          calculate D2E/DX2 analytically  !
 ! R31   R(17,18)                1.3885         calculate D2E/DX2 analytically  !
 ! R32   R(17,26)                1.4585         calculate D2E/DX2 analytically  !
 ! R33   R(19,22)                1.3364         calculate D2E/DX2 analytically  !
 ! R34   R(19,43)                1.0855         calculate D2E/DX2 analytically  !
 ! R35   R(20,21)                1.5497         calculate D2E/DX2 analytically  !
 ! R36   R(20,27)                1.5779         calculate D2E/DX2 analytically  !
 ! R37   R(20,45)                1.1028         calculate D2E/DX2 analytically  !
 ! R38   R(21,22)                1.5023         calculate D2E/DX2 analytically  !
 ! R39   R(21,46)                1.0915         calculate D2E/DX2 analytically  !
 ! R40   R(21,47)                1.0997         calculate D2E/DX2 analytically  !
 ! R41   R(22,44)                1.0854         calculate D2E/DX2 analytically  !
 ! R42   R(23,24)                1.3523         calculate D2E/DX2 analytically  !
 ! R43   R(23,36)                1.0847         calculate D2E/DX2 analytically  !
 ! R44   R(24,25)                1.4399         calculate D2E/DX2 analytically  !
 ! R45   R(24,35)                1.0847         calculate D2E/DX2 analytically  !
 ! R46   R(25,26)                1.428          calculate D2E/DX2 analytically  !
 ! R47   R(25,29)                1.4083         calculate D2E/DX2 analytically  !
 ! R48   R(26,27)                1.4607         calculate D2E/DX2 analytically  !
 ! R49   R(27,28)                1.4062         calculate D2E/DX2 analytically  !
 ! R50   R(27,33)                2.0523         calculate D2E/DX2 analytically  !
 ! R51   R(28,30)                1.3954         calculate D2E/DX2 analytically  !
 ! R52   R(28,32)                1.0767         calculate D2E/DX2 analytically  !
 ! R53   R(29,30)                1.3737         calculate D2E/DX2 analytically  !
 ! R54   R(29,34)                1.0844         calculate D2E/DX2 analytically  !
 ! R55   R(30,31)                1.084          calculate D2E/DX2 analytically  !
 ! A1    A(2,1,5)              114.4116         calculate D2E/DX2 analytically  !
 ! A2    A(2,1,15)             113.5469         calculate D2E/DX2 analytically  !
 ! A3    A(5,1,15)             131.9655         calculate D2E/DX2 analytically  !
 ! A4    A(1,2,3)              121.8423         calculate D2E/DX2 analytically  !
 ! A5    A(1,2,18)             127.6882         calculate D2E/DX2 analytically  !
 ! A6    A(3,2,18)             109.9239         calculate D2E/DX2 analytically  !
 ! A7    A(2,3,4)              125.3434         calculate D2E/DX2 analytically  !
 ! A8    A(2,3,7)              108.1306         calculate D2E/DX2 analytically  !
 ! A9    A(4,3,7)              125.3684         calculate D2E/DX2 analytically  !
 ! A10   A(3,4,6)              113.5377         calculate D2E/DX2 analytically  !
 ! A11   A(3,4,10)             113.6066         calculate D2E/DX2 analytically  !
 ! A12   A(6,4,10)             132.6412         calculate D2E/DX2 analytically  !
 ! A13   A(1,5,6)              122.6493         calculate D2E/DX2 analytically  !
 ! A14   A(1,5,38)             118.8634         calculate D2E/DX2 analytically  !
 ! A15   A(6,5,38)             118.4607         calculate D2E/DX2 analytically  !
 ! A16   A(4,6,5)              121.9745         calculate D2E/DX2 analytically  !
 ! A17   A(4,6,39)             119.5491         calculate D2E/DX2 analytically  !
 ! A18   A(5,6,39)             118.4567         calculate D2E/DX2 analytically  !
 ! A19   A(3,7,8)              121.9775         calculate D2E/DX2 analytically  !
 ! A20   A(3,7,11)             109.3125         calculate D2E/DX2 analytically  !
 ! A21   A(8,7,11)             127.1349         calculate D2E/DX2 analytically  !
 ! A22   A(7,8,9)              114.448          calculate D2E/DX2 analytically  !
 ! A23   A(7,8,14)             113.4616         calculate D2E/DX2 analytically  !
 ! A24   A(9,8,14)             131.6485         calculate D2E/DX2 analytically  !
 ! A25   A(8,9,10)             122.523          calculate D2E/DX2 analytically  !
 ! A26   A(8,9,41)             119.0808         calculate D2E/DX2 analytically  !
 ! A27   A(10,9,41)            118.349          calculate D2E/DX2 analytically  !
 ! A28   A(4,10,9)             121.7268         calculate D2E/DX2 analytically  !
 ! A29   A(4,10,40)            119.7779         calculate D2E/DX2 analytically  !
 ! A30   A(9,10,40)            118.4476         calculate D2E/DX2 analytically  !
 ! A31   A(7,11,12)            119.1759         calculate D2E/DX2 analytically  !
 ! A32   A(7,11,18)            106.4392         calculate D2E/DX2 analytically  !
 ! A33   A(12,11,18)           133.0038         calculate D2E/DX2 analytically  !
 ! A34   A(11,12,13)           116.1869         calculate D2E/DX2 analytically  !
 ! A35   A(11,12,20)           121.2658         calculate D2E/DX2 analytically  !
 ! A36   A(13,12,20)           121.6556         calculate D2E/DX2 analytically  !
 ! A37   A(12,13,14)           122.8155         calculate D2E/DX2 analytically  !
 ! A38   A(12,13,19)           117.9531         calculate D2E/DX2 analytically  !
 ! A39   A(14,13,19)           119.0643         calculate D2E/DX2 analytically  !
 ! A40   A(8,14,13)            121.1379         calculate D2E/DX2 analytically  !
 ! A41   A(8,14,42)            120.6226         calculate D2E/DX2 analytically  !
 ! A42   A(13,14,42)           118.1231         calculate D2E/DX2 analytically  !
 ! A43   A(1,15,16)            121.0636         calculate D2E/DX2 analytically  !
 ! A44   A(1,15,37)            121.0762         calculate D2E/DX2 analytically  !
 ! A45   A(16,15,37)           117.8584         calculate D2E/DX2 analytically  !
 ! A46   A(15,16,17)           123.1913         calculate D2E/DX2 analytically  !
 ! A47   A(15,16,23)           118.9471         calculate D2E/DX2 analytically  !
 ! A48   A(17,16,23)           117.8425         calculate D2E/DX2 analytically  !
 ! A49   A(16,17,18)           114.951          calculate D2E/DX2 analytically  !
 ! A50   A(16,17,26)           121.8802         calculate D2E/DX2 analytically  !
 ! A51   A(18,17,26)           122.9853         calculate D2E/DX2 analytically  !
 ! A52   A(2,18,11)            106.1837         calculate D2E/DX2 analytically  !
 ! A53   A(2,18,17)            119.2891         calculate D2E/DX2 analytically  !
 ! A54   A(11,18,17)           134.3542         calculate D2E/DX2 analytically  !
 ! A55   A(13,19,22)           121.7293         calculate D2E/DX2 analytically  !
 ! A56   A(13,19,43)           117.7607         calculate D2E/DX2 analytically  !
 ! A57   A(22,19,43)           120.51           calculate D2E/DX2 analytically  !
 ! A58   A(12,20,21)           110.0943         calculate D2E/DX2 analytically  !
 ! A59   A(12,20,27)           119.6533         calculate D2E/DX2 analytically  !
 ! A60   A(12,20,45)           104.3107         calculate D2E/DX2 analytically  !
 ! A61   A(21,20,27)           112.0716         calculate D2E/DX2 analytically  !
 ! A62   A(21,20,45)           105.7803         calculate D2E/DX2 analytically  !
 ! A63   A(27,20,45)           103.4641         calculate D2E/DX2 analytically  !
 ! A64   A(20,21,22)           114.4062         calculate D2E/DX2 analytically  !
 ! A65   A(20,21,46)           109.7195         calculate D2E/DX2 analytically  !
 ! A66   A(20,21,47)           109.4519         calculate D2E/DX2 analytically  !
 ! A67   A(22,21,46)           108.7623         calculate D2E/DX2 analytically  !
 ! A68   A(22,21,47)           107.6807         calculate D2E/DX2 analytically  !
 ! A69   A(46,21,47)           106.5096         calculate D2E/DX2 analytically  !
 ! A70   A(19,22,21)           122.5036         calculate D2E/DX2 analytically  !
 ! A71   A(19,22,44)           120.2162         calculate D2E/DX2 analytically  !
 ! A72   A(21,22,44)           117.1632         calculate D2E/DX2 analytically  !
 ! A73   A(16,23,24)           120.6399         calculate D2E/DX2 analytically  !
 ! A74   A(16,23,36)           118.7137         calculate D2E/DX2 analytically  !
 ! A75   A(24,23,36)           120.5884         calculate D2E/DX2 analytically  !
 ! A76   A(23,24,25)           122.3676         calculate D2E/DX2 analytically  !
 ! A77   A(23,24,35)           120.2782         calculate D2E/DX2 analytically  !
 ! A78   A(25,24,35)           117.3489         calculate D2E/DX2 analytically  !
 ! A79   A(24,25,26)           120.8481         calculate D2E/DX2 analytically  !
 ! A80   A(24,25,29)           117.7777         calculate D2E/DX2 analytically  !
 ! A81   A(26,25,29)           121.3705         calculate D2E/DX2 analytically  !
 ! A82   A(17,26,25)           115.7543         calculate D2E/DX2 analytically  !
 ! A83   A(17,26,27)           125.3224         calculate D2E/DX2 analytically  !
 ! A84   A(25,26,27)           118.6802         calculate D2E/DX2 analytically  !
 ! A85   A(20,27,26)           126.8569         calculate D2E/DX2 analytically  !
 ! A86   A(20,27,28)           114.6995         calculate D2E/DX2 analytically  !
 ! A87   A(20,27,33)            93.0541         calculate D2E/DX2 analytically  !
 ! A88   A(26,27,28)           115.9705         calculate D2E/DX2 analytically  !
 ! A89   A(26,27,33)            97.6015         calculate D2E/DX2 analytically  !
 ! A90   A(28,27,33)            94.9217         calculate D2E/DX2 analytically  !
 ! A91   A(27,28,30)           124.2086         calculate D2E/DX2 analytically  !
 ! A92   A(27,28,32)           119.4892         calculate D2E/DX2 analytically  !
 ! A93   A(30,28,32)           116.3014         calculate D2E/DX2 analytically  !
 ! A94   A(25,29,30)           119.8376         calculate D2E/DX2 analytically  !
 ! A95   A(25,29,34)           119.0384         calculate D2E/DX2 analytically  !
 ! A96   A(30,29,34)           121.1132         calculate D2E/DX2 analytically  !
 ! A97   A(28,30,29)           119.5812         calculate D2E/DX2 analytically  !
 ! A98   A(28,30,31)           119.4572         calculate D2E/DX2 analytically  !
 ! A99   A(29,30,31)           120.9196         calculate D2E/DX2 analytically  !
 ! D1    D(5,1,2,3)              1.2802         calculate D2E/DX2 analytically  !
 ! D2    D(5,1,2,18)           171.9271         calculate D2E/DX2 analytically  !
 ! D3    D(15,1,2,3)          -175.9345         calculate D2E/DX2 analytically  !
 ! D4    D(15,1,2,18)           -5.2875         calculate D2E/DX2 analytically  !
 ! D5    D(2,1,5,6)             -3.0898         calculate D2E/DX2 analytically  !
 ! D6    D(2,1,5,38)           178.8155         calculate D2E/DX2 analytically  !
 ! D7    D(15,1,5,6)           173.4755         calculate D2E/DX2 analytically  !
 ! D8    D(15,1,5,38)           -4.6193         calculate D2E/DX2 analytically  !
 ! D9    D(2,1,15,16)            0.9095         calculate D2E/DX2 analytically  !
 ! D10   D(2,1,15,37)         -178.5882         calculate D2E/DX2 analytically  !
 ! D11   D(5,1,15,16)         -175.6787         calculate D2E/DX2 analytically  !
 ! D12   D(5,1,15,37)            4.8235         calculate D2E/DX2 analytically  !
 ! D13   D(1,2,3,4)              3.3032         calculate D2E/DX2 analytically  !
 ! D14   D(1,2,3,7)            171.5126         calculate D2E/DX2 analytically  !
 ! D15   D(18,2,3,4)          -168.8344         calculate D2E/DX2 analytically  !
 ! D16   D(18,2,3,7)            -0.6249         calculate D2E/DX2 analytically  !
 ! D17   D(1,2,18,11)         -170.5673         calculate D2E/DX2 analytically  !
 ! D18   D(1,2,18,17)            5.321          calculate D2E/DX2 analytically  !
 ! D19   D(3,2,18,11)            0.9884         calculate D2E/DX2 analytically  !
 ! D20   D(3,2,18,17)          176.8767         calculate D2E/DX2 analytically  !
 ! D21   D(2,3,4,6)             -5.5657         calculate D2E/DX2 analytically  !
 ! D22   D(2,3,4,10)           169.797          calculate D2E/DX2 analytically  !
 ! D23   D(7,3,4,6)           -171.789          calculate D2E/DX2 analytically  !
 ! D24   D(7,3,4,10)             3.5738         calculate D2E/DX2 analytically  !
 ! D25   D(2,3,7,8)           -166.6556         calculate D2E/DX2 analytically  !
 ! D26   D(2,3,7,11)            -0.0218         calculate D2E/DX2 analytically  !
 ! D27   D(4,3,7,8)              1.5502         calculate D2E/DX2 analytically  !
 ! D28   D(4,3,7,11)           168.1839         calculate D2E/DX2 analytically  !
 ! D29   D(3,4,6,5)              3.5481         calculate D2E/DX2 analytically  !
 ! D30   D(3,4,6,39)          -178.0919         calculate D2E/DX2 analytically  !
 ! D31   D(10,4,6,5)          -170.672          calculate D2E/DX2 analytically  !
 ! D32   D(10,4,6,39)            7.688          calculate D2E/DX2 analytically  !
 ! D33   D(3,4,10,9)            -4.3053         calculate D2E/DX2 analytically  !
 ! D34   D(3,4,10,40)          178.2451         calculate D2E/DX2 analytically  !
 ! D35   D(6,4,10,9)           169.9117         calculate D2E/DX2 analytically  !
 ! D36   D(6,4,10,40)           -7.5379         calculate D2E/DX2 analytically  !
 ! D37   D(1,5,6,4)              0.6416         calculate D2E/DX2 analytically  !
 ! D38   D(1,5,6,39)          -177.7357         calculate D2E/DX2 analytically  !
 ! D39   D(38,5,6,4)           178.7436         calculate D2E/DX2 analytically  !
 ! D40   D(38,5,6,39)            0.3663         calculate D2E/DX2 analytically  !
 ! D41   D(3,7,8,9)             -5.6389         calculate D2E/DX2 analytically  !
 ! D42   D(3,7,8,14)           167.6377         calculate D2E/DX2 analytically  !
 ! D43   D(11,7,8,9)          -169.7567         calculate D2E/DX2 analytically  !
 ! D44   D(11,7,8,14)            3.5199         calculate D2E/DX2 analytically  !
 ! D45   D(3,7,11,12)         -167.6714         calculate D2E/DX2 analytically  !
 ! D46   D(3,7,11,18)            0.619          calculate D2E/DX2 analytically  !
 ! D47   D(8,7,11,12)           -1.9109         calculate D2E/DX2 analytically  !
 ! D48   D(8,7,11,18)          166.3795         calculate D2E/DX2 analytically  !
 ! D49   D(7,8,9,10)             4.7953         calculate D2E/DX2 analytically  !
 ! D50   D(7,8,9,41)          -177.7471         calculate D2E/DX2 analytically  !
 ! D51   D(14,8,9,10)         -166.9412         calculate D2E/DX2 analytically  !
 ! D52   D(14,8,9,41)           10.5164         calculate D2E/DX2 analytically  !
 ! D53   D(7,8,14,13)           -3.0174         calculate D2E/DX2 analytically  !
 ! D54   D(7,8,14,42)         -179.0212         calculate D2E/DX2 analytically  !
 ! D55   D(9,8,14,13)          168.7824         calculate D2E/DX2 analytically  !
 ! D56   D(9,8,14,42)           -7.2214         calculate D2E/DX2 analytically  !
 ! D57   D(8,9,10,4)             0.2004         calculate D2E/DX2 analytically  !
 ! D58   D(8,9,10,40)          177.6827         calculate D2E/DX2 analytically  !
 ! D59   D(41,9,10,4)         -177.2749         calculate D2E/DX2 analytically  !
 ! D60   D(41,9,10,40)           0.2074         calculate D2E/DX2 analytically  !
 ! D61   D(7,11,12,13)          -0.3325         calculate D2E/DX2 analytically  !
 ! D62   D(7,11,12,20)         169.0297         calculate D2E/DX2 analytically  !
 ! D63   D(18,11,12,13)       -164.8958         calculate D2E/DX2 analytically  !
 ! D64   D(18,11,12,20)          4.4664         calculate D2E/DX2 analytically  !
 ! D65   D(7,11,18,2)           -0.9733         calculate D2E/DX2 analytically  !
 ! D66   D(7,11,18,17)        -175.9559         calculate D2E/DX2 analytically  !
 ! D67   D(12,11,18,2)         165.0038         calculate D2E/DX2 analytically  !
 ! D68   D(12,11,18,17)         -9.9787         calculate D2E/DX2 analytically  !
 ! D69   D(11,12,13,14)          0.6111         calculate D2E/DX2 analytically  !
 ! D70   D(11,12,13,19)        175.863          calculate D2E/DX2 analytically  !
 ! D71   D(20,12,13,14)       -168.7063         calculate D2E/DX2 analytically  !
 ! D72   D(20,12,13,19)          6.5456         calculate D2E/DX2 analytically  !
 ! D73   D(11,12,20,21)        161.5394         calculate D2E/DX2 analytically  !
 ! D74   D(11,12,20,27)         29.5732         calculate D2E/DX2 analytically  !
 ! D75   D(11,12,20,45)        -85.3709         calculate D2E/DX2 analytically  !
 ! D76   D(13,12,20,21)        -29.6822         calculate D2E/DX2 analytically  !
 ! D77   D(13,12,20,27)       -161.6484         calculate D2E/DX2 analytically  !
 ! D78   D(13,12,20,45)         83.4075         calculate D2E/DX2 analytically  !
 ! D79   D(12,13,14,8)           1.1854         calculate D2E/DX2 analytically  !
 ! D80   D(12,13,14,42)        177.2863         calculate D2E/DX2 analytically  !
 ! D81   D(19,13,14,8)        -174.0161         calculate D2E/DX2 analytically  !
 ! D82   D(19,13,14,42)          2.0848         calculate D2E/DX2 analytically  !
 ! D83   D(12,13,19,22)          8.5619         calculate D2E/DX2 analytically  !
 ! D84   D(12,13,19,43)       -171.3859         calculate D2E/DX2 analytically  !
 ! D85   D(14,13,19,22)       -176.003          calculate D2E/DX2 analytically  !
 ! D86   D(14,13,19,43)          4.0492         calculate D2E/DX2 analytically  !
 ! D87   D(1,15,16,17)           3.1939         calculate D2E/DX2 analytically  !
 ! D88   D(1,15,16,23)        -175.1804         calculate D2E/DX2 analytically  !
 ! D89   D(37,15,16,17)       -177.2927         calculate D2E/DX2 analytically  !
 ! D90   D(37,15,16,23)          4.333          calculate D2E/DX2 analytically  !
 ! D91   D(15,16,17,18)         -3.2389         calculate D2E/DX2 analytically  !
 ! D92   D(15,16,17,26)       -178.4532         calculate D2E/DX2 analytically  !
 ! D93   D(23,16,17,18)        175.1522         calculate D2E/DX2 analytically  !
 ! D94   D(23,16,17,26)         -0.062          calculate D2E/DX2 analytically  !
 ! D95   D(15,16,23,24)        173.6968         calculate D2E/DX2 analytically  !
 ! D96   D(15,16,23,36)         -3.5476         calculate D2E/DX2 analytically  !
 ! D97   D(17,16,23,24)         -4.7647         calculate D2E/DX2 analytically  !
 ! D98   D(17,16,23,36)        177.9909         calculate D2E/DX2 analytically  !
 ! D99   D(16,17,18,2)          -0.7048         calculate D2E/DX2 analytically  !
 ! D100  D(16,17,18,11)        173.7688         calculate D2E/DX2 analytically  !
 ! D101  D(26,17,18,2)         174.4503         calculate D2E/DX2 analytically  !
 ! D102  D(26,17,18,11)        -11.0761         calculate D2E/DX2 analytically  !
 ! D103  D(16,17,26,25)          6.8035         calculate D2E/DX2 analytically  !
 ! D104  D(16,17,26,27)       -178.962          calculate D2E/DX2 analytically  !
 ! D105  D(18,17,26,25)       -168.0226         calculate D2E/DX2 analytically  !
 ! D106  D(18,17,26,27)          6.2119         calculate D2E/DX2 analytically  !
 ! D107  D(13,19,22,21)          3.2042         calculate D2E/DX2 analytically  !
 ! D108  D(13,19,22,44)        179.1596         calculate D2E/DX2 analytically  !
 ! D109  D(43,19,22,21)       -176.8493         calculate D2E/DX2 analytically  !
 ! D110  D(43,19,22,44)         -0.894          calculate D2E/DX2 analytically  !
 ! D111  D(12,20,21,22)         38.8067         calculate D2E/DX2 analytically  !
 ! D112  D(12,20,21,46)        161.344          calculate D2E/DX2 analytically  !
 ! D113  D(12,20,21,47)        -82.121          calculate D2E/DX2 analytically  !
 ! D114  D(27,20,21,22)        174.5991         calculate D2E/DX2 analytically  !
 ! D115  D(27,20,21,46)        -62.8636         calculate D2E/DX2 analytically  !
 ! D116  D(27,20,21,47)         53.6713         calculate D2E/DX2 analytically  !
 ! D117  D(45,20,21,22)        -73.3347         calculate D2E/DX2 analytically  !
 ! D118  D(45,20,21,46)         49.2026         calculate D2E/DX2 analytically  !
 ! D119  D(45,20,21,47)        165.7376         calculate D2E/DX2 analytically  !
 ! D120  D(12,20,27,26)        -53.8426         calculate D2E/DX2 analytically  !
 ! D121  D(12,20,27,28)        144.8601         calculate D2E/DX2 analytically  !
 ! D122  D(12,20,27,33)         48.0195         calculate D2E/DX2 analytically  !
 ! D123  D(21,20,27,26)        175.0518         calculate D2E/DX2 analytically  !
 ! D124  D(21,20,27,28)         13.7545         calculate D2E/DX2 analytically  !
 ! D125  D(21,20,27,33)        -83.0861         calculate D2E/DX2 analytically  !
 ! D126  D(45,20,27,26)         61.5469         calculate D2E/DX2 analytically  !
 ! D127  D(45,20,27,28)        -99.7504         calculate D2E/DX2 analytically  !
 ! D128  D(45,20,27,33)        163.4091         calculate D2E/DX2 analytically  !
 ! D129  D(20,21,22,19)        -28.4482         calculate D2E/DX2 analytically  !
 ! D130  D(20,21,22,44)        155.48           calculate D2E/DX2 analytically  !
 ! D131  D(46,21,22,19)       -151.5041         calculate D2E/DX2 analytically  !
 ! D132  D(46,21,22,44)         32.4241         calculate D2E/DX2 analytically  !
 ! D133  D(47,21,22,19)         93.4536         calculate D2E/DX2 analytically  !
 ! D134  D(47,21,22,44)        -82.6182         calculate D2E/DX2 analytically  !
 ! D135  D(16,23,24,25)          2.5275         calculate D2E/DX2 analytically  !
 ! D136  D(16,23,24,35)       -176.616          calculate D2E/DX2 analytically  !
 ! D137  D(36,23,24,25)        179.7201         calculate D2E/DX2 analytically  !
 ! D138  D(36,23,24,35)          0.5766         calculate D2E/DX2 analytically  !
 ! D139  D(23,24,25,26)          4.8426         calculate D2E/DX2 analytically  !
 ! D140  D(23,24,25,29)       -174.4586         calculate D2E/DX2 analytically  !
 ! D141  D(35,24,25,26)       -175.9901         calculate D2E/DX2 analytically  !
 ! D142  D(35,24,25,29)          4.7087         calculate D2E/DX2 analytically  !
 ! D143  D(24,25,26,17)         -9.1268         calculate D2E/DX2 analytically  !
 ! D144  D(24,25,26,27)        176.234          calculate D2E/DX2 analytically  !
 ! D145  D(29,25,26,17)        170.1491         calculate D2E/DX2 analytically  !
 ! D146  D(29,25,26,27)         -4.4901         calculate D2E/DX2 analytically  !
 ! D147  D(24,25,29,30)        178.4025         calculate D2E/DX2 analytically  !
 ! D148  D(24,25,29,34)         -0.4153         calculate D2E/DX2 analytically  !
 ! D149  D(26,25,29,30)         -0.8949         calculate D2E/DX2 analytically  !
 ! D150  D(26,25,29,34)       -179.7127         calculate D2E/DX2 analytically  !
 ! D151  D(17,26,27,20)         30.808          calculate D2E/DX2 analytically  !
 ! D152  D(17,26,27,28)       -168.0996         calculate D2E/DX2 analytically  !
 ! D153  D(17,26,27,33)        -68.8183         calculate D2E/DX2 analytically  !
 ! D154  D(25,26,27,20)       -155.1115         calculate D2E/DX2 analytically  !
 ! D155  D(25,26,27,28)          5.9808         calculate D2E/DX2 analytically  !
 ! D156  D(25,26,27,33)        105.2621         calculate D2E/DX2 analytically  !
 ! D157  D(20,27,28,30)        160.8769         calculate D2E/DX2 analytically  !
 ! D158  D(20,27,28,32)        -18.7886         calculate D2E/DX2 analytically  !
 ! D159  D(26,27,28,30)         -2.541          calculate D2E/DX2 analytically  !
 ! D160  D(26,27,28,32)        177.7935         calculate D2E/DX2 analytically  !
 ! D161  D(33,27,28,30)       -103.4722         calculate D2E/DX2 analytically  !
 ! D162  D(33,27,28,32)         76.8623         calculate D2E/DX2 analytically  !
 ! D163  D(27,28,30,29)         -2.7906         calculate D2E/DX2 analytically  !
 ! D164  D(27,28,30,31)        179.5446         calculate D2E/DX2 analytically  !
 ! D165  D(32,28,30,29)        176.8846         calculate D2E/DX2 analytically  !
 ! D166  D(32,28,30,31)         -0.7802         calculate D2E/DX2 analytically  !
 ! D167  D(25,29,30,28)          4.5322         calculate D2E/DX2 analytically  !
 ! D168  D(25,29,30,31)       -177.8379         calculate D2E/DX2 analytically  !
 ! D169  D(34,29,30,28)       -176.6751         calculate D2E/DX2 analytically  !
 ! D170  D(34,29,30,31)          0.9548         calculate D2E/DX2 analytically  !
 --------------------------------------------------------------------------------
 Trust Radius=3.00D-01 FncErr=1.00D-07 GrdErr=1.00D-06 EigMax=2.50D+02 EigMin=1.00D-04
 Number of steps in this run=    282 maximum allowed number of steps=    282.
 Search for a saddle point of order  1.
 GradGradGradGradGradGradGradGradGradGradGradGradGradGradGradGradGradGrad

                          Input orientation:                          
 ---------------------------------------------------------------------
 Center     Atomic      Atomic             Coordinates (Angstroms)
 Number     Number       Type             X           Y           Z
 ---------------------------------------------------------------------
      1          6           0        1.633222   -2.811026   -0.085724
      2          6           0        1.452344   -1.453414    0.162702
      3          6           0        2.537619   -0.577213    0.311109
      4          6           0        3.863615   -0.920490    0.169810
      5          6           0        3.022538   -3.230435   -0.145667
      6          6           0        4.075909   -2.341397   -0.032052
      7          6           0        2.041219    0.724978    0.353824
      8          6           0        2.866450    1.828949    0.222496
      9          6           0        4.277930    1.518186    0.169002
     10          6           0        4.754966    0.214242    0.145900
     11          6           0        0.627514    0.692644    0.232016
     12          6           0       -0.047053    1.856149   -0.005436
     13          6           0        0.762752    3.056807   -0.107800
     14          6           0        2.157723    3.043918    0.013536
     15          6           0        0.429819   -3.509593   -0.293630
     16          6           0       -0.815783   -2.842044   -0.262523
     17          6           0       -0.944741   -1.399291   -0.085268
     18          6           0        0.251309   -0.725547    0.123196
     19          6           0        0.092714    4.306419   -0.452088
     20          6           0       -1.524893    1.851189   -0.389368
     21          6           0       -2.142441    3.251865   -0.147851
     22          6           0       -1.239535    4.398262   -0.504682
     23          6           0       -2.018638   -3.612574   -0.375888
     24          6           0       -3.228534   -3.027957   -0.223685
     25          6           0       -3.378348   -1.613978    0.003179
     26          6           0       -2.246301   -0.743973   -0.024384
     27          6           0       -2.462252    0.692531    0.128962
     28          6           0       -3.778675    1.089309    0.424059
     29          6           0       -4.672512   -1.125020    0.266752
     30          6           0       -4.859254    0.211835    0.521892
     31          1           0       -5.842254    0.601256    0.761112
     32          1           0       -3.994722    2.131925    0.584196
     33          1           0       -1.789681    0.863522    2.060342
     34          1           0       -5.504599   -1.820174    0.283164
     35          1           0       -4.132895   -3.626008   -0.256216
     36          1           0       -1.939050   -4.681689   -0.541085
     37          1           0        0.427358   -4.579942   -0.475084
     38          1           0        3.246465   -4.278505   -0.316408
     39          1           0        5.087573   -2.723744   -0.123869
     40          1           0        5.825899    0.056853    0.067031
     41          1           0        4.994842    2.330480    0.103790
     42          1           0        2.691781    3.979709   -0.120527
     43          1           0        0.713599    5.170222   -0.667926
     44          1           0       -1.712604    5.343730   -0.750221
     45          1           0       -1.521941    1.709248   -1.482988
     46          1           0       -3.071253    3.347341   -0.713244
     47          1           0       -2.410619    3.355793    0.913593
 ---------------------------------------------------------------------
                    Distance matrix (angstroms):
                    1          2          3          4          5
     1  C    0.000000
     2  C    1.391956   0.000000
     3  C    2.442403   1.402703   0.000000
     4  C    2.934975   2.469471   1.376979   0.000000
     5  C    1.452479   2.391319   2.735576   2.478464   0.000000
     6  C    2.488002   2.776605   2.365680   1.450791   1.383072
     7  C    3.586501   2.264662   1.394252   2.462225   4.105822
     8  C    4.810948   3.574518   2.430144   2.925154   5.075162
     9  C    5.079512   4.100534   2.727558   2.473620   4.921832
    10  C    4.353296   3.699820   2.360153   1.443155   3.866797
    11  C    3.658977   2.300155   2.295059   3.616410   4.611869
    12  C    4.961078   3.637261   3.563984   4.799350   5.942675
    13  C    5.932088   4.570646   4.065924   5.050872   6.681129
    14  C    5.879228   4.554756   3.653144   4.318683   6.335673
    15  C    1.406911   2.341296   3.661609   4.325412   2.611899
    16  C    2.455574   2.693234   4.087030   5.077012   3.859691
    17  C    2.939199   2.410484   3.599966   4.838864   4.369901
    18  C    2.510489   1.404933   2.298810   3.617863   3.745192
    19  C    7.291462   5.949978   5.514516   6.475108   8.092091
    20  C    5.639339   4.482089   4.784538   6.085302   6.823593
    21  C    7.142698   5.929466   6.064276   7.319984   8.288379
    22  C    7.771878   6.475626   6.299822   7.401770   8.745923
    23  C    3.750034   4.123077   5.517686   6.491995   5.060878
    24  C    4.868548   4.953696   6.288137   7.409105   6.254837
    25  C    5.153316   4.835991   6.014014   7.276999   6.603516
    26  C    4.396268   3.770714   4.798568   6.115549   5.827338
    27  C    5.393877   4.464334   5.161796   6.528407   6.748926
    28  C    6.690375   5.822139   6.533424   7.906234   8.077207
    29  C    6.536753   6.134536   7.231048   8.539127   7.988533
    30  C    7.187429   6.537457   7.441825   8.803100   8.626558
    31  H    8.260965   7.602034   8.474288   9.842217   9.699930
    32  H    7.520327   6.534741   7.077110   8.440522   8.861690
    33  H    5.461151   4.413610   4.884778   6.222264   6.692116
    34  H    7.215702   6.967645   8.137752   9.411998   8.653600
    35  H    5.825922   6.007541   7.356138   8.452544   7.167211
    36  H    4.058061   4.734831   6.132986   6.951468   5.184578
    37  H    2.175953   3.351499   4.592727   5.061160   2.943577
    38  H    2.193003   3.380763   3.820445   3.448702   1.085240
    39  H    3.455664   3.861444   3.361408   2.199101   2.126401
    40  H    5.081988   4.627963   3.357737   2.194612   4.325545
    41  H    6.145851   5.183688   3.812559   3.442795   5.905590
    42  H    6.872833   5.579897   4.579914   5.046726   7.217770
    43  H    8.055122   6.716267   6.108892   6.908051   8.727829
    44  H    8.839466   7.553244   7.365350   8.436891   9.813428
    45  H    5.686851   4.642962   4.992666   6.217031   6.844062
    46  H    7.775047   6.654131   6.921768   8.190639   8.984630
    47  H    7.441837   6.214080   6.349534   7.629274   8.603466
                    6          7          8          9         10
     6  C    0.000000
     7  C    3.700205   0.000000
     8  C    4.349640   1.384560   0.000000
     9  C    3.870093   2.380381   1.446275   0.000000
    10  C    2.650297   2.769207   2.485888   1.388657   0.000000
    11  C    4.600714   1.419311   2.510799   3.743131   4.155977
    12  C    5.883784   2.401977   2.922532   4.341673   5.077218
    13  C    6.334300   2.699074   2.458104   3.847135   4.907373
    14  C    5.716916   2.346668   1.422008   2.616736   3.843209
    15  C    3.837587   4.576833   5.890975   6.348271   5.724249
    16  C    4.922643   4.611506   5.967601   6.718909   6.367177
    17  C    5.108554   3.690702   5.004141   5.987706   5.928203
    18  C    4.154833   2.315381   3.657085   4.609784   4.600722
    19  C    7.761168   4.156066   3.779753   5.067152   6.232182
    20  C    7.005315   3.812852   4.433821   5.839129   6.511738
    21  C    8.364560   4.913232   5.220233   6.657868   7.542391
    22  C    8.596530   4.999339   4.897884   6.260280   7.339164
    23  C    6.235192   5.985756   7.337051   8.140539   7.797339
    24  C    7.339140   6.495255   7.806244   8.784567   8.624658
    25  C    7.489748   5.913153   7.134378   8.273847   8.337479
    26  C    6.520902   4.547932   5.728970   6.907992   7.068586
    27  C    7.209590   4.509198   5.449336   6.790682   7.233069
    28  C    8.583255   5.831710   6.689199   8.072043   8.582898
    29  C    8.837631   6.964500   8.097150   9.333087   9.522897
    30  C    9.309296   6.921567   7.898810   9.236840   9.621570
    31  H   10.375850   7.894956   8.811292  10.178874  10.622115
    32  H    9.247997   6.202028   6.877376   8.305771   8.968091
    33  H    7.003911   4.196093   5.097969   6.389183   6.849749
    34  H    9.599853   7.963803   9.132045  10.337096  10.460228
    35  H    8.311735   7.577791   8.886875   9.868410   9.690371
    36  H    6.474242   6.773142   8.127994   8.808718   8.321775
    37  H    4.303404   5.606586   6.892726   7.240781   6.488298
    38  H    2.126317   5.190055   6.142949   5.907721   4.761731
    39  H    1.085396   4.626245   5.077437   4.328425   2.969034
    40  H    2.970503   3.853887   3.452945   2.131220   1.085306
    41  H    4.763331   3.371060   2.189903   1.085374   2.130206
    42  H    6.471477   3.352837   2.184935   2.942582   4.301913
    43  H    8.254325   4.750447   4.073294   5.171293   6.446448
    44  H    9.647996   6.053344   5.853853   7.167026   8.303261
    45  H    7.060373   4.127805   4.709669   6.033579   6.654914
    46  H    9.160114   5.844039   6.199794   7.624609   8.473732
    47  H    8.684887   5.201287   5.536815   6.976238   7.861571
                   11         12         13         14         15
    11  C    0.000000
    12  C    1.365712   0.000000
    13  C    2.392286   1.451841   0.000000
    14  C    2.813852   2.504435   1.400297   0.000000
    15  C    4.239597   5.394595   6.577460   6.784431   0.000000
    16  C    3.849895   4.767605   6.108368   6.600189   1.413546
    17  C    2.636067   3.377885   4.772091   5.420069   2.527094
    18  C    1.471271   2.602061   3.823759   4.225554   2.820731
    19  C    3.716635   2.494565   1.459115   2.464747   7.824883
    20  C    2.522142   1.526905   2.601176   3.891863   5.706842
    21  C    3.790325   2.521697   2.912009   4.308213   7.235682
    22  C    4.214285   2.851946   2.442574   3.693800   8.084891
    23  C    5.089850   5.825059   7.231089   7.867816   2.452002
    24  C    5.377699   5.833005   7.277922   8.120080   3.690584
    25  C    4.628153   4.810341   6.243177   7.234928   4.264222
    26  C    3.223108   3.405537   4.848431   5.809043   3.857819
    27  C    3.091484   2.684261   4.005809   5.185221   5.118643
    28  C    4.428174   3.833733   4.977799   6.263373   6.275062
    29  C    5.603158   5.509658   6.868046   8.006015   5.659858
    30  C    5.515417   5.112643   6.332245   7.584002   6.518312
    31  H    6.492010   5.978855   7.100059   8.397922   7.573009
    32  H    4.853929   4.000976   4.895694   6.245796   7.223148
    33  H    3.035590   2.879149   4.003280   4.952327   5.439807
    34  H    6.627192   6.586611   7.950942   9.079828   6.197108
    35  H    6.445977   6.841859   8.285494   9.172380   4.564352
    36  H    6.005697   6.827144   8.208032   8.762200   2.654540
    37  H    5.323553   6.470618   7.652929   7.833017   1.085624
    38  H    5.645529   6.969788   7.747203   7.410270   2.919801
    39  H    5.629430   6.881412   7.219356   6.470612   4.726632
    40  H    5.239719   6.142824   5.887763   4.730849   6.478217
    41  H    4.666101   5.065336   4.299175   2.926839   7.423195
    42  H    3.897471   3.467559   2.138472   1.085770   7.825349
    43  H    4.567933   3.464183   2.186934   2.659145   8.692515
    44  H    5.298447   3.935986   3.430759   4.566387   9.120295
    45  H    2.931702   2.092853   2.987788   4.190567   5.697389
    46  H    4.649926   3.445349   3.892373   5.287955   7.710456
    47  H    4.097214   2.946182   3.347076   4.666596   7.527217
                   16         17         18         19         20
    16  C    0.000000
    17  C    1.459310   0.000000
    18  C    2.401463   1.388497   0.000000
    19  C    7.208455   5.810852   5.067227   0.000000
    20  C    4.748196   3.315822   3.171306   2.940874   0.000000
    21  C    6.237700   4.803296   4.650087   2.490093   1.549706
    22  C    7.256737   5.820175   5.373106   1.336446   2.565601
    23  C    1.432979   2.477163   3.706301   8.195979   5.486043
    24  C    2.420215   2.808456   4.186971   8.054559   5.170678
    25  C    2.854029   2.444659   3.738733   6.877982   3.949275
    26  C    2.550489   1.458495   2.502034   5.582148   2.718181
    27  C    3.918844   2.593155   3.061763   4.463816   1.577909
    28  C    4.970479   3.805749   4.430010   5.109313   2.514291
    29  C    4.254722   3.754387   4.942085   7.261173   4.381303
    30  C    5.127489   4.276422   5.211094   6.498942   3.825682
    31  H    6.178151   5.357628   6.268880   7.100981   4.639563
    32  H    5.963468   4.713815   5.138720   4.744412   2.669587
    33  H    4.480558   3.230772   3.231612   4.659319   2.654558
    34  H    4.829802   4.594038   5.861252   8.331005   5.456122
    35  H    3.408500   3.892534   5.270472   8.989857   6.067874
    36  H    2.173389   3.459849   4.570558   9.215317   6.547751
    37  H    2.147294   3.485850   3.904522   8.892690   6.721464
    38  H    4.309081   5.090138   4.667732   9.146883   7.768161
    39  H    5.906169   6.176122   5.238634   8.630153   8.045198
    40  H    7.254250   6.927129   5.629508   7.155257   7.580375
    41  H    7.787975   7.016094   5.642764   5.314527   6.555903
    42  H    7.671993   6.493010   5.306104   2.640421   4.731090
    43  H    8.166993   6.800594   5.966547   1.085468   4.013031
    44  H    8.249184   6.819099   6.438628   2.103347   3.516147
    45  H    4.764709   3.456848   3.413571   3.227253   1.102797
    46  H    6.602937   5.238981   5.322355   3.316432   2.175913
    47  H    6.506914   5.075170   4.936388   3.005903   2.178543
                   21         22         23         24         25
    21  C    0.000000
    22  C    1.502263   0.000000
    23  C    6.869341   8.049664   0.000000
    24  C    6.373501   7.693101   1.352328   0.000000
    25  C    5.022619   6.401521   2.446812   1.439878   0.000000
    26  C    3.999094   5.261829   2.899010   2.494210   1.428005
    27  C    2.594050   3.953351   4.357246   3.814915   2.484962
    28  C    2.771460   4.273051   5.083832   4.204058   2.764989
    29  C    5.072502   6.548823   3.693773   2.438600   1.408336
    30  C    4.131756   5.628711   4.847805   3.702889   2.407434
    31  H    4.641181   6.099550   5.802514   4.579579   3.398905
    32  H    2.284973   3.730013   6.150280   5.278645   3.840480
    33  H    3.271810   4.401863   5.101282   4.736105   3.590792
    34  H    6.100448   7.581584   3.974792   2.626044   2.154496
    35  H    7.160921   8.533591   2.117684   1.084708   2.164461
    36  H    7.945897   9.106929   1.084726   2.120929   3.432004
    37  H    8.249130   9.131679   2.632211   3.979624   4.848616
    38  H    9.261490   9.769643   5.307383   6.595307   7.147726
    39  H    9.379850   9.534164   7.166015   8.322268   8.539294
    40  H    8.587707   8.312343   8.671657   9.569918   9.354887
    41  H    7.200908   6.596470   9.205373   9.820591   9.256305
    42  H    4.888784   3.972154   8.938457   9.174320   8.255368
    43  H    3.479588   2.106491   9.202603   9.107574   7.951087
    44  H    2.218898   1.085354   8.969346   8.524109   7.193887
    45  H    2.132435   2.875349   5.458403   5.190319   4.086413
    46  H    1.091548   2.122057   7.047143   6.396001   5.022176
    47  H    1.099720   2.114163   7.097503   6.535645   5.144315
                   26         27         28         29         30
    26  C    0.000000
    27  C    1.460717   0.000000
    28  C    2.431089   1.406231   0.000000
    29  C    2.473147   2.864913   2.393103   0.000000
    30  C    2.835403   2.476102   1.395415   1.373736   0.000000
    31  H    3.918868   3.439820   2.147128   2.143063   1.084050
    32  H    3.420254   2.151176   1.076740   3.341835   2.106666
    33  H    2.671820   2.052272   2.585440   3.934715   3.494825
    34  H    3.445185   3.948840   3.385817   1.084379   2.145349
    35  H    3.452406   4.646417   4.777286   2.611441   3.982724
    36  H    3.983339   5.441043   6.133526   4.557884   5.796903
    37  H    4.697472   6.042656   7.116149   6.204473   7.204398
    38  H    6.538247   7.582810   8.872109   8.543696   9.304224
    39  H    7.597045   8.290640   9.666952   9.897867  10.391054
    40  H    8.112342   8.312723   9.666503  10.566615  10.695953
    41  H    7.867836   7.634904   8.866661  10.267657  10.087947
    42  H    6.834257   6.118157   7.107587   8.968894   8.463315
    43  H    6.644762   5.547141   6.166588   8.337499   7.553672
    44  H    6.154007   4.792555   4.873159   7.186099   6.152725
    45  H    2.944574   2.125154   3.018940   4.584841   4.171265
    46  H    4.230121   2.851001   2.625379   4.850406   3.814958
    47  H    4.208905   2.776918   2.692243   5.060855   4.004212
                   31         32         33         34         35
    31  H    0.000000
    32  H    2.405748   0.000000
    33  H    4.263816   2.941098   0.000000
    34  H    2.491138   4.241395   4.915405   0.000000
    35  H    4.671897   5.820582   5.568929   2.330995   0.000000
    36  H    6.696285   7.205372   6.126916   4.645513   2.451238
    37  H    8.226848   8.107159   6.401168   6.586302   4.664097
    38  H   10.371978   9.712852   7.579720   9.109555   7.408396
    39  H   11.458618  10.323127   8.058280  10.638431   9.265453
    40  H   11.701449  10.050770   7.913347  11.486955  10.622878
    41  H   10.993859   9.004581   7.211783  11.291517  10.905271
    42  H    9.220682   6.972823   5.877951  10.048993  10.219665
    43  H    8.117685   5.741720   5.679571   9.404052  10.051451
    44  H    6.467549   4.159858   5.289373   8.171207   9.303658
    45  H    4.992868   3.250623   3.652687   5.606931   6.065229
    46  H    4.170510   2.003343   3.937583   5.798035   7.068490
    47  H    4.403049   2.028728   2.812830   6.063067   7.285618
                   36         37         38         39         40
    36  H    0.000000
    37  H    2.369514   0.000000
    38  H    5.206016   2.839614   0.000000
    39  H    7.306234   5.028561   2.417443   0.000000
    40  H    9.116908   7.137086   5.059233   2.883277   0.000000
    41  H    9.882572   8.303670   6.849239   5.060198   2.421030
    42  H    9.830630   8.861205   8.279139   7.118716   5.024607
    43  H   10.203567   9.756271   9.788637   9.041147   7.267896
    44  H   10.030157  10.155511  10.833650  10.569714   9.243809
    45  H    6.473425   6.661047   7.742854   8.073679   7.689195
    46  H    8.110293   8.668265   9.910831  10.186848   9.518164
    47  H    8.181661   8.541571   9.581128   9.708758   8.912906
                   41         42         43         44         45
    41  H    0.000000
    42  H    2.841543   0.000000
    43  H    5.195067   2.372798   0.000000
    44  H    7.402624   4.653566   2.433791   0.000000
    45  H    6.735893   4.976620   4.200036   3.712514   0.000000
    46  H    8.170890   5.827844   4.201197   2.415132   2.382482
    47  H    7.519834   5.243392   3.943868   2.684659   3.040470
                   46         47
    46  H    0.000000
    47  H    1.755878   0.000000
 Stoichiometry    C30H17(2)
 Framework group  C1[X(C30H17)]
 Deg. of freedom   135
 Full point group                 C1      NOp   1
 Largest Abelian subgroup         C1      NOp   1
 Largest concise Abelian subgroup C1      NOp   1
                         Standard orientation:                         
 ---------------------------------------------------------------------
 Center     Atomic      Atomic             Coordinates (Angstroms)
 Number     Number       Type             X           Y           Z
 ---------------------------------------------------------------------
      1          6           0        1.633222   -2.811026   -0.085724
      2          6           0        1.452344   -1.453414    0.162702
      3          6           0        2.537619   -0.577213    0.311109
      4          6           0        3.863615   -0.920490    0.169810
      5          6           0        3.022538   -3.230435   -0.145667
      6          6           0        4.075909   -2.341397   -0.032052
      7          6           0        2.041219    0.724978    0.353824
      8          6           0        2.866450    1.828949    0.222496
      9          6           0        4.277930    1.518186    0.169002
     10          6           0        4.754966    0.214242    0.145900
     11          6           0        0.627514    0.692644    0.232016
     12          6           0       -0.047053    1.856149   -0.005436
     13          6           0        0.762752    3.056807   -0.107800
     14          6           0        2.157723    3.043918    0.013536
     15          6           0        0.429819   -3.509593   -0.293630
     16          6           0       -0.815783   -2.842044   -0.262523
     17          6           0       -0.944741   -1.399291   -0.085268
     18          6           0        0.251309   -0.725547    0.123196
     19          6           0        0.092714    4.306419   -0.452088
     20          6           0       -1.524893    1.851189   -0.389368
     21          6           0       -2.142441    3.251865   -0.147851
     22          6           0       -1.239535    4.398262   -0.504682
     23          6           0       -2.018638   -3.612574   -0.375888
     24          6           0       -3.228534   -3.027957   -0.223685
     25          6           0       -3.378348   -1.613978    0.003179
     26          6           0       -2.246301   -0.743973   -0.024384
     27          6           0       -2.462252    0.692531    0.128962
     28          6           0       -3.778675    1.089309    0.424059
     29          6           0       -4.672512   -1.125020    0.266752
     30          6           0       -4.859254    0.211835    0.521892
     31          1           0       -5.842254    0.601256    0.761112
     32          1           0       -3.994722    2.131925    0.584196
     33          1           0       -1.789681    0.863522    2.060342
     34          1           0       -5.504599   -1.820174    0.283164
     35          1           0       -4.132895   -3.626008   -0.256216
     36          1           0       -1.939050   -4.681689   -0.541085
     37          1           0        0.427358   -4.579942   -0.475084
     38          1           0        3.246465   -4.278505   -0.316408
     39          1           0        5.087573   -2.723744   -0.123869
     40          1           0        5.825899    0.056853    0.067031
     41          1           0        4.994842    2.330480    0.103790
     42          1           0        2.691781    3.979709   -0.120527
     43          1           0        0.713599    5.170222   -0.667926
     44          1           0       -1.712604    5.343730   -0.750221
     45          1           0       -1.521941    1.709248   -1.482988
     46          1           0       -3.071253    3.347341   -0.713244
     47          1           0       -2.410619    3.355793    0.913593
 ---------------------------------------------------------------------
 Rotational constants (GHZ):           0.2365458           0.1755576           0.1021856
 Standard basis: 6-311+G(d,p) (5D, 7F)
 There are   792 symmetry adapted cartesian basis functions of A   symmetry.
 There are   762 symmetry adapted basis functions of A   symmetry.
   762 basis functions,  1216 primitive gaussians,   792 cartesian basis functions
    99 alpha electrons       98 beta electrons
       nuclear repulsion energy      2650.8322069650 Hartrees.
 NAtoms=   47 NActive=   47 NUniq=   47 SFac= 1.00D+00 NAtFMM=   60 NAOKFM=F Big=F
 Integral buffers will be    131072 words long.
 Raffenetti 2 integral format.
 Two-electron integral symmetry is turned on.
 One-electron integrals computed using PRISM.
 NBasis=   762 RedAO= T EigKep=  1.09D-06  NBF=   762
 NBsUse=   740 1.00D-06 EigRej=  8.94D-07 NBFU=   740
 ExpMin= 4.38D-02 ExpMax= 4.56D+03 ExpMxC= 6.82D+02 IAcc=2 IRadAn=         4 AccDes= 0.00D+00
 Harris functional with IExCor=  402 and IRadAn=       4 diagonalized for initial guess.
 HarFok:  IExCor=  402 AccDes= 0.00D+00 IRadAn=         4 IDoV= 1 UseB2=F ITyADJ=14
 ICtDFT=  3500011 ScaDFX=  1.000000  1.000000  1.000000  1.000000
 FoFCou: FMM=F IPFlag=           0 FMFlag=      100000 FMFlg1=           0
         NFxFlg=           0 DoJE=T BraDBF=F KetDBF=T FulRan=T
         wScrn=  0.000000 ICntrl=       500 IOpCl=  0 I1Cent=   200000004 NGrid=           0
         NMat0=    1 NMatS0=      1 NMatT0=    0 NMatD0=    1 NMtDS0=    0 NMtDT0=    0
 Petite list used in FoFCou.
 Initial guess <Sx>= 0.0000 <Sy>= 0.0000 <Sz>= 0.5000 <S**2>= 0.7500 S= 0.5000
 Requested convergence on RMS density matrix=1.00D-08 within 128 cycles.
 Requested convergence on MAX density matrix=1.00D-06.
 Requested convergence on             energy=1.00D-06.
 No special actions if energy rises.
 Restarting incremental Fock formation.
 SCF Done:  E(UB3LYP) =  -1153.60996114     A.U. after   26 cycles
            NFock= 26  Conv=0.37D-08     -V/T= 2.0045
 <Sx>= 0.0000 <Sy>= 0.0000 <Sz>= 0.5000 <S**2>= 0.7666 S= 0.5083
 <L.S>=  0.00000000000    
 Annihilation of the first spin contaminant:
 S**2 before annihilation     0.7666,   after     0.7501
 DoSCS=F DFT=T ScalE2(SS,OS)=  1.000000  1.000000
 Range of M.O.s used for correlation:     1   740
 NBasis=   762 NAE=    99 NBE=    98 NFC=     0 NFV=     0
 NROrb=    740 NOA=    99 NOB=    98 NVA=   641 NVB=   642

 **** Warning!!: The largest alpha MO coefficient is  0.12499605D+03


 **** Warning!!: The largest beta MO coefficient is  0.12438519D+03

 Symmetrizing basis deriv contribution to polar:
 IMax=3 JMax=2 DiffMx= 0.00D+00
 G2DrvN: will do    48 centers at a time, making    1 passes.
 Calling FoFCou, ICntrl=  3107 FMM=F I1Cent=   0 AccDes= 0.00D+00.
 End of G2Drv F.D. properties file   721 does not exist.
 End of G2Drv F.D. properties file   722 does not exist.
 End of G2Drv F.D. properties file   788 does not exist.
          IDoAtm=11111111111111111111111111111111111111111111111
          Differentiating once with respect to nuclear coordinates.
 CalDSu exits because no D1Ps are significant.
          There are   144 degrees of freedom in the 1st order CPHF.  IDoFFX=6 NUNeed=     0.
    138 vectors produced by pass  0 Test12= 1.26D-13 1.00D-09 XBig12= 5.87D-01 1.08D-01.
 AX will form   138 AO Fock derivatives at one time.
    138 vectors produced by pass  1 Test12= 1.26D-13 1.00D-09 XBig12= 1.51D-01 6.81D-02.
    138 vectors produced by pass  2 Test12= 1.26D-13 1.00D-09 XBig12= 1.93D-03 6.22D-03.
    138 vectors produced by pass  3 Test12= 1.26D-13 1.00D-09 XBig12= 1.49D-05 7.73D-04.
    138 vectors produced by pass  4 Test12= 1.26D-13 1.00D-09 XBig12= 1.19D-07 3.38D-05.
    138 vectors produced by pass  5 Test12= 1.26D-13 1.00D-09 XBig12= 7.56D-10 1.84D-06.
    135 vectors produced by pass  6 Test12= 1.26D-13 1.00D-09 XBig12= 6.87D-11 6.74D-07.
    114 vectors produced by pass  7 Test12= 1.26D-13 1.00D-09 XBig12= 1.34D-11 1.83D-07.
     88 vectors produced by pass  8 Test12= 1.26D-13 1.00D-09 XBig12= 1.83D-12 7.26D-08.
     26 vectors produced by pass  9 Test12= 1.26D-13 1.00D-09 XBig12= 3.09D-14 7.09D-09.
      4 vectors produced by pass 10 Test12= 1.26D-13 1.00D-09 XBig12= 5.95D-16 1.49D-09.
      4 vectors produced by pass 11 Test12= 1.26D-13 1.00D-09 XBig12= 6.94D-16 1.21D-09.
      4 vectors produced by pass 12 Test12= 1.26D-13 1.00D-09 XBig12= 1.15D-15 1.76D-09.
      3 vectors produced by pass 13 Test12= 1.26D-13 1.00D-09 XBig12= 9.47D-16 1.61D-09.
      3 vectors produced by pass 14 Test12= 1.26D-13 1.00D-09 XBig12= 6.47D-16 1.21D-09.
      2 vectors produced by pass 15 Test12= 1.26D-13 1.00D-09 XBig12= 1.32D-15 1.94D-09.
      2 vectors produced by pass 16 Test12= 1.26D-13 1.00D-09 XBig12= 8.17D-16 1.47D-09.
      2 vectors produced by pass 17 Test12= 1.26D-13 1.00D-09 XBig12= 6.73D-16 1.34D-09.
      2 vectors produced by pass 18 Test12= 1.26D-13 1.00D-09 XBig12= 7.14D-16 1.36D-09.
      1 vectors produced by pass 19 Test12= 1.26D-13 1.00D-09 XBig12= 7.76D-16 1.76D-09.
 InvSVY:  IOpt=1 It=  1 EMax= 1.22D-15
 Solved reduced A of dimension  1218 with   144 vectors.
 End of Minotr F.D. properties file   721 does not exist.
 End of Minotr F.D. properties file   722 does not exist.
 End of Minotr F.D. properties file   788 does not exist.

 **********************************************************************

            Population analysis using the SCF Density.

 **********************************************************************

 Orbital symmetries:
 Alpha Orbitals:
       Occupied  (A) (A) (A) (A) (A) (A) (A) (A) (A) (A) (A) (A)
                 (A) (A) (A) (A) (A) (A) (A) (A) (A) (A) (A) (A)
                 (A) (A) (A) (A) (A) (A) (A) (A) (A) (A) (A) (A)
                 (A) (A) (A) (A) (A) (A) (A) (A) (A) (A) (A) (A)
                 (A) (A) (A) (A) (A) (A) (A) (A) (A) (A) (A) (A)
                 (A) (A) (A) (A) (A) (A) (A) (A) (A) (A) (A) (A)
                 (A) (A) (A) (A) (A) (A) (A) (A) (A) (A) (A) (A)
                 (A) (A) (A) (A) (A) (A) (A) (A) (A) (A) (A) (A)
                 (A) (A) (A)
       Virtual   (A) (A) (A) (A) (A) (A) (A) (A) (A) (A) (A) (A)
                 (A) (A) (A) (A) (A) (A) (A) (A) (A) (A) (A) (A)
                 (A) (A) (A) (A) (A) (A) (A) (A) (A) (A) (A) (A)
                 (A) (A) (A) (A) (A) (A) (A) (A) (A) (A) (A) (A)
                 (A) (A) (A) (A) (A) (A) (A) (A) (A) (A) (A) (A)
                 (A) (A) (A) (A) (A) (A) (A) (A) (A) (A) (A) (A)
                 (A) (A) (A) (A) (A) (A) (A) (A) (A) (A) (A) (A)
                 (A) (A) (A) (A) (A) (A) (A) (A) (A) (A) (A) (A)
                 (A) (A) (A) (A) (A) (A) (A) (A) (A) (A) (A) (A)
                 (A) (A) (A) (A) (A) (A) (A) (A) (A) (A) (A) (A)
                 (A) (A) (A) (A) (A) (A) (A) (A) (A) (A) (A) (A)
                 (A) (A) (A) (A) (A) (A) (A) (A) (A) (A) (A) (A)
                 (A) (A) (A) (A) (A) (A) (A) (A) (A) (A) (A) (A)
                 (A) (A) (A) (A) (A) (A) (A) (A) (A) (A) (A) (A)
                 (A) (A) (A) (A) (A) (A) (A) (A) (A) (A) (A) (A)
                 (A) (A) (A) (A) (A) (A) (A) (A) (A) (A) (A) (A)
                 (A) (A) (A) (A) (A) (A) (A) (A) (A) (A) (A) (A)
                 (A) (A) (A) (A) (A) (A) (A) (A) (A) (A) (A) (A)
                 (A) (A) (A) (A) (A) (A) (A) (A) (A) (A) (A) (A)
                 (A) (A) (A) (A) (A) (A) (A) (A) (A) (A) (A) (A)
                 (A) (A) (A) (A) (A) (A) (A) (A) (A) (A) (A) (A)
                 (A) (A) (A) (A) (A) (A) (A) (A) (A) (A) (A) (A)
                 (A) (A) (A) (A) (A) (A) (A) (A) (A) (A) (A) (A)
                 (A) (A) (A) (A) (A) (A) (A) (A) (A) (A) (A) (A)
                 (A) (A) (A) (A) (A) (A) (A) (A) (A) (A) (A) (A)
                 (A) (A) (A) (A) (A) (A) (A) (A) (A) (A) (A) (A)
                 (A) (A) (A) (A) (A) (A) (A) (A) (A) (A) (A) (A)
                 (A) (A) (A) (A) (A) (A) (A) (A) (A) (A) (A) (A)
                 (A) (A) (A) (A) (A) (A) (A) (A) (A) (A) (A) (A)
                 (A) (A) (A) (A) (A) (A) (A) (A) (A) (A) (A) (A)
                 (A) (A) (A) (A) (A) (A) (A) (A) (A) (A) (A) (A)
                 (A) (A) (A) (A) (A) (A) (A) (A) (A) (A) (A) (A)
                 (A) (A) (A) (A) (A) (A) (A) (A) (A) (A) (A) (A)
                 (A) (A) (A) (A) (A) (A) (A) (A) (A) (A) (A) (A)
                 (A) (A) (A) (A) (A) (A) (A) (A) (A) (A) (A) (A)
                 (A) (A) (A) (A) (A) (A) (A) (A) (A) (A) (A) (A)
                 (A) (A) (A) (A) (A) (A) (A) (A) (A) (A) (A) (A)
                 (A) (A) (A) (A) (A) (A) (A) (A) (A) (A) (A) (A)
                 (A) (A) (A) (A) (A) (A) (A) (A) (A) (A) (A) (A)
                 (A) (A) (A) (A) (A) (A) (A) (A) (A) (A) (A) (A)
                 (A) (A) (A) (A) (A) (A) (A) (A) (A) (A) (A) (A)
                 (A) (A) (A) (A) (A) (A) (A) (A) (A) (A) (A) (A)
                 (A) (A) (A) (A) (A) (A) (A) (A) (A) (A) (A) (A)
                 (A) (A) (A) (A) (A) (A) (A) (A) (A) (A) (A) (A)
                 (A) (A) (A) (A) (A) (A) (A) (A) (A) (A) (A) (A)
                 (A) (A) (A) (A) (A) (A) (A) (A) (A) (A) (A) (A)
                 (A) (A) (A) (A) (A) (A) (A) (A) (A) (A) (A) (A)
                 (A) (A) (A) (A) (A) (A) (A) (A) (A) (A) (A) (A)
                 (A) (A) (A) (A) (A) (A) (A) (A) (A) (A) (A) (A)
                 (A) (A) (A) (A) (A) (A) (A) (A) (A) (A) (A) (A)
                 (A) (A) (A) (A) (A) (A) (A) (A) (A) (A) (A) (A)
                 (A) (A) (A) (A) (A) (A) (A) (A) (A) (A) (A) (A)
                 (A) (A) (A) (A) (A) (A) (A) (A) (A) (A) (A) (A)
                 (A) (A) (A) (A) (A)
 Beta  Orbitals:
       Occupied  (A) (A) (A) (A) (A) (A) (A) (A) (A) (A) (A) (A)
                 (A) (A) (A) (A) (A) (A) (A) (A) (A) (A) (A) (A)
                 (A) (A) (A) (A) (A) (A) (A) (A) (A) (A) (A) (A)
                 (A) (A) (A) (A) (A) (A) (A) (A) (A) (A) (A) (A)
                 (A) (A) (A) (A) (A) (A) (A) (A) (A) (A) (A) (A)
                 (A) (A) (A) (A) (A) (A) (A) (A) (A) (A) (A) (A)
                 (A) (A) (A) (A) (A) (A) (A) (A) (A) (A) (A) (A)
                 (A) (A) (A) (A) (A) (A) (A) (A) (A) (A) (A) (A)
                 (A) (A)
       Virtual   (A) (A) (A) (A) (A) (A) (A) (A) (A) (A) (A) (A)
                 (A) (A) (A) (A) (A) (A) (A) (A) (A) (A) (A) (A)
                 (A) (A) (A) (A) (A) (A) (A) (A) (A) (A) (A) (A)
                 (A) (A) (A) (A) (A) (A) (A) (A) (A) (A) (A) (A)
                 (A) (A) (A) (A) (A) (A) (A) (A) (A) (A) (A) (A)
                 (A) (A) (A) (A) (A) (A) (A) (A) (A) (A) (A) (A)
                 (A) (A) (A) (A) (A) (A) (A) (A) (A) (A) (A) (A)
                 (A) (A) (A) (A) (A) (A) (A) (A) (A) (A) (A) (A)
                 (A) (A) (A) (A) (A) (A) (A) (A) (A) (A) (A) (A)
                 (A) (A) (A) (A) (A) (A) (A) (A) (A) (A) (A) (A)
                 (A) (A) (A) (A) (A) (A) (A) (A) (A) (A) (A) (A)
                 (A) (A) (A) (A) (A) (A) (A) (A) (A) (A) (A) (A)
                 (A) (A) (A) (A) (A) (A) (A) (A) (A) (A) (A) (A)
                 (A) (A) (A) (A) (A) (A) (A) (A) (A) (A) (A) (A)
                 (A) (A) (A) (A) (A) (A) (A) (A) (A) (A) (A) (A)
                 (A) (A) (A) (A) (A) (A) (A) (A) (A) (A) (A) (A)
                 (A) (A) (A) (A) (A) (A) (A) (A) (A) (A) (A) (A)
                 (A) (A) (A) (A) (A) (A) (A) (A) (A) (A) (A) (A)
                 (A) (A) (A) (A) (A) (A) (A) (A) (A) (A) (A) (A)
                 (A) (A) (A) (A) (A) (A) (A) (A) (A) (A) (A) (A)
                 (A) (A) (A) (A) (A) (A) (A) (A) (A) (A) (A) (A)
                 (A) (A) (A) (A) (A) (A) (A) (A) (A) (A) (A) (A)
                 (A) (A) (A) (A) (A) (A) (A) (A) (A) (A) (A) (A)
                 (A) (A) (A) (A) (A) (A) (A) (A) (A) (A) (A) (A)
                 (A) (A) (A) (A) (A) (A) (A) (A) (A) (A) (A) (A)
                 (A) (A) (A) (A) (A) (A) (A) (A) (A) (A) (A) (A)
                 (A) (A) (A) (A) (A) (A) (A) (A) (A) (A) (A) (A)
                 (A) (A) (A) (A) (A) (A) (A) (A) (A) (A) (A) (A)
                 (A) (A) (A) (A) (A) (A) (A) (A) (A) (A) (A) (A)
                 (A) (A) (A) (A) (A) (A) (A) (A) (A) (A) (A) (A)
                 (A) (A) (A) (A) (A) (A) (A) (A) (A) (A) (A) (A)
                 (A) (A) (A) (A) (A) (A) (A) (A) (A) (A) (A) (A)
                 (A) (A) (A) (A) (A) (A) (A) (A) (A) (A) (A) (A)
                 (A) (A) (A) (A) (A) (A) (A) (A) (A) (A) (A) (A)
                 (A) (A) (A) (A) (A) (A) (A) (A) (A) (A) (A) (A)
                 (A) (A) (A) (A) (A) (A) (A) (A) (A) (A) (A) (A)
                 (A) (A) (A) (A) (A) (A) (A) (A) (A) (A) (A) (A)
                 (A) (A) (A) (A) (A) (A) (A) (A) (A) (A) (A) (A)
                 (A) (A) (A) (A) (A) (A) (A) (A) (A) (A) (A) (A)
                 (A) (A) (A) (A) (A) (A) (A) (A) (A) (A) (A) (A)
                 (A) (A) (A) (A) (A) (A) (A) (A) (A) (A) (A) (A)
                 (A) (A) (A) (A) (A) (A) (A) (A) (A) (A) (A) (A)
                 (A) (A) (A) (A) (A) (A) (A) (A) (A) (A) (A) (A)
                 (A) (A) (A) (A) (A) (A) (A) (A) (A) (A) (A) (A)
                 (A) (A) (A) (A) (A) (A) (A) (A) (A) (A) (A) (A)
                 (A) (A) (A) (A) (A) (A) (A) (A) (A) (A) (A) (A)
                 (A) (A) (A) (A) (A) (A) (A) (A) (A) (A) (A) (A)
                 (A) (A) (A) (A) (A) (A) (A) (A) (A) (A) (A) (A)
                 (A) (A) (A) (A) (A) (A) (A) (A) (A) (A) (A) (A)
                 (A) (A) (A) (A) (A) (A) (A) (A) (A) (A) (A) (A)
                 (A) (A) (A) (A) (A) (A) (A) (A) (A) (A) (A) (A)
                 (A) (A) (A) (A) (A) (A) (A) (A) (A) (A) (A) (A)
                 (A) (A) (A) (A) (A) (A) (A) (A) (A) (A) (A) (A)
                 (A) (A) (A) (A) (A) (A)
 The electronic state is 2-A.
 Alpha  occ. eigenvalues --  -10.21725 -10.20999 -10.20587 -10.20151 -10.20039
 Alpha  occ. eigenvalues --  -10.19793 -10.19529 -10.19521 -10.19365 -10.19156
 Alpha  occ. eigenvalues --  -10.19120 -10.19031 -10.18993 -10.18952 -10.18911
 Alpha  occ. eigenvalues --  -10.18902 -10.18726 -10.18606 -10.18518 -10.18471
 Alpha  occ. eigenvalues --  -10.18392 -10.18377 -10.18257 -10.18241 -10.18156
 Alpha  occ. eigenvalues --  -10.18019 -10.17755 -10.16901 -10.16727 -10.16660
 Alpha  occ. eigenvalues --   -0.92287  -0.88948  -0.87772  -0.85367  -0.84039
 Alpha  occ. eigenvalues --   -0.83256  -0.80528  -0.79775  -0.78375  -0.77462
 Alpha  occ. eigenvalues --   -0.75413  -0.74773  -0.72763  -0.71484  -0.71011
 Alpha  occ. eigenvalues --   -0.66760  -0.65938  -0.64356  -0.63282  -0.62586
 Alpha  occ. eigenvalues --   -0.60135  -0.59256  -0.59099  -0.56551  -0.55962
 Alpha  occ. eigenvalues --   -0.52733  -0.52044  -0.51327  -0.50941  -0.50531
 Alpha  occ. eigenvalues --   -0.49412  -0.48032  -0.47511  -0.46695  -0.45310
 Alpha  occ. eigenvalues --   -0.44993  -0.44597  -0.43695  -0.43599  -0.43281
 Alpha  occ. eigenvalues --   -0.42707  -0.42308  -0.41404  -0.40968  -0.40458
 Alpha  occ. eigenvalues --   -0.40253  -0.39942  -0.39356  -0.38490  -0.37352
 Alpha  occ. eigenvalues --   -0.37205  -0.36490  -0.35650  -0.35556  -0.34554
 Alpha  occ. eigenvalues --   -0.34144  -0.33696  -0.32847  -0.32801  -0.32327
 Alpha  occ. eigenvalues --   -0.31025  -0.29773  -0.27767  -0.26738  -0.25493
 Alpha  occ. eigenvalues --   -0.23845  -0.21549  -0.21083  -0.20562
 Alpha virt. eigenvalues --   -0.08898  -0.05550  -0.04811  -0.04474  -0.01012
 Alpha virt. eigenvalues --   -0.00686  -0.00060   0.00541   0.00629   0.01261
 Alpha virt. eigenvalues --    0.01520   0.01575   0.02283   0.02798   0.02881
 Alpha virt. eigenvalues --    0.02953   0.03805   0.04005   0.04364   0.04735
 Alpha virt. eigenvalues --    0.04983   0.05177   0.05695   0.05955   0.06606
 Alpha virt. eigenvalues --    0.06783   0.06890   0.07598   0.07882   0.08227
 Alpha virt. eigenvalues --    0.08301   0.08703   0.09077   0.09198   0.09726
 Alpha virt. eigenvalues --    0.10074   0.10271   0.10742   0.11014   0.11340
 Alpha virt. eigenvalues --    0.11607   0.11856   0.12345   0.12634   0.13021
 Alpha virt. eigenvalues --    0.13175   0.13924   0.14226   0.14387   0.14775
 Alpha virt. eigenvalues --    0.14907   0.15153   0.15347   0.15576   0.15805
 Alpha virt. eigenvalues --    0.16172   0.16413   0.16579   0.16781   0.16834
 Alpha virt. eigenvalues --    0.17144   0.17262   0.17625   0.17870   0.17999
 Alpha virt. eigenvalues --    0.18115   0.18444   0.18575   0.19026   0.19121
 Alpha virt. eigenvalues --    0.19266   0.19338   0.19834   0.19985   0.20286
 Alpha virt. eigenvalues --    0.20343   0.20541   0.20835   0.21058   0.21226
 Alpha virt. eigenvalues --    0.21505   0.21741   0.21886   0.22177   0.22308
 Alpha virt. eigenvalues --    0.22559   0.22882   0.22947   0.23207   0.23378
 Alpha virt. eigenvalues --    0.23671   0.23882   0.24194   0.24449   0.24626
 Alpha virt. eigenvalues --    0.24908   0.25039   0.25207   0.25575   0.25794
 Alpha virt. eigenvalues --    0.26027   0.26222   0.26282   0.26630   0.26759
 Alpha virt. eigenvalues --    0.27042   0.27213   0.27496   0.27780   0.28238
 Alpha virt. eigenvalues --    0.28802   0.28865   0.29153   0.29240   0.29395
 Alpha virt. eigenvalues --    0.29622   0.30024   0.30121   0.30671   0.30753
 Alpha virt. eigenvalues --    0.31262   0.31603   0.32222   0.32427   0.32530
 Alpha virt. eigenvalues --    0.32842   0.33399   0.33437   0.34121   0.34291
 Alpha virt. eigenvalues --    0.34576   0.34790   0.35469   0.35630   0.36400
 Alpha virt. eigenvalues --    0.36950   0.37097   0.37721   0.38202   0.38741
 Alpha virt. eigenvalues --    0.39040   0.39286   0.39770   0.40117   0.40479
 Alpha virt. eigenvalues --    0.41300   0.41680   0.42344   0.42929   0.43055
 Alpha virt. eigenvalues --    0.43408   0.44017   0.44394   0.45090   0.45880
 Alpha virt. eigenvalues --    0.47016   0.47498   0.47948   0.48439   0.49521
 Alpha virt. eigenvalues --    0.49716   0.50603   0.51263   0.51656   0.52464
 Alpha virt. eigenvalues --    0.52552   0.52804   0.52899   0.53393   0.53826
 Alpha virt. eigenvalues --    0.54362   0.54868   0.54928   0.55374   0.56169
 Alpha virt. eigenvalues --    0.56197   0.56541   0.56984   0.57572   0.57965
 Alpha virt. eigenvalues --    0.58409   0.58654   0.58971   0.59204   0.59619
 Alpha virt. eigenvalues --    0.59955   0.60042   0.60640   0.60762   0.60937
 Alpha virt. eigenvalues --    0.61360   0.61611   0.62505   0.62746   0.63425
 Alpha virt. eigenvalues --    0.63625   0.64230   0.64606   0.65202   0.65655
 Alpha virt. eigenvalues --    0.66072   0.66253   0.66730   0.67169   0.67437
 Alpha virt. eigenvalues --    0.68030   0.68440   0.69143   0.69779   0.70191
 Alpha virt. eigenvalues --    0.70461   0.70759   0.71213   0.71503   0.71605
 Alpha virt. eigenvalues --    0.72155   0.72425   0.72446   0.72663   0.73362
 Alpha virt. eigenvalues --    0.73675   0.73962   0.74401   0.74696   0.75202
 Alpha virt. eigenvalues --    0.75640   0.75959   0.76127   0.76564   0.76843
 Alpha virt. eigenvalues --    0.77057   0.77441   0.77551   0.78365   0.78727
 Alpha virt. eigenvalues --    0.78896   0.79969   0.81925   0.82239   0.82946
 Alpha virt. eigenvalues --    0.83620   0.85100   0.85346   0.86025   0.86696
 Alpha virt. eigenvalues --    0.87073   0.87512   0.88334   0.88597   0.89180
 Alpha virt. eigenvalues --    0.89443   0.90059   0.90145   0.90478   0.91435
 Alpha virt. eigenvalues --    0.91613   0.92076   0.93052   0.93133   0.93417
 Alpha virt. eigenvalues --    0.93570   0.94051   0.94492   0.94797   0.94898
 Alpha virt. eigenvalues --    0.95323   0.95450   0.96076   0.96221   0.96339
 Alpha virt. eigenvalues --    0.97203   0.97929   0.98483   0.98690   0.99255
 Alpha virt. eigenvalues --    0.99838   1.00594   1.00651   1.01166   1.01883
 Alpha virt. eigenvalues --    1.02540   1.03330   1.03782   1.04389   1.05123
 Alpha virt. eigenvalues --    1.05528   1.05925   1.06402   1.07052   1.07641
 Alpha virt. eigenvalues --    1.08562   1.08740   1.10093   1.10693   1.10972
 Alpha virt. eigenvalues --    1.11656   1.12109   1.13356   1.13560   1.15573
 Alpha virt. eigenvalues --    1.16072   1.17371   1.18384   1.18436   1.19365
 Alpha virt. eigenvalues --    1.20889   1.21662   1.22513   1.23372   1.24455
 Alpha virt. eigenvalues --    1.26157   1.27432   1.28889   1.29815   1.31398
 Alpha virt. eigenvalues --    1.31590   1.34248   1.35150   1.35278   1.36103
 Alpha virt. eigenvalues --    1.36863   1.38669   1.39285   1.40878   1.42069
 Alpha virt. eigenvalues --    1.42719   1.43399   1.44289   1.45136   1.45651
 Alpha virt. eigenvalues --    1.46242   1.46477   1.46928   1.48003   1.49058
 Alpha virt. eigenvalues --    1.49351   1.49861   1.50205   1.50644   1.50891
 Alpha virt. eigenvalues --    1.51698   1.52494   1.52792   1.53641   1.54281
 Alpha virt. eigenvalues --    1.54906   1.55365   1.56179   1.56875   1.57349
 Alpha virt. eigenvalues --    1.57471   1.58806   1.59278   1.60162   1.60491
 Alpha virt. eigenvalues --    1.61108   1.62167   1.62398   1.62951   1.63498
 Alpha virt. eigenvalues --    1.63786   1.65278   1.65572   1.66077   1.67694
 Alpha virt. eigenvalues --    1.68131   1.68812   1.69193   1.70583   1.71188
 Alpha virt. eigenvalues --    1.72028   1.72246   1.73104   1.73565   1.74077
 Alpha virt. eigenvalues --    1.74685   1.74884   1.75630   1.76203   1.76848
 Alpha virt. eigenvalues --    1.77623   1.78367   1.78812   1.79876   1.80426
 Alpha virt. eigenvalues --    1.81062   1.82068   1.82348   1.83028   1.83480
 Alpha virt. eigenvalues --    1.84400   1.85377   1.85654   1.85797   1.86792
 Alpha virt. eigenvalues --    1.87018   1.87856   1.88461   1.88874   1.89780
 Alpha virt. eigenvalues --    1.89994   1.91296   1.91501   1.92170   1.93149
 Alpha virt. eigenvalues --    1.93316   1.93947   1.94281   1.94884   1.95083
 Alpha virt. eigenvalues --    1.95674   1.95963   1.97758   1.98615   1.99711
[...]
 ,0.00000024,0.00000060,0.00000368,0.00000245,0.00000027,0.00000177,0.0
 0000335,-0.00000094,-0.00000446,0.00000614,0.00000039,-0.00001149,0.00
 002190,0.00000236,-0.00000648,-0.00000999,0.00000286,-0.00002032,-0.00
 005661,0.00001615,0.00089963,-0.00015311,0.00014930,0.11486252,0.00000
 531,-0.00004070,-0.00000044,-0.00000280,0.00004201,0.00000539,-0.00001
 828,-0.00001518,0.00001596,0.00005327,-0.00000368,-0.00001302,-0.00004
 945,0.00002840,0.00000494,0.00003230,0.00003346,0.00000259,0.00002894,
 0.00003096,-0.00001323,0.00019779,-0.00001047,-0.00020715,-0.00003695,
 -0.00000419,-0.00002550,0.00002890,-0.00002200,0.00002096,-0.00000141,
 0.00012134,-0.00005899,-0.00055093,0.00032291,-0.00030246,-0.00001990,
 0.00236905,0.00233830,-0.00001460,-0.00023261,0.00002915,0.00000204,-0
 .00000947,-0.00000336,0.00003431,0.00000221,0.00000629,-0.00005763,0.0
 0000887,0.00000817,0.00000223,0.00003582,-0.00003056,-0.00156103,0.001
 07033,0.00135131,-0.00363650,-0.00062923,0.00231647,0.01009703,-0.0160
 0568,0.00333173,0.10710075,-0.26435449,0.06033918,-0.00001627,-0.00002
 530,-0.00000584,-0.00002294,0.00000875,-0.00001014,0.00005932,-0.00011
 364,-0.00001730,-0.00045362,-0.00007657,0.00014150,0.00093695,-0.00092
 436,-0.00032496,0.00000468,-0.00009288,0.00002537,-0.00002902,-0.00006
 203,0.00000170,0.00003490,0.00000829,-0.00002645,-0.00003459,-0.000010
 31,0.00000593,0.00013200,0.00002554,0.00000392,-0.00002912,-0.00000487
 ,-0.00004282,-0.00000824,-0.00001680,0.00000269,-0.00000577,-0.0000241
 0,-0.00000284,0.00000546,-0.00000912,0.00000113,0.00000296,-0.00000657
 ,-0.00000098,0.00000267,-0.00000647,-0.00000270,0.00000575,0.00000038,
 0.00000017,0.00000548,-0.00000441,0.00000405,0.00000817,0.00000583,-0.
 00000149,0.00001349,0.00001589,0.00007965,0.00030686,0.00056812,-0.001
 96052,-0.11224598,0.27783292,-0.00001975,-0.00003807,-0.00000119,-0.00
 004563,0.00004519,0.00000806,-0.00006242,0.00008938,0.00004527,0.00010
 309,0.00005358,-0.00002947,0.00000010,0.00001430,0.00000353,-0.0000010
 9,0.00000218,-0.00000662,0.00034477,0.00011171,0.00011224,0.00026954,-
 0.00041117,-0.00096284,-0.00010283,-0.00000089,-0.00010973,0.00001687,
 -0.00010611,0.00008797,-0.00032845,0.00022436,-0.00056984,0.00056159,-
 0.00027108,-0.00033368,0.00051954,0.00204621,0.01060267,-0.00049136,-0
 .00004657,0.00017891,0.00001763,0.00000513,0.00000435,-0.00001308,0.00
 001145,0.00000431,0.00001357,-0.00001148,0.00002187,-0.00000130,-0.000
 04239,-0.00003129,-0.00079187,0.00222391,0.00562978,0.00065186,-0.0003
 2869,0.00025346,-0.00460976,0.00542075,0.00209123,-0.02669367,0.060505
 30,-0.05142293,0.00000481,0.00000065,-0.00000387,0.00000860,0.00000753
 ,-0.00001082,-0.00002606,0.00003128,-0.00002755,0.00010761,0.00001742,
 -0.00006871,-0.00030122,0.00025699,0.00025636,0.00001327,0.00005575,-0
 .00001185,0.00000076,0.00001018,0.00001346,-0.00000541,-0.00002183,-0.
 00001319,0.00001139,0.00000528,0.00000264,-0.00000048,-0.00000339,0.00
 001623,0.00001746,0.00001268,0.00002157,0.00000206,0.00000115,0.000000
 91,0.00000188,0.00000375,0.00000950,-0.00000078,0.00000178,0.00000230,
 0.00000058,0.00000277,0.00000057,-0.00000108,0.00000247,-0.00000311,-0
 .00000297,0.00000229,0.00000254,-0.00000051,-0.00000597,0.00001837,-0.
 00000369,0.00000144,-0.00000409,-0.00002892,0.00004808,0.00034526,0.00
 010194,-0.00200057,-0.00646611,0.02990048,-0.06676934,0.04005831,0.000
 25383,0.00022929,0.00005005,-0.00054390,-0.00019335,0.00002114,0.00028
 494,0.00036879,-0.00005807,-0.00030828,-0.00025237,-0.00014367,0.00000
 017,0.00005701,0.00001188,0.00009018,-0.00004221,-0.00001528,0.0007655
 0,0.00009974,0.00211620,-0.00061039,-0.00027226,-0.00025839,0.00033217
 ,-0.00011536,-0.00019560,-0.00021333,0.00031724,0.00005537,-0.00139234
 ,-0.00063545,-0.00059379,-0.00727263,-0.00354264,-0.03253150,-0.000640
 98,0.00004343,-0.00045094,-0.00055429,0.00061660,0.00110932,-0.0002429
 5,0.00014985,-0.00002113,0.00020221,0.00001634,0.00010171,0.00018181,0
 .00019968,0.00037545,0.00006887,-0.00075950,-0.00042621,-0.00018769,0.
 00050405,-0.00065831,-0.04090184,-0.00052644,-0.00272941,-0.00133743,0
 .00416853,0.01390243,0.00031684,-0.00056831,0.00004609,-0.00012734,-0.
 00010091,-0.00001758,0.00012839,-0.00000505,0.00002705,-0.00047239,0.0
 0024834,-0.00033583,0.00021141,0.00087394,0.00014899,-0.00310595,-0.00
 220713,0.01764195,0.00003778,-0.00061763,0.00063845,-0.00026435,-0.000
 35440,0.00001758,-0.00017143,-0.00008581,-0.00120624,-0.00009387,-0.00
 003629,0.00004301,0.00019440,0.00006895,0.00077126,-0.00026992,-0.0001
 0446,0.00012130,0.00003336,-0.00004052,0.00012132,0.00000182,0.0000020
 1,-0.00000233,0.00000900,-0.00000401,-0.00000135,0.00000923,-0.0000012
 3,-0.00000105,0.00000639,0.00001110,-0.00000209,-0.00001302,0.00001453
 ,-0.00000259,-0.00000013,0.00001263,0.00001047,-0.00004221,-0.00001461
 ,0.00001901,-0.00006545,-0.00005549,-0.00003143,0.00002417,-0.00003008
 ,0.00007563,-0.00001391,0.00000264,0.00009514,0.05607415,0.00016633,-0
 .00008579,0.00001757,0.00000358,0.00002781,-0.00005475,0.00010669,-0.0
 0024454,0.00004407,-0.00031165,-0.00025051,0.00000553,-0.00017073,-0.0
 0002408,-0.00000405,0.00006435,0.00011133,0.00000363,-0.00095391,-0.00
 007212,-0.00027402,-0.00034310,0.00093263,-0.00012797,0.00031612,-0.00
 022156,0.00002168,0.00006091,0.00041386,0.00000533,0.00132463,-0.00025
 081,0.00017213,0.00124355,0.00233873,0.00122058,-0.00174004,-0.0003026
 1,-0.00005159,0.00108596,-0.00050705,0.00006858,0.00003733,0.00006022,
 0.00001172,-0.00000705,-0.00015206,-0.00009038,0.00016927,0.00013663,-
 0.00002314,0.00025795,-0.00020617,-0.00008565,-0.00051177,0.00022477,0
 .00061689,0.00003788,-0.04642787,-0.02765236,0.00349572,-0.00848222,-0
 .03072007,0.00080280,0.00170496,0.00006780,0.00004042,-0.00002415,-0.0
 0000093,0.00006422,0.00012905,0.00010592,0.00009485,0.00048582,-0.0005
 6679,-0.00068849,0.00035301,0.00077298,-0.00571142,-0.00139270,0.02313
 839,0.00097385,-0.00097138,0.00066422,-0.00078865,0.00021678,0.0001939
 5,-0.00048767,-0.00077422,-0.00114430,-0.00009865,-0.00003714,-0.00004
 802,-0.00008531,-0.00011440,0.00046610,-0.00028901,-0.00026430,0.00061
 982,0.00003276,-0.00000916,0.00011371,-0.00000205,0.00001546,-0.000003
 32,0.00001630,-0.00000413,-0.00000274,-0.00000283,-0.00000057,0.000003
 94,-0.00000046,-0.00000037,0.00000153,-0.00000135,0.00000439,0.0000005
 4,-0.00000182,0.00000515,0.00000122,-0.00000249,-0.00000680,0.00000800
 ,-0.00001073,-0.00002372,-0.00004690,-0.00005533,-0.00003156,-0.000064
 85,0.00002990,-0.00003512,-0.00012884,-0.00006254,0.05776954,0.0001717
 8,0.00018336,0.00005930,0.00024952,-0.00008543,0.00003792,0.00000790,-
 0.00027889,-0.00002379,-0.00019566,-0.00011265,-0.00000745,-0.00009425
 ,-0.00004434,-0.00000798,0.00002443,0.00009138,0.00000839,-0.00101386,
 0.00008810,0.00046978,0.00008493,0.00022288,-0.00018213,0.00005616,-0.
 00000421,-0.00005069,0.00003967,0.00012560,0.00001843,0.00067672,-0.00
 227436,0.00119111,-0.00921891,-0.00095304,-0.01105200,-0.00035224,0.00
 184168,0.00000185,-0.00012944,-0.00009154,0.00022058,-0.00022493,-0.00
 000041,0.00000063,0.00000374,-0.00038558,-0.00008156,-0.00091092,0.000
 71613,-0.00039893,0.00030691,0.00100499,-0.00040599,0.00049267,-0.0008
 8585,0.00015291,0.00182813,-0.03247147,-0.27777282,0.00107530,-0.00279
 765,-0.00633299,-0.00036343,-0.00018870,-0.00001038,0.00005088,0.00001
 407,-0.00001381,0.00002096,0.00003648,-0.00000472,0.00069784,0.0002402
 4,0.00023961,0.00048400,-0.00175237,0.00090314,0.00531800,0.00375719,-
 0.01260005,-0.00112900,0.00081989,0.00042513,-0.00014431,-0.00020065,-
 0.00015598,0.00060450,0.00059951,0.00031860,0.00008279,0.00003547,0.00
 004851,-0.00013507,-0.00012708,-0.00033406,0.00010470,0.00020718,-0.00
 056691,-0.00000955,0.00002737,-0.00005599,0.00000600,0.00000408,0.0000
 0031,0.00000057,0.00000956,-0.00000015,-0.00000526,0.00000628,0.000007
 44,-0.00000128,0.00000541,-0.00000254,-0.00000405,0.00000359,-0.000008
 91,-0.00000307,0.00000701,-0.00000009,-0.00001118,-0.00000654,0.000000
 32,-0.00006243,-0.00000914,0.00000701,0.00000101,-0.00004562,-0.000048
 33,-0.00008466,-0.00011366,0.00000779,0.00062444,0.03344393,0.30379611
 ,0.00004104,-0.00001997,-0.00000130,-0.00011123,0.00010491,-0.00003647
 ,-0.00007693,0.00005326,0.00006938,-0.00000326,-0.00003525,0.00001921,
 -0.00004280,0.00003692,0.00000466,0.00003261,0.00002486,0.00000569,0.0
 0022266,0.00029475,-0.00020380,-0.00002535,-0.00007862,-0.00001369,0.0
 0008430,0.00000227,0.00001326,-0.00004397,0.00006336,-0.00000313,-0.00
 106124,-0.00038370,-0.00037872,0.00067873,0.00296754,0.00098020,0.0006
 0538,-0.00001929,-0.00041449,-0.00009609,-0.00000005,-0.00003592,-0.00
 001666,0.00005260,0.00001155,-0.00001583,-0.00000568,0.00000975,-0.000
 07554,-0.00000021,0.00003590,0.00001922,-0.00023491,0.00007647,0.00035
 251,-0.00386019,0.00051385,-0.01209580,0.00158057,-0.00558467,-0.23091
 469,0.02106121,-0.11826651,-0.02018559,0.00007917,-0.00929692,-0.00003
 737,-0.00008063,-0.00002206,0.00009299,0.00003827,0.00003686,-0.000011
 74,0.00000127,0.00004228,0.00006971,0.00014692,-0.00022234,-0.00002556
 ,-0.00020708,0.00002269,-0.00095683,-0.00077880,0.00200809,-0.00008811
 ,-0.00000061,-0.00016664,0.00029686,-0.00038642,0.00000033,0.00001548,
 0.00000181,0.00006685,-0.00029600,-0.00279727,0.00143494,-0.00003955,-
 0.00000375,-0.00007686,0.00000311,-0.00003908,-0.00002310,0.00000471,0
 .00000595,-0.00000331,0.00000554,0.00000827,-0.00000404,0.00000206,0.0
 0000830,0.00000185,-0.00000172,0.00000792,0.,-0.00000813,0.00001200,-0
 .00000130,-0.00000891,0.00000673,-0.00000115,-0.00001213,-0.00000719,0
 .00000321,-0.00000445,-0.00000289,0.00002024,-0.00089311,0.00028906,0.
 00075966,0.00118941,0.00002418,0.00065935,0.00041048,-0.00035180,0.000
 31114,0.25703091,-0.00001353,-0.00003176,-0.00001021,0.00003512,-0.000
 01027,0.00002728,0.00020778,-0.00008546,-0.00002869,-0.00004521,-0.000
 00040,-0.00003372,-0.00001048,-0.00000256,-0.00000073,0.00001163,-0.00
 000110,0.00000426,-0.00019894,-0.00032349,0.00022337,0.00011256,0.0000
 0298,0.00000845,-0.00001762,0.00001991,-0.00003663,0.00005813,0.000009
 09,0.00000533,0.00182575,0.00056545,0.00061583,0.00003103,-0.00597154,
 -0.00133870,0.00013721,-0.00059286,-0.00032011,-0.00003653,0.00021315,
 -0.00007247,0.00001810,-0.00004685,-0.00000293,-0.00002670,0.00002729,
 0.00002105,0.00007977,0.00000361,0.00001333,-0.00002681,0.00032083,-0.
 00011203,-0.00166125,-0.00382571,0.00149278,0.02554167,-0.00321483,0.0
 1502792,0.01953423,-0.04820390,0.00986745,-0.02395819,0.00109922,-0.01
 398708,0.00004729,0.00004571,0.00000854,-0.00007404,-0.00002603,0.0000
 1723,0.00012382,-0.00002785,-0.00000609,-0.00022202,-0.00014860,-0.000
 23572,0.00085735,0.00062450,-0.00033095,-0.00051806,-0.00098091,0.0007
 4306,-0.00010671,0.00017158,0.00002320,-0.00027477,-0.00022779,-0.0000
 3893,-0.00001164,-0.00001905,0.00003902,-0.00112540,-0.00180218,0.0020
 9585,0.00003977,-0.00001372,-0.00003502,-0.00000418,0.00001438,0.00001
 280,-0.00000310,-0.00000081,0.00000134,-0.00000745,-0.00000178,-0.0000
 0613,-0.00000094,-0.00000179,-0.00000127,0.00000247,-0.00000253,-0.000
 00091,0.00000193,-0.00000737,-0.00000083,-0.00000049,0.00000145,0.0000
 0442,0.00001730,-0.00000061,-0.00000402,0.00008786,0.00003701,0.000037
 36,-0.00090028,0.00036676,0.00118668,0.00025389,0.00087137,-0.00011261
 ,-0.00024452,0.00145514,0.00023768,-0.01655513,0.05989789,0.00001866,-
 0.00000045,-0.00000198,-0.00003457,0.00002609,-0.00000366,0.00007410,0
 .00000067,-0.00004145,-0.00001797,-0.00003076,0.00000394,-0.00001704,0
 .00002610,0.00000612,0.00003422,-0.00000119,0.00000216,0.00012128,-0.0
 0008795,-0.00004604,0.00003989,-0.00011516,0.00005234,0.00001287,0.000
 03509,0.00000187,-0.00001290,0.00001101,-0.00000073,0.00031996,0.00008
 013,0.00034814,0.00081780,-0.00153569,0.00063108,0.00032925,-0.0003889
 6,0.00011495,-0.00015580,0.00010387,-0.00008820,-0.00000594,0.00001356
 ,-0.00000391,-0.00000174,-0.00004424,-0.00000145,-0.00011141,-0.000015
 92,0.00000772,0.00004722,-0.00001774,0.00001805,0.00018757,0.00119183,
 -0.00002871,0.00715198,-0.00136359,0.00231187,-0.11820425,0.01121670,-
 0.11884383,0.01104186,0.00053854,0.00494522,-0.00000336,-0.00005847,-0
 .00001539,0.00005259,0.00004476,0.00003149,0.00005139,-0.00001120,-0.0
 0001035,0.00018758,-0.00004411,-0.00018324,-0.00014338,0.00000898,0.00
 018959,-0.00077798,0.00101993,0.00078465,-0.00014046,-0.00000880,-0.00
 008257,0.00027576,-0.00047448,-0.00004810,0.00002539,0.00003253,0.0000
 3713,0.00104715,0.00092932,-0.00146306,-0.00008472,0.00013204,-0.00007
 737,-0.00000244,-0.00007170,-0.00002509,-0.00000309,-0.00000104,0.0000
 0062,0.00000570,-0.00000125,-0.00000094,0.00000157,-0.00000049,0.00000
 318,0.00000158,-0.00000002,-0.00000060,-0.00000016,0.00000055,0.000001
 78,-0.00000034,0.00000301,-0.00000117,0.00000116,-0.00000048,-0.000000
 72,0.00000400,0.00000187,-0.00001016,0.00038303,0.00000932,-0.00033524
 ,-0.00045487,-0.00063248,0.00058270,0.00052558,0.00038530,0.00105021,0
 .12407405,-0.01355327,0.12781564,-0.00001119,-0.00003020,-0.00001423,0
 .00001761,0.00002963,0.00001256,-0.00000235,-0.00002510,-0.00007861,0.
 00001361,0.00001167,0.00001557,-0.00000479,0.00001080,0.00000850,0.000
 00172,0.00000558,0.00000578,0.00001128,0.00007708,-0.00003875,0.000033
 11,-0.00000335,0.00010745,0.00000431,0.00000863,-0.00001488,-0.0000019
 7,0.00000632,-0.00000250,-0.00018143,0.00024504,0.00007774,0.00081273,
 -0.00047275,0.00004656,-0.00001460,0.00000454,0.00051860,-0.00011032,0
 .00004117,-0.00015456,0.00001358,0.00001028,-0.00000179,-0.00001415,-0
 .00001028,0.00002662,0.00005547,0.00000406,-0.00001615,-0.00003962,-0.
 00002530,0.00000538,0.00042313,-0.00242140,0.00049859,-0.00314945,0.00
 263313,0.01442098,-0.05711567,0.00960192,0.05552025,-0.01006501,-0.002
 03926,0.02148421,0.00000765,0.00000294,-0.00000541,-0.00000678,0.00001
 598,0.00002658,-0.00006637,-0.00005632,0.00001168,-0.00017238,0.000151
 68,-0.00014812,-0.00007317,-0.00109865,-0.00037130,-0.00004659,-0.0010
 5013,-0.00099524,0.00007486,0.00003078,0.00006860,0.00000884,-0.000017
 45,0.00011631,-0.00000157,0.00000244,-0.00005567,-0.00130686,-0.001699
 95,-0.00065070,0.00009627,-0.00014588,0.00012405,-0.00000163,0.0000252
 6,-0.00000602,0.00000400,0.00000063,-0.00000031,-0.00000004,0.00000344
 ,-0.00000289,-0.00000064,0.00000341,0.00000097,-0.00000132,0.00000186,
 -0.00000156,-0.00000171,0.00000136,0.00000099,-0.00000371,0.00000189,0
 .00000229,0.00000140,-0.00000241,0.00000190,0.00003096,-0.00000260,-0.
 00005000,-0.00018696,-0.00039257,-0.00154197,0.00000327,-0.00033337,0.
 00010846,-0.00079111,0.00225351,0.00076880,0.00599089,-0.00298067,-0.0
 2666076,0.06576669,-0.00001188,-0.00012196,-0.00002817,-0.00006475,0.0
 0019014,0.00000569,-0.00005510,-0.00002084,0.00011112,0.00010113,0.000
 03489,-0.00002495,-0.00009021,0.00005623,0.00002000,0.00005975,0.00005
 382,-0.00000153,0.00005430,0.00007462,-0.00012896,0.00032785,-0.000242
 62,0.00007719,-0.00006824,0.00013184,-0.00001243,0.00002299,-0.0000833
 2,0.00000622,0.00007316,0.00007795,-0.00019035,-0.00180923,0.00046854,
 -0.00015371,0.00081021,-0.00004166,0.00147891,-0.00037980,0.00033422,-
 0.00028221,0.00005799,-0.00001986,-0.00000181,-0.00005833,-0.00001162,
 0.00002183,-0.00009897,0.00008557,-0.00003947,0.00002057,0.00009086,0.
 00003308,-0.00012450,-0.00154078,0.00065233,0.00597378,-0.00540120,-0.
 02891190,0.00678731,-0.04517222,-0.01728252,-0.00957146,0.00157641,0.0
 2331257,0.00005793,-0.00000058,-0.00000362,-0.00002680,0.00006622,-0.0
 0000360,0.00031081,0.00002694,-0.00007736,0.00009753,-0.00033723,0.000
 28537,0.00045741,0.00189120,-0.00042092,-0.00071484,-0.00075625,-0.000
 33535,-0.00009737,0.00021259,0.00007763,-0.00019499,-0.00004643,0.0001
 2948,-0.00001507,-0.00000877,-0.00006078,-0.00160569,-0.00114263,-0.00
 071092,-0.00007303,0.00011081,-0.00016236,-0.00000733,0.00002047,-0.00
 000920,0.00000276,0.00000049,0.00000047,-0.00000108,0.00000501,-0.0000
 0021,0.00000401,0.00000846,-0.00000318,0.00000145,0.00000533,-0.000003
 40,-0.00000702,0.00000919,-0.00000128,-0.00001222,0.00000576,0.0000016
 1,-0.00000092,-0.00000562,0.00000477,0.00006346,0.00001013,0.00001151,
 -0.00007869,-0.00042141,-0.00178860,0.00041613,-0.00066220,-0.00091598
 ,0.00286792,-0.00546816,-0.00089986,-0.00102357,-0.00017558,0.00264826
 ,-0.00237738,0.05613324,-0.00012536,0.00000289,-0.00001336,0.00000716,
 -0.00007507,0.00001701,-0.00005713,0.00019738,-0.00001596,0.00022467,0
 .00021546,0.00000519,0.00015052,-0.00001558,0.00000361,-0.00008967,-0.
 00011527,-0.00001290,0.00051446,0.00000608,0.00004005,0.00037236,-0.00
 069679,0.00011927,-0.00036870,0.00016680,0.00002056,0.00000359,-0.0003
 5769,-0.00000450,-0.00017209,0.00045441,0.00008818,0.00037987,-0.00053
 507,0.00001749,0.00156841,-0.00130920,-0.00003034,-0.00106164,0.000356
 58,-0.00020098,0.00008122,-0.00001407,0.00000199,-0.00004473,0.0000917
 2,0.00000691,0.00011683,-0.00002811,-0.00006054,-0.00005227,0.00009669
 ,-0.00004993,-0.00298062,0.00180825,0.00039155,0.00118966,-0.00308644,
 -0.00599760,0.05098441,-0.02518806,-0.27190989,0.00670266,0.00456773,-
 0.00565886,0.00002690,0.00008672,0.00002632,-0.00008634,-0.00004268,-0
 .00003158,0.00005917,0.00001708,-0.00000718,-0.00023235,-0.00004240,0.
 00024515,0.00071467,0.00083545,0.00006207,0.00124771,-0.00003998,0.000
 85535,0.00009519,0.00016892,-0.00008295,-0.00047044,0.00051772,0.00010
 426,-0.00000260,-0.00004223,0.00001703,-0.00086856,0.00042633,0.000212
 94,0.00004975,-0.00014132,0.00021613,-0.00000127,0.00007381,0.00003033
 ,-0.00000342,-0.00000017,-0.00000468,-0.00000704,-0.00000252,0.0000010
 2,-0.00000097,-0.00000320,-0.00000400,-0.00000139,-0.00000343,0.000000
 69,0.00000381,-0.00000802,-0.00000033,0.00000395,-0.00001120,-0.000001
 69,0.00000695,0.00000955,-0.00001145,0.00000270,0.00001293,0.00001973,
 0.00012006,0.00006930,0.00020001,0.00058100,0.00052968,-0.00030526,0.0
 0101194,-0.00108443,0.00115317,0.00357492,-0.00144514,-0.01762649,-0.0
 6316796,0.02357658,0.29817445\\0.00000172,0.00000105,-0.00000048,0.000
 00111,0.00000101,-0.00000067,0.00000062,0.00000164,-0.00000106,0.00000
 068,0.00000255,-0.00000209,0.00000203,0.00000190,-0.00000111,0.0000014
 8,0.00000255,-0.00000179,-0.00000021,0.00000136,-0.00000145,-0.0000009
 1,0.00000185,-0.00000165,-0.00000075,0.00000270,-0.00000251,0.00000002
 ,0.00000301,-0.00000245,-0.00000023,0.00000058,-0.00000037,-0.00000089
 ,0.,-0.00000033,-0.00000185,0.00000060,-0.00000079,-0.00000179,0.00000
 139,-0.00000161,0.00000210,0.00000035,0.00000018,0.00000168,-0.0000003
 8,0.00000081,0.00000112,-0.00000061,0.00000069,0.00000055,0.00000031,-
 0.00000014,-0.00000277,0.00000004,-0.00000077,-0.00000129,-0.00000093,
 0.00000111,-0.00000199,-0.00000120,0.00000052,-0.00000281,-0.00000070,
 0.,0.00000199,-0.00000118,0.00000139,0.00000180,-0.00000191,0.00000203
 ,0.00000085,-0.00000198,0.00000198,0.00000038,-0.00000035,0.00000147,-
 0.00000185,-0.00000197,-0.00000110,0.00000092,-0.00000216,0.00000168,0
 .00000102,-0.00000239,0.00000248,0.00000002,-0.00000334,0.00000239,0.0
 0000010,-0.00000335,0.00000282,-0.00000091,-0.00000221,0.00000161,0.00
 000115,-0.00000053,0.00000194,0.00000133,-0.00000319,0.00000298,0.0000
 0218,-0.00000244,0.00000255,0.00000266,-0.00000117,0.00000158,0.000002
 62,0.00000027,0.00000036,0.00000252,0.00000202,-0.00000111,0.00000167,
 0.00000317,-0.00000226,0.00000008,0.00000365,-0.00000303,-0.00000128,0
 .00000314,-0.00000293,-0.00000239,0.00000172,-0.00000199,-0.00000339,0
 .00000045,-0.00000115,-0.00000354,-0.00000105,0.00000006,-0.00000175,-
 0.00000111,0.00000051,-0.00000231,-0.00000190,0.00000104,-0.00000149,-
 0.00000125,0.00000069\\\@


 THE ONLY DIFFERENCE BETWEEN ECCENTRICS AND JOGGERS
 IS THAT JOGGERS WEAR SWEATBANDS WHEN THEY RUN IN THE RAIN.
 Job cpu time:       2 days 10 hours 34 minutes 41.7 seconds.
 Elapsed time:       0 days  2 hours 56 minutes 13.2 seconds.
 File lengths (MBytes):  RWF=   4594 Int=      0 D2E=      0 Chk=     65 Scr=      1
 Normal termination of Gaussian 16 at Sat Jun 15 01:11:42 2019.
