 Entering Gaussian System, Link 0=/share/apps/gaussian16/g16/g16
 Initial command:
 /share/apps/gaussian16/g16/l1.exe "/home/amen01//scratch/526/Gau-14038.inp" -scrdir="/home/amen01//scratch/526/"
 Entering Link 1 = /share/apps/gaussian16/g16/l1.exe PID=     14039.
  
 Copyright (c) 1988-2017, Gaussian, Inc.  All Rights Reserved.
  
 This is part of the Gaussian(R) 16 program.  It is based on
 the Gaussian(R) 09 system (copyright 2009, Gaussian, Inc.),
 the Gaussian(R) 03 system (copyright 2003, Gaussian, Inc.),
 the Gaussian(R) 98 system (copyright 1998, Gaussian, Inc.),
 the Gaussian(R) 94 system (copyright 1995, Gaussian, Inc.),
 the Gaussian 92(TM) system (copyright 1992, Gaussian, Inc.),
 the Gaussian 90(TM) system (copyright 1990, Gaussian, Inc.),
 the Gaussian 88(TM) system (copyright 1988, Gaussian, Inc.),
 the Gaussian 86(TM) system (copyright 1986, Carnegie Mellon
 University), and the Gaussian 82(TM) system (copyright 1983,
 Carnegie Mellon University). Gaussian is a federally registered
 trademark of Gaussian, Inc.
  
 This software contains proprietary and confidential information,
 including trade secrets, belonging to Gaussian, Inc.
  
 This software is provided under written license and may be
 used, copied, transmitted, or stored only in accord with that
 written license.
  
 The following legend is applicable only to US Government
 contracts under FAR:
  
                    RESTRICTED RIGHTS LEGEND
  
 Use, reproduction and disclosure by the US Government is
 subject to restrictions as set forth in subparagraphs (a)
 and (c) of the Commercial Computer Software - Restricted
 Rights clause in FAR 52.227-19.
  
 Gaussian, Inc.
 340 Quinnipiac St., Bldg. 40, Wallingford CT 06492
  
  
 ---------------------------------------------------------------
 Warning -- This program may not be used in any manner that
 competes with the business of Gaussian, Inc. or will provide
 assistance to any competitor of Gaussian, Inc.  The licensee
 of this program is prohibited from giving any competitor of
 Gaussian, Inc. access to this program.  By using this program,
 the user acknowledges that Gaussian, Inc. is engaged in the
 business of creating and licensing software in the field of
 computational chemistry and represents and warrants to the
 licensee that it is not a competitor of Gaussian, Inc. and that
 it will not use this program in any manner prohibited above.
 ---------------------------------------------------------------
  

 Cite this work as:
 Gaussian 16, Revision B.01,
 M. J. Frisch, G. W. Trucks, H. B. Schlegel, G. E. Scuseria, 
 M. A. Robb, J. R. Cheeseman, G. Scalmani, V. Barone, 
 G. A. Petersson, H. Nakatsuji, X. Li, M. Caricato, A. V. Marenich, 
 J. Bloino, B. G. Janesko, R. Gomperts, B. Mennucci, H. P. Hratchian, 
 J. V. Ortiz, A. F. Izmaylov, J. L. Sonnenberg, D. Williams-Young, 
 F. Ding, F. Lipparini, F. Egidi, J. Goings, B. Peng, A. Petrone, 
 T. Henderson, D. Ranasinghe, V. G. Zakrzewski, J. Gao, N. Rega, 
 G. Zheng, W. Liang, M. Hada, M. Ehara, K. Toyota, R. Fukuda, 
 J. Hasegawa, M. Ishida, T. Nakajima, Y. Honda, O. Kitao, H. Nakai, 
 T. Vreven, K. Throssell, J. A. Montgomery, Jr., J. E. Peralta, 
 F. Ogliaro, M. J. Bearpark, J. J. Heyd, E. N. Brothers, K. N. Kudin, 
 V. N. Staroverov, T. A. Keith, R. Kobayashi, J. Normand, 
 K. Raghavachari, A. P. Rendell, J. C. Burant, S. S. Iyengar, 
 J. Tomasi, M. Cossi, J. M. Millam, M. Klene, C. Adamo, R. Cammi, 
 J. W. Ochterski, R. L. Martin, K. Morokuma, O. Farkas, 
 J. B. Foresman, and D. J. Fox, Gaussian, Inc., Wallingford CT, 2016.
 
 ******************************************
 Gaussian 16:  ES64L-G16RevB.01 20-Dec-2017
                18-Jun-2019 
 ******************************************
 %nprocshared=20
 Will use up to   20 processors via shared memory.
 %mem=100GB
 %chk=7-memb-carbTSguess-3b.chk
 ---------------------------------------------------------------
 # opt=(ts,calcfc,noeigen) freq b3lyp/6-311+g(d,p) int=grid=fine
 ---------------------------------------------------------------
 1/5=1,10=4,11=1,18=20,26=3,38=1/1,3;
 2/9=110,12=2,17=6,18=5,40=1/2;
 3/5=4,6=6,7=111,11=2,25=1,30=1,71=2,74=-5,75=-4,140=1/1,2,3;
 4//1;
 5/5=2,38=5/2;
 8/6=4,10=90,11=11/1;
 11/6=1,8=1,9=11,15=111,16=1/1,2,10;
 10/6=1,13=1/2;
 6/7=2,8=2,9=2,10=2,28=1/1;
 7/10=1,18=20,25=1/1,2,3,16;
 1/5=1,10=4,11=1,18=20,26=3/3(2);
 2/9=110/2;
 99//99;
 2/9=110/2;
 3/5=4,6=6,7=111,11=2,25=1,30=1,71=1,74=-5,75=-4/1,2,3;
 4/5=5,16=3,69=1/1;
 5/5=2,38=5/2;
 7//1,2,3,16;
 1/5=1,11=1,18=20,26=3/3(-5);
 2/9=110/2;
 6/7=2,8=2,9=2,10=2,19=2,28=1/1;
 99/9=1/99;
 ---------------------
 7-memb-carbTSguess-3b
 ---------------------
 Symbolic Z-matrix:
 Charge =  0 Multiplicity = 1
 C                    -1.68242  -2.80396   0.08983 
 C                    -1.49072  -1.42457   0.05125 
 C                    -2.56454  -0.53301  -0.04083 
 C                    -3.89799  -0.87024  -0.06498 
 C                    -3.07911  -3.2094    0.06173 
 C                    -4.12269  -2.30065  -0.00836 
 C                    -2.05066   0.75957  -0.07765 
 C                    -2.86379   1.88706  -0.11844 
 C                    -4.28334   1.57989  -0.15568 
 C                    -4.77135   0.28058  -0.13273 
 C                    -0.64306   0.71078  -0.00012 
 C                     0.0625    1.87771   0.05887 
 C                    -0.72308   3.11163  -0.00648 
 C                    -2.14206   3.0958   -0.09405 
 C                    -0.47955  -3.5253    0.12683 
 C                     0.77819  -2.86499   0.10472 
 C                     0.91776  -1.40574   0.08427 
 C                    -0.2779   -0.71334   0.071 
 C                    -0.02719   4.34754   0.01904 
 C                     1.55228   1.87222   0.2954 
 C                     2.13939   3.22875   0.18342 
 C                     1.3562    4.36958   0.10476 
 C                     1.96355  -3.64392   0.05852 
 C                     3.18709  -3.04041  -0.05441 
 C                     3.35727  -1.63893  -0.08533 
 C                     2.2323   -0.74418   0.02724 
 C                     2.46872   0.66089   0.02526 
 C                     3.88152   1.15878  -0.13214 
 C                     4.70257  -1.14785  -0.23123 
 C                     4.96817   0.16298  -0.26759 
 H                     5.98315   0.53324  -0.36448 
 H                     3.87594   1.8711   -0.98739 
 H                     5.5002   -1.87919  -0.31087 
 H                     4.07964  -3.65358  -0.12152 
 H                     1.88523  -4.725     0.0837 
 H                    -0.47481  -4.61065   0.14635 
 H                    -3.31764  -4.26733   0.09588 
 H                    -5.13774  -2.68517  -0.02283 
 H                    -5.84698   0.13706  -0.16092 
 H                    -4.99659   2.39647  -0.19915 
 H                    -2.65194   4.05366  -0.12135 
 H                    -0.5876    5.27264  -0.04506 
 H                     1.86591   5.32781   0.09806 
 H                     3.20087   3.37563   0.26403 
 H                     1.67827   1.60811   1.58056 
 H                     4.13578   1.82148   0.71217 
 
 Add virtual bond connecting atoms H45        and C20        Dist= 2.49D+00.

 GradGradGradGradGradGradGradGradGradGradGradGradGradGradGradGradGradGrad
 Berny optimization.
 Initialization pass.
                           ----------------------------
                           !    Initial Parameters    !
                           ! (Angstroms and Degrees)  !
 --------------------------                            --------------------------
 ! Name  Definition              Value          Derivative Info.                !
 --------------------------------------------------------------------------------
 ! R1    R(1,2)                  1.3932         calculate D2E/DX2 analytically  !
 ! R2    R(1,5)                  1.4546         calculate D2E/DX2 analytically  !
 ! R3    R(1,15)                 1.4031         calculate D2E/DX2 analytically  !
 ! R4    R(2,3)                  1.3987         calculate D2E/DX2 analytically  !
 ! R5    R(2,18)                 1.4061         calculate D2E/DX2 analytically  !
 ! R6    R(3,4)                  1.3756         calculate D2E/DX2 analytically  !
 ! R7    R(3,7)                  1.3915         calculate D2E/DX2 analytically  !
 ! R8    R(4,6)                  1.4491         calculate D2E/DX2 analytically  !
 ! R9    R(4,10)                 1.4463         calculate D2E/DX2 analytically  !
 ! R10   R(5,6)                  1.3856         calculate D2E/DX2 analytically  !
 ! R11   R(5,37)                 1.085          calculate D2E/DX2 analytically  !
 ! R12   R(6,38)                 1.0855         calculate D2E/DX2 analytically  !
 ! R13   R(7,8)                  1.3907         calculate D2E/DX2 analytically  !
 ! R14   R(7,11)                 1.4106         calculate D2E/DX2 analytically  !
 ! R15   R(8,9)                  1.4529         calculate D2E/DX2 analytically  !
 ! R16   R(8,14)                 1.408          calculate D2E/DX2 analytically  !
 ! R17   R(9,10)                 1.3881         calculate D2E/DX2 analytically  !
 ! R18   R(9,40)                 1.0851         calculate D2E/DX2 analytically  !
 ! R19   R(10,39)                1.0855         calculate D2E/DX2 analytically  !
 ! R20   R(11,12)                1.3649         calculate D2E/DX2 analytically  !
 ! R21   R(11,18)                1.4719         calculate D2E/DX2 analytically  !
 ! R22   R(12,13)                1.4642         calculate D2E/DX2 analytically  !
 ! R23   R(12,20)                1.5085         calculate D2E/DX2 analytically  !
 ! R24   R(13,14)                1.4218         calculate D2E/DX2 analytically  !
 ! R25   R(13,19)                1.4186         calculate D2E/DX2 analytically  !
 ! R26   R(14,41)                1.0855         calculate D2E/DX2 analytically  !
 ! R27   R(15,16)                1.4207         calculate D2E/DX2 analytically  !
 ! R28   R(15,36)                1.0855         calculate D2E/DX2 analytically  !
 ! R29   R(16,17)                1.4661         calculate D2E/DX2 analytically  !
 ! R30   R(16,23)                1.4191         calculate D2E/DX2 analytically  !
 ! R31   R(17,18)                1.3817         calculate D2E/DX2 analytically  !
 ! R32   R(17,26)                1.4727         calculate D2E/DX2 analytically  !
 ! R33   R(19,22)                1.3862         calculate D2E/DX2 analytically  !
 ! R34   R(19,42)                1.0835         calculate D2E/DX2 analytically  !
 ! R35   R(20,21)                1.4824         calculate D2E/DX2 analytically  !
 ! R36   R(20,27)                1.5428         calculate D2E/DX2 analytically  !
 ! R37   R(20,45)                1.318          calculate D2E/DX2 analytically  !
 ! R38   R(21,22)                1.386          calculate D2E/DX2 analytically  !
 ! R39   R(21,44)                1.0746         calculate D2E/DX2 analytically  !
 ! R40   R(22,43)                1.0854         calculate D2E/DX2 analytically  !
 ! R41   R(23,24)                1.369          calculate D2E/DX2 analytically  !
 ! R42   R(23,35)                1.0842         calculate D2E/DX2 analytically  !
 ! R43   R(24,25)                1.4121         calculate D2E/DX2 analytically  !
 ! R44   R(24,34)                1.085          calculate D2E/DX2 analytically  !
 ! R45   R(25,26)                1.4418         calculate D2E/DX2 analytically  !
 ! R46   R(25,29)                1.4395         calculate D2E/DX2 analytically  !
 ! R47   R(26,27)                1.4248         calculate D2E/DX2 analytically  !
 ! R48   R(27,28)                1.5062         calculate D2E/DX2 analytically  !
 ! R49   R(28,30)                1.4801         calculate D2E/DX2 analytically  !
 ! R50   R(28,32)                1.1131         calculate D2E/DX2 analytically  !
 ! R51   R(28,46)                1.103          calculate D2E/DX2 analytically  !
 ! R52   R(29,30)                1.338          calculate D2E/DX2 analytically  !
 ! R53   R(29,33)                1.0851         calculate D2E/DX2 analytically  !
 ! R54   R(30,31)                1.0847         calculate D2E/DX2 analytically  !
 ! A1    A(2,1,5)              114.051          calculate D2E/DX2 analytically  !
 ! A2    A(2,1,15)             113.0658         calculate D2E/DX2 analytically  !
 ! A3    A(5,1,15)             132.8741         calculate D2E/DX2 analytically  !
 ! A4    A(1,2,3)              121.822          calculate D2E/DX2 analytically  !
 ! A5    A(1,2,18)             128.2503         calculate D2E/DX2 analytically  !
 ! A6    A(3,2,18)             109.919          calculate D2E/DX2 analytically  !
 ! A7    A(2,3,4)              126.0907         calculate D2E/DX2 analytically  !
 ! A8    A(2,3,7)              108.079          calculate D2E/DX2 analytically  !
 ! A9    A(4,3,7)              125.8195         calculate D2E/DX2 analytically  !
 ! A10   A(3,4,6)              113.0546         calculate D2E/DX2 analytically  !
 ! A11   A(3,4,10)             113.0231         calculate D2E/DX2 analytically  !
 ! A12   A(6,4,10)             133.9208         calculate D2E/DX2 analytically  !
 ! A13   A(1,5,6)              122.7759         calculate D2E/DX2 analytically  !
 ! A14   A(1,5,37)             118.8321         calculate D2E/DX2 analytically  !
 ! A15   A(6,5,37)             118.392          calculate D2E/DX2 analytically  !
 ! A16   A(4,6,5)              122.1823         calculate D2E/DX2 analytically  !
 ! A17   A(4,6,38)             119.6129         calculate D2E/DX2 analytically  !
 ! A18   A(5,6,38)             118.2047         calculate D2E/DX2 analytically  !
 ! A19   A(3,7,8)              122.5449         calculate D2E/DX2 analytically  !
 ! A20   A(3,7,11)             109.5689         calculate D2E/DX2 analytically  !
 ! A21   A(8,7,11)             127.8145         calculate D2E/DX2 analytically  !
 ! A22   A(7,8,9)              113.617          calculate D2E/DX2 analytically  !
 ! A23   A(7,8,14)             113.3141         calculate D2E/DX2 analytically  !
 ! A24   A(9,8,14)             133.0601         calculate D2E/DX2 analytically  !
 ! A25   A(8,9,10)             122.7492         calculate D2E/DX2 analytically  !
 ! A26   A(8,9,40)             118.9576         calculate D2E/DX2 analytically  !
 ! A27   A(10,9,40)            118.2927         calculate D2E/DX2 analytically  !
 ! A28   A(4,10,9)             122.2275         calculate D2E/DX2 analytically  !
 ! A29   A(4,10,39)            119.6284         calculate D2E/DX2 analytically  !
 ! A30   A(9,10,39)            118.143          calculate D2E/DX2 analytically  !
 ! A31   A(7,11,12)            119.2506         calculate D2E/DX2 analytically  !
 ! A32   A(7,11,18)            106.4802         calculate D2E/DX2 analytically  !
 ! A33   A(12,11,18)           134.1754         calculate D2E/DX2 analytically  !
 ! A34   A(11,12,13)           116.1811         calculate D2E/DX2 analytically  !
 ! A35   A(11,12,20)           120.9431         calculate D2E/DX2 analytically  !
 ! A36   A(13,12,20)           122.6792         calculate D2E/DX2 analytically  !
 ! A37   A(12,13,14)           121.9261         calculate D2E/DX2 analytically  !
 ! A38   A(12,13,19)           118.0475         calculate D2E/DX2 analytically  !
 ! A39   A(14,13,19)           120.0263         calculate D2E/DX2 analytically  !
 ! A40   A(8,14,13)            121.4802         calculate D2E/DX2 analytically  !
 ! A41   A(8,14,41)            121.0863         calculate D2E/DX2 analytically  !
 ! A42   A(13,14,41)           117.4223         calculate D2E/DX2 analytically  !
 ! A43   A(1,15,16)            121.3067         calculate D2E/DX2 analytically  !
 ! A44   A(1,15,36)            121.2143         calculate D2E/DX2 analytically  !
 ! A45   A(16,15,36)           117.4589         calculate D2E/DX2 analytically  !
 ! A46   A(15,16,17)           123.1693         calculate D2E/DX2 analytically  !
 ! A47   A(15,16,23)           119.0032         calculate D2E/DX2 analytically  !
 ! A48   A(17,16,23)           117.7983         calculate D2E/DX2 analytically  !
 ! A49   A(16,17,18)           114.6162         calculate D2E/DX2 analytically  !
 ! A50   A(16,17,26)           122.1836         calculate D2E/DX2 analytically  !
 ! A51   A(18,17,26)           123.1556         calculate D2E/DX2 analytically  !
 ! A52   A(2,18,11)            105.9459         calculate D2E/DX2 analytically  !
 ! A53   A(2,18,17)            119.5408         calculate D2E/DX2 analytically  !
 ! A54   A(11,18,17)           134.4252         calculate D2E/DX2 analytically  !
 ! A55   A(13,19,22)           120.2994         calculate D2E/DX2 analytically  !
 ! A56   A(13,19,42)           119.2797         calculate D2E/DX2 analytically  !
 ! A57   A(22,19,42)           120.4138         calculate D2E/DX2 analytically  !
 ! A58   A(12,20,21)           112.0852         calculate D2E/DX2 analytically  !
 ! A59   A(12,20,27)           124.199          calculate D2E/DX2 analytically  !
 ! A60   A(12,20,45)           104.3605         calculate D2E/DX2 analytically  !
 ! A61   A(21,20,27)           118.0353         calculate D2E/DX2 analytically  !
 ! A62   A(21,20,45)           102.6598         calculate D2E/DX2 analytically  !
 ! A63   A(27,20,45)            87.5138         calculate D2E/DX2 analytically  !
 ! A64   A(20,21,22)           122.2567         calculate D2E/DX2 analytically  !
 ! A65   A(20,21,44)           120.7061         calculate D2E/DX2 analytically  !
 ! A66   A(22,21,44)           116.7374         calculate D2E/DX2 analytically  !
 ! A67   A(19,22,21)           123.6644         calculate D2E/DX2 analytically  !
 ! A68   A(19,22,43)           118.8364         calculate D2E/DX2 analytically  !
 ! A69   A(21,22,43)           117.4945         calculate D2E/DX2 analytically  !
 ! A70   A(16,23,24)           120.4813         calculate D2E/DX2 analytically  !
 ! A71   A(16,23,35)           119.0917         calculate D2E/DX2 analytically  !
 ! A72   A(24,23,35)           120.4015         calculate D2E/DX2 analytically  !
 ! A73   A(23,24,25)           123.1653         calculate D2E/DX2 analytically  !
 ! A74   A(23,24,34)           119.4212         calculate D2E/DX2 analytically  !
 ! A75   A(25,24,34)           117.4132         calculate D2E/DX2 analytically  !
 ! A76   A(24,25,26)           121.3429         calculate D2E/DX2 analytically  !
 ! A77   A(24,25,29)           116.963          calculate D2E/DX2 analytically  !
 ! A78   A(26,25,29)           121.6939         calculate D2E/DX2 analytically  !
 ! A79   A(17,26,25)           114.8788         calculate D2E/DX2 analytically  !
 ! A80   A(17,26,27)           126.2377         calculate D2E/DX2 analytically  !
 ! A81   A(25,26,27)           118.8421         calculate D2E/DX2 analytically  !
 ! A82   A(20,27,26)           132.4906         calculate D2E/DX2 analytically  !
 ! A83   A(20,27,28)           108.4173         calculate D2E/DX2 analytically  !
 ! A84   A(26,27,28)           118.8004         calculate D2E/DX2 analytically  !
 ! A85   A(27,28,30)           118.4116         calculate D2E/DX2 analytically  !
 ! A86   A(27,28,32)           106.6874         calculate D2E/DX2 analytically  !
 ! A87   A(27,28,46)           109.562          calculate D2E/DX2 analytically  !
 ! A88   A(30,28,32)           111.341          calculate D2E/DX2 analytically  !
 ! A89   A(30,28,46)           107.7593         calculate D2E/DX2 analytically  !
 ! A90   A(32,28,46)           101.8185         calculate D2E/DX2 analytically  !
 ! A91   A(25,29,30)           121.4994         calculate D2E/DX2 analytically  !
 ! A92   A(25,29,33)           117.676          calculate D2E/DX2 analytically  !
 ! A93   A(30,29,33)           120.8245         calculate D2E/DX2 analytically  !
 ! A94   A(28,30,29)           120.7243         calculate D2E/DX2 analytically  !
 ! A95   A(28,30,31)           117.7411         calculate D2E/DX2 analytically  !
 ! A96   A(29,30,31)           121.506          calculate D2E/DX2 analytically  !
 ! D1    D(5,1,2,3)             -1.5368         calculate D2E/DX2 analytically  !
 ! D2    D(5,1,2,18)           179.6439         calculate D2E/DX2 analytically  !
 ! D3    D(15,1,2,3)           177.509          calculate D2E/DX2 analytically  !
 ! D4    D(15,1,2,18)           -1.3104         calculate D2E/DX2 analytically  !
 ! D5    D(2,1,5,6)              0.5039         calculate D2E/DX2 analytically  !
 ! D6    D(2,1,5,37)          -179.5633         calculate D2E/DX2 analytically  !
 ! D7    D(15,1,5,6)          -178.2981         calculate D2E/DX2 analytically  !
 ! D8    D(15,1,5,37)            1.6347         calculate D2E/DX2 analytically  !
 ! D9    D(2,1,15,16)           -0.8817         calculate D2E/DX2 analytically  !
 ! D10   D(2,1,15,36)         -179.2078         calculate D2E/DX2 analytically  !
 ! D11   D(5,1,15,16)          177.9293         calculate D2E/DX2 analytically  !
 ! D12   D(5,1,15,36)           -0.3968         calculate D2E/DX2 analytically  !
 ! D13   D(1,2,3,4)              1.9828         calculate D2E/DX2 analytically  !
 ! D14   D(1,2,3,7)           -179.1616         calculate D2E/DX2 analytically  !
 ! D15   D(18,2,3,4)          -179.0033         calculate D2E/DX2 analytically  !
 ! D16   D(18,2,3,7)            -0.1478         calculate D2E/DX2 analytically  !
 ! D17   D(1,2,18,11)          179.5454         calculate D2E/DX2 analytically  !
 ! D18   D(1,2,18,17)            2.4797         calculate D2E/DX2 analytically  !
 ! D19   D(3,2,18,11)            0.6125         calculate D2E/DX2 analytically  !
 ! D20   D(3,2,18,17)         -176.4533         calculate D2E/DX2 analytically  !
 ! D21   D(2,3,4,6)             -1.0756         calculate D2E/DX2 analytically  !
 ! D22   D(2,3,4,10)           178.5517         calculate D2E/DX2 analytically  !
 ! D23   D(7,3,4,6)           -179.7339         calculate D2E/DX2 analytically  !
 ! D24   D(7,3,4,10)            -0.1066         calculate D2E/DX2 analytically  !
 ! D25   D(2,3,7,8)           -177.5505         calculate D2E/DX2 analytically  !
 ! D26   D(2,3,7,11)            -0.4093         calculate D2E/DX2 analytically  !
 ! D27   D(4,3,7,8)              1.309          calculate D2E/DX2 analytically  !
 ! D28   D(4,3,7,11)           178.4502         calculate D2E/DX2 analytically  !
 ! D29   D(3,4,6,5)             -0.03           calculate D2E/DX2 analytically  !
 ! D30   D(3,4,6,38)          -179.8949         calculate D2E/DX2 analytically  !
 ! D31   D(10,4,6,5)          -179.5538         calculate D2E/DX2 analytically  !
 ! D32   D(10,4,6,38)            0.5813         calculate D2E/DX2 analytically  !
 ! D33   D(3,4,10,9)            -0.6208         calculate D2E/DX2 analytically  !
 ! D34   D(3,4,10,39)          179.7664         calculate D2E/DX2 analytically  !
 ! D35   D(6,4,10,9)           178.9031         calculate D2E/DX2 analytically  !
 ! D36   D(6,4,10,39)           -0.7096         calculate D2E/DX2 analytically  !
 ! D37   D(1,5,6,4)              0.2715         calculate D2E/DX2 analytically  !
 ! D38   D(1,5,6,38)          -179.8618         calculate D2E/DX2 analytically  !
 ! D39   D(37,5,6,4)          -179.6616         calculate D2E/DX2 analytically  !
 ! D40   D(37,5,6,38)            0.2051         calculate D2E/DX2 analytically  !
 ! D41   D(3,7,8,9)             -1.5942         calculate D2E/DX2 analytically  !
 ! D42   D(3,7,8,14)           177.4677         calculate D2E/DX2 analytically  !
 ! D43   D(11,7,8,9)          -178.1839         calculate D2E/DX2 analytically  !
 ! D44   D(11,7,8,14)            0.8781         calculate D2E/DX2 analytically  !
 ! D45   D(3,7,11,12)         -176.1906         calculate D2E/DX2 analytically  !
 ! D46   D(3,7,11,18)            0.775          calculate D2E/DX2 analytically  !
 ! D47   D(8,7,11,12)            0.7588         calculate D2E/DX2 analytically  !
 ! D48   D(8,7,11,18)          177.7244         calculate D2E/DX2 analytically  !
 ! D49   D(7,8,9,10)             0.8791         calculate D2E/DX2 analytically  !
 ! D50   D(7,8,9,40)          -179.381          calculate D2E/DX2 analytically  !
 ! D51   D(14,8,9,10)         -177.9418         calculate D2E/DX2 analytically  !
 ! D52   D(14,8,9,40)            1.7981         calculate D2E/DX2 analytically  !
 ! D53   D(7,8,14,13)           -1.2741         calculate D2E/DX2 analytically  !
 ! D54   D(7,8,14,41)          179.9766         calculate D2E/DX2 analytically  !
 ! D55   D(9,8,14,13)          177.5495         calculate D2E/DX2 analytically  !
 ! D56   D(9,8,14,41)           -1.1998         calculate D2E/DX2 analytically  !
 ! D57   D(8,9,10,4)             0.2207         calculate D2E/DX2 analytically  !
 ! D58   D(8,9,10,39)          179.839          calculate D2E/DX2 analytically  !
 ! D59   D(40,9,10,4)         -179.5209         calculate D2E/DX2 analytically  !
 ! D60   D(40,9,10,39)           0.0974         calculate D2E/DX2 analytically  !
 ! D61   D(7,11,12,13)          -1.8489         calculate D2E/DX2 analytically  !
 ! D62   D(7,11,12,20)         173.1893         calculate D2E/DX2 analytically  !
 ! D63   D(18,11,12,13)       -177.7904         calculate D2E/DX2 analytically  !
 ! D64   D(18,11,12,20)         -2.7522         calculate D2E/DX2 analytically  !
 ! D65   D(7,11,18,2)           -0.8388         calculate D2E/DX2 analytically  !
 ! D66   D(7,11,18,17)         175.5858         calculate D2E/DX2 analytically  !
 ! D67   D(12,11,18,2)         175.469          calculate D2E/DX2 analytically  !
 ! D68   D(12,11,18,17)         -8.1064         calculate D2E/DX2 analytically  !
 ! D69   D(11,12,13,14)          1.456          calculate D2E/DX2 analytically  !
 ! D70   D(11,12,13,19)       -178.51           calculate D2E/DX2 analytically  !
 ! D71   D(20,12,13,14)       -173.4877         calculate D2E/DX2 analytically  !
 ! D72   D(20,12,13,19)          6.5462         calculate D2E/DX2 analytically  !
 ! D73   D(11,12,20,21)        174.0802         calculate D2E/DX2 analytically  !
 ! D74   D(11,12,20,27)         21.3302         calculate D2E/DX2 analytically  !
 ! D75   D(11,12,20,45)        -75.5531         calculate D2E/DX2 analytically  !
 ! D76   D(13,12,20,21)        -11.2109         calculate D2E/DX2 analytically  !
 ! D77   D(13,12,20,27)       -163.9609         calculate D2E/DX2 analytically  !
 ! D78   D(13,12,20,45)         99.1558         calculate D2E/DX2 analytically  !
 ! D79   D(12,13,14,8)           0.183          calculate D2E/DX2 analytically  !
 ! D80   D(12,13,14,41)        178.9763         calculate D2E/DX2 analytically  !
 ! D81   D(19,13,14,8)        -179.8516         calculate D2E/DX2 analytically  !
 ! D82   D(19,13,14,41)         -1.0584         calculate D2E/DX2 analytically  !
 ! D83   D(12,13,19,22)         -0.0545         calculate D2E/DX2 analytically  !
 ! D84   D(12,13,19,42)        178.9801         calculate D2E/DX2 analytically  !
 ! D85   D(14,13,19,22)        179.9788         calculate D2E/DX2 analytically  !
 ! D86   D(14,13,19,42)         -0.9866         calculate D2E/DX2 analytically  !
 ! D87   D(1,15,16,17)           1.9393         calculate D2E/DX2 analytically  !
 ! D88   D(1,15,16,23)        -176.0498         calculate D2E/DX2 analytically  !
 ! D89   D(36,15,16,17)       -179.6741         calculate D2E/DX2 analytically  !
 ! D90   D(36,15,16,23)          2.3369         calculate D2E/DX2 analytically  !
 ! D91   D(15,16,17,18)         -0.7819         calculate D2E/DX2 analytically  !
 ! D92   D(15,16,17,26)       -178.4235         calculate D2E/DX2 analytically  !
 ! D93   D(23,16,17,18)        177.2298         calculate D2E/DX2 analytically  !
 ! D94   D(23,16,17,26)         -0.4117         calculate D2E/DX2 analytically  !
 ! D95   D(15,16,23,24)        175.5921         calculate D2E/DX2 analytically  !
 ! D96   D(15,16,23,35)         -2.5774         calculate D2E/DX2 analytically  !
 ! D97   D(17,16,23,24)         -2.5051         calculate D2E/DX2 analytically  !
 ! D98   D(17,16,23,35)        179.3255         calculate D2E/DX2 analytically  !
 ! D99   D(16,17,18,2)          -1.2403         calculate D2E/DX2 analytically  !
 ! D100  D(16,17,18,11)       -177.2882         calculate D2E/DX2 analytically  !
 ! D101  D(26,17,18,2)         176.3755         calculate D2E/DX2 analytically  !
 ! D102  D(26,17,18,11)          0.3275         calculate D2E/DX2 analytically  !
 ! D103  D(16,17,26,25)          3.4559         calculate D2E/DX2 analytically  !
 ! D104  D(16,17,26,27)       -178.9236         calculate D2E/DX2 analytically  !
 ! D105  D(18,17,26,25)       -173.9829         calculate D2E/DX2 analytically  !
 ! D106  D(18,17,26,27)          3.6376         calculate D2E/DX2 analytically  !
 ! D107  D(13,19,22,21)         -0.6722         calculate D2E/DX2 analytically  !
 ! D108  D(13,19,22,43)        178.5181         calculate D2E/DX2 analytically  !
 ! D109  D(42,19,22,21)       -179.6958         calculate D2E/DX2 analytically  !
 ! D110  D(42,19,22,43)         -0.5054         calculate D2E/DX2 analytically  !
 ! D111  D(12,20,21,22)         10.4459         calculate D2E/DX2 analytically  !
 ! D112  D(12,20,21,44)       -176.0504         calculate D2E/DX2 analytically  !
 ! D113  D(27,20,21,22)        165.0388         calculate D2E/DX2 analytically  !
 ! D114  D(27,20,21,44)        -21.4576         calculate D2E/DX2 analytically  !
 ! D115  D(45,20,21,22)       -100.9908         calculate D2E/DX2 analytically  !
 ! D116  D(45,20,21,44)         72.5129         calculate D2E/DX2 analytically  !
 ! D117  D(12,20,27,26)        -27.7525         calculate D2E/DX2 analytically  !
 ! D118  D(12,20,27,28)        158.7167         calculate D2E/DX2 analytically  !
 ! D119  D(21,20,27,26)       -179.0225         calculate D2E/DX2 analytically  !
 ! D120  D(21,20,27,28)          7.4466         calculate D2E/DX2 analytically  !
 ! D121  D(45,20,27,26)         77.9504         calculate D2E/DX2 analytically  !
 ! D122  D(45,20,27,28)        -95.5804         calculate D2E/DX2 analytically  !
 ! D123  D(20,21,22,19)         -5.1673         calculate D2E/DX2 analytically  !
 ! D124  D(20,21,22,43)        175.6323         calculate D2E/DX2 analytically  !
 ! D125  D(44,21,22,19)       -178.914          calculate D2E/DX2 analytically  !
 ! D126  D(44,21,22,43)          1.8855         calculate D2E/DX2 analytically  !
 ! D127  D(16,23,24,25)          2.2153         calculate D2E/DX2 analytically  !
 ! D128  D(16,23,24,34)       -177.972          calculate D2E/DX2 analytically  !
 ! D129  D(35,23,24,25)       -179.6393         calculate D2E/DX2 analytically  !
 ! D130  D(35,23,24,34)          0.1733         calculate D2E/DX2 analytically  !
 ! D131  D(23,24,25,26)          1.1814         calculate D2E/DX2 analytically  !
 ! D132  D(23,24,25,29)       -178.9447         calculate D2E/DX2 analytically  !
 ! D133  D(34,24,25,26)       -178.6347         calculate D2E/DX2 analytically  !
 ! D134  D(34,24,25,29)          1.2392         calculate D2E/DX2 analytically  !
 ! D135  D(24,25,26,17)         -3.8381         calculate D2E/DX2 analytically  !
 ! D136  D(24,25,26,27)        178.3528         calculate D2E/DX2 analytically  !
 ! D137  D(29,25,26,17)        176.294          calculate D2E/DX2 analytically  !
 ! D138  D(29,25,26,27)         -1.5151         calculate D2E/DX2 analytically  !
 ! D139  D(24,25,29,30)       -179.813          calculate D2E/DX2 analytically  !
 ! D140  D(24,25,29,33)          0.1578         calculate D2E/DX2 analytically  !
 ! D141  D(26,25,29,30)          0.0604         calculate D2E/DX2 analytically  !
 ! D142  D(26,25,29,33)       -179.9687         calculate D2E/DX2 analytically  !
 ! D143  D(17,26,27,20)         11.1183         calculate D2E/DX2 analytically  !
 ! D144  D(17,26,27,28)       -175.8885         calculate D2E/DX2 analytically  !
 ! D145  D(25,26,27,20)       -171.3461         calculate D2E/DX2 analytically  !
 ! D146  D(25,26,27,28)          1.647          calculate D2E/DX2 analytically  !
 ! D147  D(20,27,28,30)        174.0779         calculate D2E/DX2 analytically  !
 ! D148  D(20,27,28,32)        -59.4728         calculate D2E/DX2 analytically  !
 ! D149  D(20,27,28,46)         50.0045         calculate D2E/DX2 analytically  !
 ! D150  D(26,27,28,30)         -0.4819         calculate D2E/DX2 analytically  !
 ! D151  D(26,27,28,32)        125.9674         calculate D2E/DX2 analytically  !
 ! D152  D(26,27,28,46)       -124.5552         calculate D2E/DX2 analytically  !
 ! D153  D(27,28,30,29)         -0.9635         calculate D2E/DX2 analytically  !
 ! D154  D(27,28,30,31)       -179.0482         calculate D2E/DX2 analytically  !
 ! D155  D(32,28,30,29)       -125.1484         calculate D2E/DX2 analytically  !
 ! D156  D(32,28,30,31)         56.767          calculate D2E/DX2 analytically  !
 ! D157  D(46,28,30,29)        123.9951         calculate D2E/DX2 analytically  !
 ! D158  D(46,28,30,31)        -54.0895         calculate D2E/DX2 analytically  !
 ! D159  D(25,29,30,28)          1.1766         calculate D2E/DX2 analytically  !
 ! D160  D(25,29,30,31)        179.1882         calculate D2E/DX2 analytically  !
 ! D161  D(33,29,30,28)       -178.7934         calculate D2E/DX2 analytically  !
 ! D162  D(33,29,30,31)         -0.7818         calculate D2E/DX2 analytically  !
 --------------------------------------------------------------------------------
 Trust Radius=3.00D-01 FncErr=1.00D-07 GrdErr=1.00D-06 EigMax=2.50D+02 EigMin=1.00D-04
 Number of steps in this run=    276 maximum allowed number of steps=    276.
 Search for a saddle point of order  1.
 GradGradGradGradGradGradGradGradGradGradGradGradGradGradGradGradGradGrad

                          Input orientation:                          
 ---------------------------------------------------------------------
 Center     Atomic      Atomic             Coordinates (Angstroms)
 Number     Number       Type             X           Y           Z
 ---------------------------------------------------------------------
      1          6           0       -1.682421   -2.803959    0.089829
      2          6           0       -1.490721   -1.424573    0.051247
      3          6           0       -2.564543   -0.533013   -0.040834
      4          6           0       -3.897993   -0.870240   -0.064979
      5          6           0       -3.079109   -3.209396    0.061734
      6          6           0       -4.122688   -2.300645   -0.008359
      7          6           0       -2.050664    0.759571   -0.077649
      8          6           0       -2.863794    1.887061   -0.118443
      9          6           0       -4.283345    1.579892   -0.155677
     10          6           0       -4.771350    0.280582   -0.132728
     11          6           0       -0.643057    0.710779   -0.000115
     12          6           0        0.062495    1.877705    0.058872
     13          6           0       -0.723081    3.111633   -0.006483
     14          6           0       -2.142059    3.095804   -0.094051
     15          6           0       -0.479545   -3.525295    0.126827
     16          6           0        0.778192   -2.864988    0.104721
     17          6           0        0.917758   -1.405737    0.084271
     18          6           0       -0.277898   -0.713341    0.070999
     19          6           0       -0.027192    4.347540    0.019040
     20          6           0        1.552282    1.872216    0.295400
     21          6           0        2.139391    3.228747    0.183422
     22          6           0        1.356200    4.369584    0.104761
     23          6           0        1.963545   -3.643915    0.058523
     24          6           0        3.187089   -3.040406   -0.054406
     25          6           0        3.357273   -1.638929   -0.085332
     26          6           0        2.232304   -0.744179    0.027241
     27          6           0        2.468722    0.660885    0.025261
     28          6           0        3.881515    1.158775   -0.132140
     29          6           0        4.702573   -1.147848   -0.231228
     30          6           0        4.968173    0.162976   -0.267590
     31          1           0        5.983151    0.533239   -0.364484
     32          1           0        3.875943    1.871100   -0.987392
     33          1           0        5.500202   -1.879194   -0.310872
     34          1           0        4.079638   -3.653579   -0.121515
     35          1           0        1.885233   -4.724998    0.083702
     36          1           0       -0.474808   -4.610653    0.146350
     37          1           0       -3.317644   -4.267326    0.095884
     38          1           0       -5.137740   -2.685167   -0.022825
     39          1           0       -5.846983    0.137064   -0.160921
     40          1           0       -4.996594    2.396473   -0.199148
     41          1           0       -2.651942    4.053657   -0.121353
     42          1           0       -0.587595    5.272640   -0.045060
     43          1           0        1.865906    5.327813    0.098056
     44          1           0        3.200873    3.375632    0.264031
     45          1           0        1.678271    1.608111    1.580558
     46          1           0        4.135778    1.821477    0.712169
 ---------------------------------------------------------------------
                    Distance matrix (angstroms):
                    1          2          3          4          5
     1  C    0.000000
     2  C    1.393177   0.000000
     3  C    2.439756   1.398732   0.000000
     4  C    2.944825   2.473005   1.375643   0.000000
     5  C    1.454615   2.389284   2.727329   2.481588   0.000000
     6  C    2.493565   2.774582   2.356564   1.449052   1.385568
     7  C    3.586419   2.258459   1.391474   2.463548   4.102417
     8  C    4.841972   3.589017   2.439740   2.945358   5.104184
     9  C    5.103257   4.107113   2.726140   2.481908   4.943150
    10  C    4.370973   3.701882   2.353801   1.446283   3.883483
    11  C    3.666299   2.298021   2.289276   3.619176   4.615837
    12  C    4.996365   3.649326   3.566908   4.822033   5.978987
    13  C    5.993650   4.601062   4.083578   5.093015   6.746179
    14  C    5.920497   4.569372   3.653716   4.337471   6.376353
    15  C    1.403070   2.332643   3.650901   4.332654   2.619497
    16  C    2.461415   2.688052   4.078378   5.086701   3.872885
    17  C    2.952285   2.408779   3.592175   4.847730   4.385047
    18  C    2.518675   1.406123   2.296469   3.626044   3.751954
    19  C    7.340895   5.954850   5.501048   6.497337   8.150049
    20  C    5.689655   4.493139   4.779794   6.111991   6.879474
    21  C    7.142027   5.903268   6.027282   7.301603   8.288380
    22  C    7.790581   6.456011   6.279242   7.422339   8.781501
    23  C    3.741600   4.105787   5.494649   6.485843   5.061341
    24  C    4.877380   4.950150   6.274430   7.410001   6.269552
    25  C    5.175567   4.854652   6.024362   7.295902   6.626840
    26  C    4.423989   3.784763   4.801975   6.132286   5.855732
    27  C    5.407523   4.475154   5.173347   6.548858   6.764528
    28  C    6.834465   5.963911   6.664994   8.040035   8.220024
    29  C    6.604084   6.205905   7.295564   8.606651   8.055457
    30  C    7.291149   6.658775   7.568199   8.928465   8.731557
    31  H    8.372830   7.737223   8.620018   9.984812   9.813946
    32  H    7.342479   6.382892   6.939423   8.294569   8.676684
    33  H    7.252987   7.015042   8.180785   9.455396   8.689813
    34  H    5.828194   6.002267   7.340952   8.449424   7.174855
    35  H    4.051985   4.721326   6.114634   6.951760   5.190590
    36  H    2.173860   3.345479   4.585758   5.074795   2.958558
    37  H    2.194410   3.379480   3.811948   3.450054   1.085026
    38  H    3.459195   3.859447   3.354614   2.198342   2.126012
    39  H    5.104515   4.632574   3.352288   2.196003   4.348505
    40  H    6.173471   5.191747   3.810751   3.449107   5.930479
    41  H    6.929031   5.602609   4.588209   5.079427   7.277907
    42  H    8.151582   6.758519   6.133021   6.978116   8.841040
    43  H    8.872227   7.540812   7.348296   8.465517   9.866024
    44  H    7.878087   6.715527   6.972121   8.278259   9.101741
    45  H    5.743073   4.645264   5.021434   6.320185   6.938866
    46  H    7.458780   6.529253   7.141774   8.508277   8.819713
                    6          7          8          9         10
     6  C    0.000000
     7  C    3.696350   0.000000
     8  C    4.374222   1.390711   0.000000
     9  C    3.886654   2.379891   1.452881   0.000000
    10  C    2.664388   2.763077   2.493942   1.388122   0.000000
    11  C    4.601801   1.410585   2.515813   3.745832   4.152765
    12  C    5.914295   2.394640   2.931671   4.361313   5.094465
    13  C    6.391407   2.701803   2.468758   3.878656   4.941586
    14  C    5.749078   2.338078   1.408033   2.624289   3.852290
    15  C    3.845846   4.568403   5.919324   6.372726   5.742095
    16  C    4.934561   4.601425   5.991313   6.741211   6.383448
    17  C    5.120111   3.677813   5.018341   6.001919   5.937736
    18  C    4.160318   2.309603   3.672171   4.621029   4.606571
    19  C    7.808470   4.120353   3.757548   5.079886   6.250617
    20  C    7.050555   3.789243   4.435450   5.860330   6.534900
    21  C    8.356111   4.870477   5.188748   6.639672   7.519971
    22  C    8.632668   4.967111   4.901131   6.297196   7.370428
    23  C    6.233063   5.960126   7.343447   8.146022   7.797247
    24  C    7.347258   6.471045   7.803667   8.784349   8.623911
    25  C    7.509568   5.915965   7.150900   8.291248   8.352322
    26  C    6.542918   4.540493   5.737148   6.920148   7.080035
    27  C    7.226235   4.521635   5.473562   6.816724   7.251775
    28  C    8.720675   5.945846   6.784525   8.175747   8.697315
    29  C    8.903024   7.019120   8.153116   9.391113   9.581510
    30  C    9.422334   7.046707   8.020874   9.360062   9.741167
    31  H   10.501700   8.042119   8.953313  10.321823  10.759965
    32  H    9.074142   6.098180   6.795541   8.206737   8.833792
    33  H    9.636864   8.002065   9.174864  10.378206  10.497673
    34  H    8.313927   7.553702   8.883127   9.865590   9.685956
    35  H    6.479281   6.752616   8.143307   8.823848   8.331433
    36  H    4.320544   5.601143   6.928034   7.274546   6.516313
    37  H    2.127627   5.187007   6.174819   5.931764   4.780062
    38  H    1.085540   4.625934   5.107371   4.351824   2.990316
    39  H    2.989798   3.847920   3.458860   2.127615   1.085531
    40  H    4.781530   3.372345   2.194277   1.085089   2.128883
    41  H    6.523267   3.348798   2.176931   2.963472   4.327599
    42  H    8.357803   4.744410   4.080271   5.225628   6.513995
    43  H    9.698864   6.019903   5.852838   7.205871   8.341521
    44  H    9.269782   5.877003   6.256382   7.708071   8.561138
    45  H    7.173155   4.168288   4.857445   6.209362   6.804064
    46  H    9.258148   6.326415   7.048988   8.467181   9.078829
                   11         12         13         14         15
    11  C    0.000000
    12  C    1.364917   0.000000
    13  C    2.402196   1.464233   0.000000
    14  C    2.818541   2.523333   1.421766   0.000000
    15  C    4.241129   5.430546   6.642732   6.830204   0.000000
    16  C    3.849292   4.796609   6.163293   6.640664   1.420703
    17  C    2.631141   3.393098   4.806997   5.445930   2.539054
    18  C    1.471909   2.613338   3.851573   4.244046   2.819728
    19  C    3.688589   2.471784   1.418583   2.460141   7.886556
    20  C    2.501155   1.508456   2.608556   3.911137   5.769737
    21  C    3.757109   2.480791   2.871154   4.292491   7.244247
    22  C    4.170717   2.808067   2.432740   3.728251   8.105527
    23  C    5.075546   5.839716   7.270462   7.893230   2.446922
    24  C    5.361376   5.827841   7.289671   8.127390   3.702994
    25  C    4.640154   4.821107   6.262854   7.256750   4.280720
    26  C    3.222631   3.403432   4.858263   5.821961   3.885698
    27  C    3.112282   2.696611   4.024274   5.215589   5.121201
    28  C    4.548613   3.890792   5.003174   6.327478   6.405187
    29  C    5.664245   5.546932   6.901551   8.054588   5.712688
    30  C    5.644248   5.206971   6.415070   7.693308   6.590640
    31  H    6.638593   6.086131   7.193735   8.524020   7.647191
    32  H    4.768902   3.954377   4.863345   6.205990   7.023734
    33  H    6.674141   6.619642   7.983123   9.121500   6.217604
    34  H    6.431657   6.838500   8.297435   9.179566   4.567743
    35  H    5.995577   6.849721   8.259795   8.798615   2.652041
    36  H    5.326105   6.511155   7.727787   7.888409   1.085544
    37  H    5.651917   7.013424   7.822485   7.458804   2.933662
    38  H    5.633395   6.918737   7.286451   6.511436   4.735714
    39  H    5.237925   6.164420   5.926743   4.741843   6.504234
    40  H    4.672736   5.092158   4.337221   2.940830   7.455020
    41  H    3.901942   3.483592   2.149677   1.085453   7.888055
    42  H    4.562420   3.458179   2.165594   2.675327   8.800277
    43  H    5.255619   3.893208   3.409580   4.591574   9.158575
    44  H    4.684764   3.483575   3.942117   5.362224   7.822218
    45  H    2.948270   2.235831   3.247425   4.428597   5.755116
    46  H    4.957647   4.125723   5.078334   6.456403   7.087440
                   16         17         18         19         20
    16  C    0.000000
    17  C    1.466053   0.000000
    18  C    2.397092   1.381731   0.000000
    19  C    7.257861   5.830727   5.067353   0.000000
    20  C    4.803819   3.345470   3.175692   2.949295   0.000000
    21  C    6.244411   4.793815   4.625579   2.443931   1.482367
    22  C    7.257625   5.791976   5.339246   1.386221   2.512297
    23  C    1.419128   2.470582   3.689510   8.235772   5.536511
    24  C    2.420512   2.800221   4.175775   8.057217   5.189298
    25  C    2.861992   2.456497   3.754413   6.877740   3.966244
    26  C    2.572601   1.472733   2.510773   5.570547   2.716590
    27  C    3.911008   2.584550   3.071565   4.452084   1.542777
    28  C    5.086982   3.925228   4.565830   5.046689   2.473280
    29  C    4.296766   3.806688   5.008516   7.254833   4.395732
    30  C    5.182965   4.357812   5.329525   6.522760   3.860929
    31  H    6.233755   5.442354   6.398777   7.128829   4.675565
    32  H    5.763619   4.542794   5.005389   4.730763   2.654234
    33  H    4.841682   4.623753   5.906901   8.332655   5.479664
    34  H    3.401853   3.884923   5.260245   8.994649   6.090629
    35  H    2.164629   3.457384   4.557707   9.272135   6.609002
    36  H    2.149206   3.494936   3.903011   8.970273   6.794034
    37  H    4.329261   5.111502   4.676696   9.222196   7.839003
    38  H    5.920038   6.190110   5.245471   8.693585   8.101074
    39  H    7.278449   6.942771   5.638411   7.185434   7.613679
    40  H    7.818149   7.036809   5.657739   5.343147   6.588414
    41  H    7.725579   6.526103   5.328917   2.644880   4.754773
    42  H    8.252805   6.847155   5.995111   1.083499   4.032105
    43  H    8.264693   6.799990   6.410317   2.133307   3.475407
    44  H    6.696275   5.301549   5.372040   3.380093   2.231389
    45  H    4.795503   3.449715   3.390355   3.584887   1.318050
    46  H    5.797011   4.600524   5.130004   4.918510   2.617388
                   21         22         23         24         25
    21  C    0.000000
    22  C    1.386032   0.000000
    23  C    6.876046   8.036614   0.000000
    24  C    6.360543   7.634490   1.368954   0.000000
    25  C    5.024911   6.335823   2.446046   1.412111   0.000000
    26  C    3.977080   5.188848   2.912332   2.488160   1.441806
    27  C    2.593721   3.872786   4.334468   3.771200   2.467974
    28  C    2.723850   4.091776   5.175016   4.256923   2.846782
    29  C    5.088853   6.461668   3.717066   2.430994   1.439541
    30  C    4.195756   5.557027   4.860716   3.671425   2.423856
    31  H    4.726569   6.028798   5.812468   4.548082   3.419280
    32  H    2.495921   3.712725   5.930143   5.046571   3.661015
    33  H    6.134365   7.509509   3.969715   2.600900   2.168119
    34  H    7.157091   8.475816   2.123760   1.084956   2.140545
    35  H    7.958429   9.109980   1.084208   2.133484   3.423346
    36  H    8.263873   9.165096   2.624474   3.989420   4.854860
    37  H    9.272432   9.820444   5.317988   6.621138   7.176059
    38  H    9.379422   9.589424   7.166175   8.332465   8.559426
    39  H    8.570837   8.358867   8.680340   9.577166   9.374337
    40  H    7.194534   6.659093   9.219339   9.826152   9.278174
    41  H    4.871369   4.026927   8.977065   9.188280   8.277530
    42  H    3.415575   2.148557   9.274912   9.129899   7.958228
    43  H    2.118528   1.085379   8.972346   8.473244   7.126942
    44  H    1.074624   2.101458   7.130726   6.423950   5.029149
    45  H    2.188854   3.147609   5.475559   5.153479   4.017151
    46  H    2.499109   3.819404   5.917462   5.012540   3.635449
                   26         27         28         29         30
    26  C    0.000000
    27  C    1.424817   0.000000
    28  C    2.523199   1.506205   0.000000
    29  C    2.516343   2.885722   2.450401   0.000000
    30  C    2.897384   2.565332   1.480131   1.337956   0.000000
    31  H    3.981721   3.538277   2.205029   2.117473   1.084741
    32  H    3.251263   2.114322   1.113056   3.220116   2.151457
    33  H    3.475879   3.969239   3.446933   1.085091   2.110779
    34  H    3.449548   4.607732   4.816442   2.584332   3.921342
    35  H    3.996319   5.417713   6.216954   4.564273   5.789664
    36  H    4.721468   6.038886   7.234736   6.240101   7.251546
    37  H    6.574131   7.600940   9.017897   8.611738   9.402896
    38  H    7.621515   8.310033   9.804836   9.961854  10.502443
    39  H    8.129383   8.334267   9.782045  10.627750  10.815713
    40  H    7.884917   7.667696   8.964218  10.326523  10.212237
    41  H    6.848151   6.144396   7.146084   9.008697   8.557157
    42  H    6.645237   5.533019   6.074900   8.321250   7.551473
    43  H    6.083449   4.706262   4.636437   7.077379   6.036000
    44  H    4.238754   2.821862   2.352590   4.791895   3.705014
    45  H    2.872806   1.985195   2.826574   4.474850   4.040733
    46  H    3.267251   2.144270   1.103033   3.166725   2.098436
                   31         32         33         34         35
    31  H    0.000000
    32  H    2.572589   0.000000
    33  H    2.460883   4.142536   0.000000
    34  H    4.605631   5.595830   2.280855   0.000000
    35  H    6.681531   6.972709   4.617607   2.450605   0.000000
    36  H    8.271990   7.888443   6.585641   4.661622   2.363640
    37  H   10.476743   9.518480   9.144563   7.425882   5.222982
    38  H   11.582275  10.145760  10.672318   9.268636   7.313987
    39  H   11.838516   9.910864  11.525901  10.625833   9.137103
    40  H   11.137943   8.922962  11.334749  10.908123   9.907315
    41  H    9.328306   6.937353  10.084250  10.233067   9.883966
    42  H    8.107938   5.690486   9.395779  10.073048  10.299720
    43  H    6.336686   4.143345   8.081849   9.252795  10.052840
    44  H    4.026823   2.070120   5.764601   7.094412   8.208753
    45  H    4.844639   3.390176   5.508717   6.029013   6.510889
    46  H    2.496302   1.720024   4.074706   5.538449   6.950990
                   36         37         38         39         40
    36  H    0.000000
    37  H    2.863937   0.000000
    38  H    5.047678   2.414553   0.000000
    39  H    7.176036   5.085485   2.913260   0.000000
    40  H    8.346600   6.878382   5.086657   2.414446   0.000000
    41  H    8.937664   8.350396   7.183359   5.054657   2.872230
    42  H    9.885790   9.923910   9.166843   7.351784   5.266436
    43  H   10.210503  10.905773  10.643003   9.300516   7.468266
    44  H    8.792339  10.046599  10.312518   9.619387   8.268721
    45  H    6.735408   7.853928   8.213469   7.862962   6.952891
    46  H    7.934100   9.644005  10.336740  10.161449   9.195724
                   41         42         43         44         45
    41  H    0.000000
    42  H    2.398597   0.000000
    43  H    4.699209   2.458291   0.000000
    44  H    5.904548   4.248137   2.370801   0.000000
    45  H    5.256229   4.604949   4.008641   2.678748   0.000000
    46  H    7.193784   5.898659   4.221830   1.868227   2.615142
                   46
    46  H    0.000000
 Stoichiometry    C30H16
 Framework group  C1[X(C30H16)]
 Deg. of freedom   132
 Full point group                 C1      NOp   1
 Largest Abelian subgroup         C1      NOp   1
 Largest concise Abelian subgroup C1      NOp   1
                         Standard orientation:                         
 ---------------------------------------------------------------------
 Center     Atomic      Atomic             Coordinates (Angstroms)
 Number     Number       Type             X           Y           Z
 ---------------------------------------------------------------------
      1          6           0       -1.682421   -2.803959    0.089829
      2          6           0       -1.490721   -1.424573    0.051247
      3          6           0       -2.564543   -0.533013   -0.040834
      4          6           0       -3.897993   -0.870240   -0.064979
      5          6           0       -3.079109   -3.209396    0.061734
      6          6           0       -4.122688   -2.300645   -0.008359
      7          6           0       -2.050664    0.759571   -0.077649
      8          6           0       -2.863794    1.887061   -0.118443
      9          6           0       -4.283345    1.579892   -0.155677
     10          6           0       -4.771350    0.280583   -0.132728
     11          6           0       -0.643057    0.710779   -0.000115
     12          6           0        0.062495    1.877705    0.058872
     13          6           0       -0.723081    3.111633   -0.006483
     14          6           0       -2.142059    3.095804   -0.094051
     15          6           0       -0.479545   -3.525295    0.126827
     16          6           0        0.778192   -2.864988    0.104721
     17          6           0        0.917758   -1.405737    0.084271
     18          6           0       -0.277898   -0.713341    0.070999
     19          6           0       -0.027192    4.347540    0.019040
     20          6           0        1.552282    1.872216    0.295400
     21          6           0        2.139391    3.228747    0.183422
     22          6           0        1.356200    4.369584    0.104761
     23          6           0        1.963545   -3.643915    0.058523
     24          6           0        3.187089   -3.040406   -0.054406
     25          6           0        3.357273   -1.638929   -0.085332
     26          6           0        2.232304   -0.744179    0.027241
     27          6           0        2.468722    0.660885    0.025261
     28          6           0        3.881515    1.158775   -0.132140
     29          6           0        4.702573   -1.147849   -0.231228
     30          6           0        4.968173    0.162975   -0.267590
     31          1           0        5.983151    0.533238   -0.364484
     32          1           0        3.875943    1.871100   -0.987392
     33          1           0        5.500202   -1.879195   -0.310872
     34          1           0        4.079638   -3.653579   -0.121515
     35          1           0        1.885232   -4.724998    0.083702
     36          1           0       -0.474809   -4.610653    0.146350
     37          1           0       -3.317644   -4.267326    0.095884
     38          1           0       -5.137740   -2.685166   -0.022825
     39          1           0       -5.846983    0.137065   -0.160921
     40          1           0       -4.996594    2.396474   -0.199148
     41          1           0       -2.651942    4.053657   -0.121353
     42          1           0       -0.587594    5.272640   -0.045060
     43          1           0        1.865907    5.327813    0.098056
     44          1           0        3.200873    3.375632    0.264031
     45          1           0        1.678271    1.608111    1.580558
     46          1           0        4.135778    1.821476    0.712169
 ---------------------------------------------------------------------
 Rotational constants (GHZ):           0.2381906           0.1740108           0.1009354
 Standard basis: 6-311+G(d,p) (5D, 7F)
 There are   786 symmetry adapted cartesian basis functions of A   symmetry.
 There are   756 symmetry adapted basis functions of A   symmetry.
   756 basis functions,  1208 primitive gaussians,   786 cartesian basis functions
    98 alpha electrons       98 beta electrons
       nuclear repulsion energy      2619.7792880590 Hartrees.
 NAtoms=   46 NActive=   46 NUniq=   46 SFac= 1.00D+00 NAtFMM=   60 NAOKFM=F Big=F
 Integral buffers will be    131072 words long.
 Raffenetti 2 integral format.
 Two-electron integral symmetry is turned on.
 One-electron integrals computed using PRISM.
 NBasis=   756 RedAO= T EigKep=  1.09D-06  NBF=   756
 NBsUse=   732 1.00D-06 EigRej=  8.56D-07 NBFU=   732
 ExpMin= 4.38D-02 ExpMax= 4.56D+03 ExpMxC= 6.82D+02 IAcc=2 IRadAn=         4 AccDes= 0.00D+00
 Harris functional with IExCor=  402 and IRadAn=       4 diagonalized for initial guess.
 HarFok:  IExCor=  402 AccDes= 0.00D+00 IRadAn=         4 IDoV= 1 UseB2=F ITyADJ=14
 ICtDFT=  3500011 ScaDFX=  1.000000  1.000000  1.000000  1.000000
 FoFCou: FMM=F IPFlag=           0 FMFlag=      100000 FMFlg1=           0
         NFxFlg=           0 DoJE=T BraDBF=F KetDBF=T FulRan=T
         wScrn=  0.000000 ICntrl=       500 IOpCl=  0 I1Cent=   200000004 NGrid=           0
         NMat0=    1 NMatS0=      1 NMatT0=    0 NMatD0=    1 NMtDS0=    0 NMtDT0=    0
 Petite list used in FoFCou.
 Requested convergence on RMS density matrix=1.00D-08 within 128 cycles.
 Requested convergence on MAX density matrix=1.00D-06.
 Requested convergence on             energy=1.00D-06.
 No special actions if energy rises.
 SCF Done:  E(RB3LYP) =  -1153.00595452     A.U. after   19 cycles
            NFock= 19  Conv=0.10D-07     -V/T= 2.0046
 DoSCS=F DFT=T ScalE2(SS,OS)=  1.000000  1.000000
 Range of M.O.s used for correlation:     1   732
 NBasis=   756 NAE=    98 NBE=    98 NFC=     0 NFV=     0
 NROrb=    732 NOA=    98 NOB=    98 NVA=   634 NVB=   634

 **** Warning!!: The largest alpha MO coefficient is  0.13513849D+03


 **** Warning!!: The smallest alpha delta epsilon is  0.47728926D-01

 Symmetrizing basis deriv contribution to polar:
 IMax=3 JMax=2 DiffMx= 0.00D+00
 G2DrvN: will do    47 centers at a time, making    1 passes.
 Calling FoFCou, ICntrl=  3107 FMM=F I1Cent=   0 AccDes= 0.00D+00.
 End of G2Drv F.D. properties file   721 does not exist.
 End of G2Drv F.D. properties file   722 does not exist.
 End of G2Drv F.D. properties file   788 does not exist.
          IDoAtm=1111111111111111111111111111111111111111111111
          Differentiating once with respect to nuclear coordinates.
 CalDSu exits because no D1Ps are significant.
          There are   141 degrees of freedom in the 1st order CPHF.  IDoFFX=6 NUNeed=     0.
    135 vectors produced by pass  0 Test12= 6.21D-14 1.00D-09 XBig12= 2.89D-01 1.41D-01.
 AX will form   135 AO Fock derivatives at one time.
    135 vectors produced by pass  1 Test12= 6.21D-14 1.00D-09 XBig12= 1.06D-01 6.63D-02.
    135 vectors produced by pass  2 Test12= 6.21D-14 1.00D-09 XBig12= 1.17D-03 4.70D-03.
    135 vectors produced by pass  3 Test12= 6.21D-14 1.00D-09 XBig12= 7.88D-06 3.12D-04.
    135 vectors produced by pass  4 Test12= 6.21D-14 1.00D-09 XBig12= 2.94D-08 1.86D-05.
    135 vectors produced by pass  5 Test12= 6.21D-14 1.00D-09 XBig12= 1.16D-10 6.53D-07.
    100 vectors produced by pass  6 Test12= 6.21D-14 1.00D-09 XBig12= 1.63D-11 2.50D-07.
     80 vectors produced by pass  7 Test12= 6.21D-14 1.00D-09 XBig12= 1.48D-12 6.63D-08.
     25 vectors produced by pass  8 Test12= 6.21D-14 1.00D-09 XBig12= 3.03D-14 9.67D-09.
      3 vectors produced by pass  9 Test12= 6.21D-14 1.00D-09 XBig12= 3.15D-16 1.16D-09.
      2 vectors produced by pass 10 Test12= 6.21D-14 1.00D-09 XBig12= 4.02D-16 1.19D-09.
      2 vectors produced by pass 11 Test12= 6.21D-14 1.00D-09 XBig12= 5.84D-16 1.10D-09.
      1 vectors produced by pass 12 Test12= 6.21D-14 1.00D-09 XBig12= 5.31D-16 1.24D-09.
 InvSVY:  IOpt=1 It=  1 EMax= 1.11D-15
 Solved reduced A of dimension  1023 with   141 vectors.
 End of Minotr F.D. properties file   721 does not exist.
 End of Minotr F.D. properties file   722 does not exist.
 End of Minotr F.D. properties file   788 does not exist.

 **********************************************************************

            Population analysis using the SCF Density.

 **********************************************************************

 Orbital symmetries:
       Occupied  (A) (A) (A) (A) (A) (A) (A) (A) (A) (A) (A) (A)
                 (A) (A) (A) (A) (A) (A) (A) (A) (A) (A) (A) (A)
                 (A) (A) (A) (A) (A) (A) (A) (A) (A) (A) (A) (A)
                 (A) (A) (A) (A) (A) (A) (A) (A) (A) (A) (A) (A)
                 (A) (A) (A) (A) (A) (A) (A) (A) (A) (A) (A) (A)
                 (A) (A) (A) (A) (A) (A) (A) (A) (A) (A) (A) (A)
                 (A) (A) (A) (A) (A) (A) (A) (A) (A) (A) (A) (A)
                 (A) (A) (A) (A) (A) (A) (A) (A) (A) (A) (A) (A)
                 (A) (A)
       Virtual   (A) (A) (A) (A) (A) (A) (A) (A) (A) (A) (A) (A)
                 (A) (A) (A) (A) (A) (A) (A) (A) (A) (A) (A) (A)
                 (A) (A) (A) (A) (A) (A) (A) (A) (A) (A) (A) (A)
                 (A) (A) (A) (A) (A) (A) (A) (A) (A) (A) (A) (A)
                 (A) (A) (A) (A) (A) (A) (A) (A) (A) (A) (A) (A)
                 (A) (A) (A) (A) (A) (A) (A) (A) (A) (A) (A) (A)
                 (A) (A) (A) (A) (A) (A) (A) (A) (A) (A) (A) (A)
                 (A) (A) (A) (A) (A) (A) (A) (A) (A) (A) (A) (A)
                 (A) (A) (A) (A) (A) (A) (A) (A) (A) (A) (A) (A)
                 (A) (A) (A) (A) (A) (A) (A) (A) (A) (A) (A) (A)
                 (A) (A) (A) (A) (A) (A) (A) (A) (A) (A) (A) (A)
                 (A) (A) (A) (A) (A) (A) (A) (A) (A) (A) (A) (A)
                 (A) (A) (A) (A) (A) (A) (A) (A) (A) (A) (A) (A)
                 (A) (A) (A) (A) (A) (A) (A) (A) (A) (A) (A) (A)
                 (A) (A) (A) (A) (A) (A) (A) (A) (A) (A) (A) (A)
                 (A) (A) (A) (A) (A) (A) (A) (A) (A) (A) (A) (A)
                 (A) (A) (A) (A) (A) (A) (A) (A) (A) (A) (A) (A)
                 (A) (A) (A) (A) (A) (A) (A) (A) (A) (A) (A) (A)
                 (A) (A) (A) (A) (A) (A) (A) (A) (A) (A) (A) (A)
                 (A) (A) (A) (A) (A) (A) (A) (A) (A) (A) (A) (A)
                 (A) (A) (A) (A) (A) (A) (A) (A) (A) (A) (A) (A)
                 (A) (A) (A) (A) (A) (A) (A) (A) (A) (A) (A) (A)
                 (A) (A) (A) (A) (A) (A) (A) (A) (A) (A) (A) (A)
                 (A) (A) (A) (A) (A) (A) (A) (A) (A) (A) (A) (A)
                 (A) (A) (A) (A) (A) (A) (A) (A) (A) (A) (A) (A)
                 (A) (A) (A) (A) (A) (A) (A) (A) (A) (A) (A) (A)
                 (A) (A) (A) (A) (A) (A) (A) (A) (A) (A) (A) (A)
                 (A) (A) (A) (A) (A) (A) (A) (A) (A) (A) (A) (A)
                 (A) (A) (A) (A) (A) (A) (A) (A) (A) (A) (A) (A)
                 (A) (A) (A) (A) (A) (A) (A) (A) (A) (A) (A) (A)
                 (A) (A) (A) (A) (A) (A) (A) (A) (A) (A) (A) (A)
                 (A) (A) (A) (A) (A) (A) (A) (A) (A) (A) (A) (A)
                 (A) (A) (A) (A) (A) (A) (A) (A) (A) (A) (A) (A)
                 (A) (A) (A) (A) (A) (A) (A) (A) (A) (A) (A) (A)
                 (A) (A) (A) (A) (A) (A) (A) (A) (A) (A) (A) (A)
                 (A) (A) (A) (A) (A) (A) (A) (A) (A) (A) (A) (A)
                 (A) (A) (A) (A) (A) (A) (A) (A) (A) (A) (A) (A)
                 (A) (A) (A) (A) (A) (A) (A) (A) (A) (A) (A) (A)
                 (A) (A) (A) (A) (A) (A) (A) (A) (A) (A) (A) (A)
                 (A) (A) (A) (A) (A) (A) (A) (A) (A) (A) (A) (A)
                 (A) (A) (A) (A) (A) (A) (A) (A) (A) (A) (A) (A)
                 (A) (A) (A) (A) (A) (A) (A) (A) (A) (A) (A) (A)
                 (A) (A) (A) (A) (A) (A) (A) (A) (A) (A) (A) (A)
                 (A) (A) (A) (A) (A) (A) (A) (A) (A) (A) (A) (A)
                 (A) (A) (A) (A) (A) (A) (A) (A) (A) (A) (A) (A)
                 (A) (A) (A) (A) (A) (A) (A) (A) (A) (A) (A) (A)
                 (A) (A) (A) (A) (A) (A) (A) (A) (A) (A) (A) (A)
                 (A) (A) (A) (A) (A) (A) (A) (A) (A) (A) (A) (A)
                 (A) (A) (A) (A) (A) (A) (A) (A) (A) (A) (A) (A)
                 (A) (A) (A) (A) (A) (A) (A) (A) (A) (A) (A) (A)
                 (A) (A) (A) (A) (A) (A) (A) (A) (A) (A) (A) (A)
                 (A) (A) (A) (A) (A) (A) (A) (A) (A) (A) (A) (A)
                 (A) (A) (A) (A) (A) (A) (A) (A) (A) (A)
 The electronic state is 1-A.
 Alpha  occ. eigenvalues --  -10.23910 -10.22665 -10.21076 -10.20706 -10.20673
 Alpha  occ. eigenvalues --  -10.19876 -10.19715 -10.19678 -10.19506 -10.19162
 Alpha  occ. eigenvalues --  -10.19022 -10.19004 -10.18895 -10.18882 -10.18863
 Alpha  occ. eigenvalues --  -10.18838 -10.18683 -10.18663 -10.18584 -10.18515
 Alpha  occ. eigenvalues --  -10.18502 -10.18198 -10.18112 -10.18020 -10.17935
 Alpha  occ. eigenvalues --  -10.17753 -10.17267 -10.17157 -10.16978 -10.16643
 Alpha  occ. eigenvalues --   -0.92515  -0.88891  -0.88067  -0.85249  -0.84252
 Alpha  occ. eigenvalues --   -0.83305  -0.80605  -0.79900  -0.78418  -0.77677
 Alpha  occ. eigenvalues --   -0.75597  -0.74961  -0.72854  -0.71603  -0.70763
 Alpha  occ. eigenvalues --   -0.66901  -0.66171  -0.64450  -0.63733  -0.62704
 Alpha  occ. eigenvalues --   -0.59935  -0.59436  -0.58664  -0.56642  -0.55959
 Alpha  occ. eigenvalues --   -0.52920  -0.51877  -0.51392  -0.50989  -0.50262
 Alpha  occ. eigenvalues --   -0.49343  -0.47647  -0.47456  -0.46465  -0.45499
 Alpha  occ. eigenvalues --   -0.45334  -0.44779  -0.44211  -0.43767  -0.43565
 Alpha  occ. eigenvalues --   -0.42583  -0.42423  -0.41799  -0.40896  -0.40686
 Alpha  occ. eigenvalues --   -0.40249  -0.39827  -0.39512  -0.39000  -0.37217
 Alpha  occ. eigenvalues --   -0.36752  -0.36304  -0.35618  -0.35125  -0.34722
 Alpha  occ. eigenvalues --   -0.34385  -0.33911  -0.33365  -0.32323  -0.31694
 Alpha  occ. eigenvalues --   -0.29828  -0.29046  -0.27857  -0.25961  -0.23264
 Alpha  occ. eigenvalues --   -0.22513  -0.21788  -0.15760
 Alpha virt. eigenvalues --   -0.10987  -0.08975  -0.05298  -0.03618  -0.02160
 Alpha virt. eigenvalues --   -0.00624  -0.00036   0.00601   0.00786   0.01478
 Alpha virt. eigenvalues --    0.01585   0.01654   0.01812   0.02561   0.02863
 Alpha virt. eigenvalues --    0.03037   0.03406   0.04204   0.04226   0.04643
 Alpha virt. eigenvalues --    0.04883   0.04987   0.05085   0.05916   0.06520
 Alpha virt. eigenvalues --    0.06790   0.06944   0.07072   0.07448   0.07827
 Alpha virt. eigenvalues --    0.08557   0.08788   0.09115   0.09280   0.09622
 Alpha virt. eigenvalues --    0.09706   0.10152   0.10308   0.10703   0.11184
 Alpha virt. eigenvalues --    0.11686   0.12137   0.12256   0.12461   0.12807
 Alpha virt. eigenvalues --    0.12876   0.13421   0.14302   0.14481   0.14806
 Alpha virt. eigenvalues --    0.14958   0.15068   0.15277   0.15699   0.15819
 Alpha virt. eigenvalues --    0.16092   0.16266   0.16508   0.16615   0.16852
 Alpha virt. eigenvalues --    0.16995   0.17089   0.17488   0.17689   0.17867
 Alpha virt. eigenvalues --    0.18082   0.18181   0.18693   0.18979   0.19109
 Alpha virt. eigenvalues --    0.19242   0.19621   0.20022   0.20096   0.20256
 Alpha virt. eigenvalues --    0.20299   0.20698   0.20767   0.21065   0.21273
 Alpha virt. eigenvalues --    0.21315   0.21765   0.21811   0.22292   0.22465
 Alpha virt. eigenvalues --    0.22598   0.22852   0.23012   0.23281   0.23432
 Alpha virt. eigenvalues --    0.23530   0.23804   0.23914   0.24472   0.24567
 Alpha virt. eigenvalues --    0.24723   0.24927   0.25256   0.25628   0.25867
 Alpha virt. eigenvalues --    0.26000   0.26192   0.26454   0.26519   0.26935
 Alpha virt. eigenvalues --    0.27282   0.27367   0.27761   0.28176   0.28287
 Alpha virt. eigenvalues --    0.28617   0.28773   0.29252   0.29464   0.29618
 Alpha virt. eigenvalues --    0.30302   0.30653   0.30926   0.31614   0.31847
 Alpha virt. eigenvalues --    0.31928   0.32418   0.32614   0.32914   0.33328
 Alpha virt. eigenvalues --    0.33778   0.33994   0.34091   0.35126   0.35418
 Alpha virt. eigenvalues --    0.35457   0.35992   0.36443   0.36922   0.37305
 Alpha virt. eigenvalues --    0.37639   0.38782   0.38938   0.39486   0.39807
 Alpha virt. eigenvalues --    0.40553   0.40767   0.41596   0.42640   0.43116
 Alpha virt. eigenvalues --    0.43271   0.43957   0.44345   0.44623   0.45349
 Alpha virt. eigenvalues --    0.45641   0.46780   0.47021   0.47338   0.47677
 Alpha virt. eigenvalues --    0.48522   0.49075   0.49309   0.50500   0.50699
 Alpha virt. eigenvalues --    0.51217   0.51806   0.52096   0.52683   0.52847
 Alpha virt. eigenvalues --    0.53562   0.53867   0.54384   0.54692   0.55172
 Alpha virt. eigenvalues --    0.55423   0.55710   0.56123   0.56863   0.56999
 Alpha virt. eigenvalues --    0.57486   0.57903   0.58515   0.58722   0.59157
 Alpha virt. eigenvalues --    0.59193   0.59648   0.59743   0.60136   0.60285
 Alpha virt. eigenvalues --    0.60641   0.60676   0.61337   0.61670   0.61844
 Alpha virt. eigenvalues --    0.62103   0.63102   0.63347   0.63728   0.63964
 Alpha virt. eigenvalues --    0.64701   0.64852   0.65289   0.65728   0.66136
 Alpha virt. eigenvalues --    0.66213   0.66416   0.67163   0.67312   0.67713
 Alpha virt. eigenvalues --    0.68407   0.68529   0.68882   0.69119   0.69787
 Alpha virt. eigenvalues --    0.70170   0.70481   0.71104   0.71631   0.71715
 Alpha virt. eigenvalues --    0.71906   0.72251   0.72452   0.72993   0.73128
 Alpha virt. eigenvalues --    0.73372   0.73948   0.74424   0.74470   0.75475
 Alpha virt. eigenvalues --    0.75747   0.75976   0.76379   0.76820   0.77376
 Alpha virt. eigenvalues --    0.78242   0.78771   0.79460   0.80299   0.81117
 Alpha virt. eigenvalues --    0.81615   0.83157   0.83685   0.84368   0.85656
 Alpha virt. eigenvalues --    0.86168   0.87055   0.87644   0.88074   0.88494
 Alpha virt. eigenvalues --    0.88914   0.89936   0.90109   0.90351   0.91457
 Alpha virt. eigenvalues --    0.92010   0.92259   0.92642   0.92852   0.93342
 Alpha virt. eigenvalues --    0.93663   0.94235   0.94339   0.95144   0.95441
 Alpha virt. eigenvalues --    0.95709   0.96044   0.96356   0.96607   0.96657
 Alpha virt. eigenvalues --    0.97741   0.98120   0.98574   0.99083   0.99314
 Alpha virt. eigenvalues --    0.99810   1.00382   1.00987   1.01657   1.01737
 Alpha virt. eigenvalues --    1.02371   1.02675   1.03161   1.03443   1.04695
 Alpha virt. eigenvalues --    1.05537   1.05884   1.06512   1.07196   1.07391
 Alpha virt. eigenvalues --    1.08163   1.08395   1.08953   1.09391   1.10461
 Alpha virt. eigenvalues --    1.10693   1.10988   1.12241   1.13276   1.14123
 Alpha virt. eigenvalues --    1.14425   1.15196   1.16121   1.16635   1.17481
 Alpha virt. eigenvalues --    1.17648   1.17935   1.19239   1.21167   1.22240
 Alpha virt. eigenvalues --    1.23087   1.23919   1.27673   1.28392   1.30287
 Alpha virt. eigenvalues --    1.30761   1.31861   1.32905   1.34887   1.36558
 Alpha virt. eigenvalues --    1.37112   1.37797   1.38845   1.40060   1.40404
 Alpha virt. eigenvalues --    1.41096   1.41990   1.42445   1.42917   1.44519
 Alpha virt. eigenvalues --    1.45174   1.46385   1.46889   1.47124   1.47575
 Alpha virt. eigenvalues --    1.47720   1.48068   1.48513   1.49032   1.49264
 Alpha virt. eigenvalues --    1.49848   1.50477   1.51444   1.51941   1.53060
 Alpha virt. eigenvalues --    1.53710   1.54503   1.55639   1.55941   1.56999
 Alpha virt. eigenvalues --    1.57237   1.57476   1.57863   1.58675   1.59149
 Alpha virt. eigenvalues --    1.59597   1.60439   1.60873   1.62116   1.63200
 Alpha virt. eigenvalues --    1.64205   1.64630   1.65154   1.66719   1.66818
 Alpha virt. eigenvalues --    1.67400   1.68070   1.68859   1.69509   1.70442
 Alpha virt. eigenvalues --    1.72148   1.73024   1.73219   1.73688   1.74565
 Alpha virt. eigenvalues --    1.74837   1.75929   1.76320   1.76997   1.77322
 Alpha virt. eigenvalues --    1.78032   1.78778   1.79055   1.80566   1.81083
 Alpha virt. eigenvalues --    1.82021   1.83132   1.83330   1.84401   1.84881
 Alpha virt. eigenvalues --    1.85186   1.85759   1.86548   1.86630   1.87548
 Alpha virt. eigenvalues --    1.87847   1.88471   1.88758   1.89150   1.89514
 Alpha virt. eigenvalues --    1.90320   1.91332   1.91900   1.92441   1.93656
 Alpha virt. eigenvalues --    1.94344   1.94876   1.95382   1.95433   1.96080
 Alpha virt. eigenvalues --    1.96329   1.96501   1.97765   1.98683   1.99628
 Alpha virt. eigenvalues --    2.00536   2.00853   2.01294   2.02535   2.03543
 Alpha virt. eigenvalues --    2.04068   2.04656   2.05147   2.06292   2.06838
 Alpha virt. eigenvalues --    2.07650   2.08307   2.08524   2.10359   2.10979
 Alpha virt. eigenvalues --    2.11393   2.12925   2.13342   2.14148   2.14944
 Alpha virt. eigenvalues --    2.15711   2.16750   2.17958   2.18776   2.20058
 Alpha virt. eigenvalues --    2.20378   2.20744   2.21666   2.22129   2.22806
 Alpha virt. eigenvalues --    2.24357   2.25687   2.25902   2.27413   2.27927
 Alpha virt. eigenvalues --    2.28851   2.30460   2.31706   2.32577   2.33316
 Alpha virt. eigenvalues --    2.34604   2.35570   2.37989   2.39659   2.40213
 Alpha virt. eigenvalues --    2.41806   2.42935   2.44140   2.44787   2.45431
 Alpha virt. eigenvalues --    2.45863   2.46651   2.47536   2.48237   2.51014
 Alpha virt. eigenvalues --    2.51924   2.54351   2.56572   2.57240   2.57809
 Alpha virt. eigenvalues --    2.58641   2.58980   2.59696   2.60898   2.61892
 Alpha virt. eigenvalues --    2.62779   2.63169   2.65249   2.65474   2.66269
 Alpha virt. eigenvalues --    2.68206   2.69726   2.70068   2.70409   2.70881
 Alpha virt. eigenvalues --    2.71933   2.72291   2.72977   2.73079   2.73556
 Alpha virt. eigenvalues --    2.74047   2.74683   2.75491   2.76027   2.76276
 Alpha virt. eigenvalues --    2.76532   2.77217   2.77565   2.77591   2.78104
 Alpha virt. eigenvalues --    2.78758   2.79385   2.80254   2.81125   2.81788
 Alpha virt. eigenvalues --    2.82613   2.83746   2.83973   2.84424   2.85126
 Alpha virt. eigenvalues --    2.85748   2.87387   2.87621   2.88755   2.89151
 Alpha virt. eigenvalues --    2.89691   2.90577   2.91430   2.92708   2.94295
 Alpha virt. eigenvalues --    2.95174   2.96526   2.97637   2.99272   3.00364
 Alpha virt. eigenvalues --    3.01026   3.03298   3.04179   3.04761   3.05978
 Alpha virt. eigenvalues --    3.09264   3.09824   3.11934   3.12473   3.13888
 Alpha virt. eigenvalues --    3.14374   3.14947   3.17266   3.19033   3.20558
 Alpha virt. eigenvalues --    3.21244   3.22260   3.23905   3.24943   3.26770
 Alpha virt. eigenvalues --    3.28158   3.31580   3.32778   3.34420   3.35747
 Alpha virt. eigenvalues --    3.36512   3.37645   3.39460   3.40844   3.41594
 Alpha virt. eigenvalues --    3.42892   3.44466   3.45140   3.46017   3.47672
 Alpha virt. eigenvalues --    3.48501   3.49928   3.50853   3.51495   3.52181
 Alpha virt. eigenvalues --    3.56109   3.57405   3.57717   3.59711   3.61262
 Alpha virt. eigenvalues --    3.63675   3.65574   3.67900   3.69893   3.71309
 Alpha virt. eigenvalues --    3.75888   3.83152   3.83692   3.87271   3.91417
 Alpha virt. eigenvalues --    3.93385   4.03387   4.04252   4.06224   4.06933
 Alpha virt. eigenvalues --    4.08764   4.10806   4.11365   4.14824   4.20643
 Alpha virt. eigenvalues --    4.24788   4.29435   4.35081   4.46499   4.50981
 Alpha virt. eigenvalues --    4.68921   4.74140   4.75646   4.78112   4.80165
 Alpha virt. eigenvalues --    4.80460   4.84870   4.89315   4.91190  23.38474
 Alpha virt. eigenvalues --   23.61542  23.69284  23.77126  23.79191  23.80781
 Alpha virt. eigenvalues --   23.82896  23.83238  23.85200  23.88436  23.89597
 Alpha virt. eigenvalues --   23.91744  23.94364  23.96582  23.98126  23.99043
 Alpha virt. eigenvalues --   24.00154  24.04373  24.05059  24.06623  24.09186
 Alpha virt. eigenvalues --   24.11640  24.11913  24.12862  24.14234  24.17631
 Alpha virt. eigenvalues --   24.19135  24.19480  24.22384  24.26211
          Condensed to atoms (all electrons):
               1          2          3          4          5          6
     1  C    8.642320   0.163005  -0.083265   1.112702  -0.708579  -1.835767
     2  C    0.163005   7.651815   0.059833   0.015587   0.232331   1.329458
     3  C   -0.083265   0.059833   6.939282   0.112300   0.548489  -0.146543
     4  C    1.112702   0.015587   0.112300  11.073480  -1.861535  -2.033659
     5  C   -0.708579   0.232331   0.548489  -1.861535   9.179763   2.099556
     6  C   -1.835767   1.329458  -0.146543  -2.033659   2.099556  10.623280
     7  C    0.211880  -0.344619   0.266988   0.743286  -0.635631  -1.053831
     8  C   -0.102458   0.337219   0.002481   0.720677  -0.098309   0.303867
     9  C   -0.025648  -0.895999   0.700763  -1.503842   0.051209  -0.716680
    10  C    0.334514  -1.211590  -0.537800  -0.798562  -0.342050  -2.103700
    11  C   -0.049610   0.402043  -0.163706   0.268573  -0.250668   0.263805
    12  C   -0.171292   0.026222  -0.078595   0.060128  -0.056302  -0.170819
    13  C    0.115316  -0.450332  -0.289266  -0.438085  -0.116421  -0.229251
    14  C    0.017227  -0.093753  -0.146183  -0.336574  -0.060434  -0.062369
    15  C    0.796814   0.691017  -0.217976  -0.386947  -0.546026   0.130715
    16  C   -0.907609  -0.483305  -0.126418  -0.750659  -0.247291   0.276787
    17  C   -0.692161   0.585550  -0.003584  -0.384373  -0.338757   0.219401
    18  C    0.416030  -0.450360  -0.309676   0.643554  -0.446072  -0.753783
    19  C    0.047190  -0.041410  -0.111487  -0.056262  -0.005222  -0.002495
    20  C    0.096591   0.038105  -0.480786  -0.040839   0.029447   0.077070
    21  C   -0.000510   0.030480   0.002377  -0.008561   0.006090   0.005484
    22  C    0.006219  -0.050785  -0.022238  -0.028513  -0.006184  -0.003404
    23  C   -0.672278  -0.769202   0.143871  -0.228795  -0.093995  -0.052396
    24  C   -0.019180  -0.207548   0.007110  -0.036050  -0.070108  -0.021635
    25  C    0.005224  -0.465221   0.181397  -0.119321   0.012000   0.050554
    26  C   -0.660010  -0.053313  -0.224248   0.087357  -0.141904  -0.069872
    27  C   -0.199073   0.030739  -0.015498   0.012997  -0.084993  -0.088237
    28  C   -0.018153   0.135555  -0.013106   0.007118  -0.003795  -0.013005
    29  C    0.013022  -0.201915   0.049537  -0.011347  -0.001108   0.005059
    30  C   -0.028863  -0.081619   0.001931  -0.005136  -0.002102  -0.000563
    31  H    0.000029   0.000125   0.000012   0.000001   0.000001  -0.000000
    32  H   -0.000099   0.000260   0.000644  -0.000036  -0.000007  -0.000015
    33  H    0.000395  -0.000206   0.000004  -0.000005   0.000030   0.000002
    34  H    0.003292   0.002108   0.000069   0.000045   0.000359   0.000003
    35  H    0.045939   0.006464   0.000721   0.000170   0.009007   0.000804
    36  H   -0.025109   0.030975  -0.011536   0.008236  -0.004513   0.003370
    37  H   -0.121494   0.027398   0.007023  -0.060252   0.399035   0.009919
    38  H    0.007165   0.007461   0.033440  -0.122213   0.024120   0.398576
    39  H    0.005302  -0.020844   0.032323  -0.118554  -0.000190  -0.008145
    40  H    0.001942  -0.002795  -0.004500  -0.032702  -0.001326  -0.001788
    41  H   -0.000355   0.003619  -0.013696   0.008542   0.000147   0.000153
    42  H    0.000017  -0.000222   0.001366   0.000031   0.000002  -0.000010
    43  H   -0.000003  -0.000001  -0.000006   0.000067   0.000001   0.000004
[...]
 4,-0.00030018,0.00006449,-0.00000957,0.00073714,0.00057120,0.00006396,
 0.00001161,-0.00002769,-0.00004613,-0.00001080,-0.00000545,0.00000060,
 -0.00004346,-0.00001527,0.00000929,-0.00000341,0.00000810,0.00000025,0
 .00000661,0.00005046,0.00001417,0.00000150,-0.00000585,0.00000089,0.00
 000416,0.00000571,-0.00000053,0.00000012,-0.00000280,-0.00000004,0.000
 00172,-0.00000427,-0.00000026,-0.00000277,-0.00000545,0.00000012,-0.00
 000384,-0.00000144,0.00000005,-0.00000923,-0.00001836,0.00000025,-0.00
 001324,0.00000889,-0.00000013,-0.00003655,0.00005814,0.00003278,0.0009
 5070,0.00039979,-0.00043249,0.12468721,-0.00000101,-0.00004400,-0.0000
 0059,-0.00001346,0.00002696,-0.00000040,0.00004075,0.00001825,-0.00000
 280,-0.00007266,-0.00006183,-0.00000043,0.00004157,-0.00001166,0.00000
 012,-0.00000806,0.00007534,-0.00000092,0.00004761,-0.00008882,0.000020
 37,-0.00001334,0.00020461,-0.00005217,-0.00002143,-0.00002518,-0.00000
 663,0.00000052,0.00001695,0.00000589,-0.00008210,0.00009269,-0.0000659
 6,0.00059303,0.00032618,0.00006020,0.00064967,0.00179813,0.00037921,-0
 .00019094,-0.00019458,0.00003091,-0.00001952,0.00001104,-0.00000105,0.
 00001064,-0.00004340,-0.00000507,-0.00005901,0.00001084,0.00002444,0.0
 0003403,-0.00002829,0.00000232,0.00115915,0.00231342,0.00006487,0.0035
 7385,-0.00194100,-0.00060728,-0.01327655,-0.02004628,0.00258533,-0.113
 17487,-0.26963485,0.01650655,-0.00003492,-0.00004275,-0.00000159,0.000
 06281,0.00008969,-0.00001022,0.00004893,-0.00025620,-0.00002841,0.0004
 2052,0.00021006,0.00008334,-0.00083788,-0.00105362,0.00008331,-0.00010
 260,-0.00008672,-0.00001909,-0.00007874,-0.00003026,-0.00000208,0.0000
 4474,0.00004714,-0.00000474,0.00003212,-0.00001445,0.00000450,-0.00001
 118,0.00002786,-0.00004300,0.00000978,-0.00001009,0.00000257,0.0000087
 9,-0.00002010,0.00000478,-0.00000568,-0.00000477,0.00000038,-0.0000005
 9,-0.00000455,0.00000109,0.00000028,-0.00000626,0.00000026,-0.00000810
 ,-0.00000217,0.00000062,-0.00000752,-0.00000266,0.00000088,-0.00000642
 ,0.00000560,0.00000096,-0.00001012,-0.00000609,0.00001600,-0.00029740,
 0.00080671,-0.00028660,0.12135947,0.28640064,-0.00001735,-0.00001980,0
 .00001089,-0.00000881,-0.00001913,0.00001608,-0.00000510,0.00000795,-0
 .00000429,0.00002275,-0.00010288,-0.00002008,0.00000565,-0.00005803,-0
 .00000408,0.00002195,0.00006233,-0.00000467,0.00027393,-0.00022532,0.0
 0011634,0.00025959,0.00048971,-0.00074938,-0.00010454,-0.00006069,-0.0
 0008827,0.00002006,0.00009407,0.00005884,-0.00025559,-0.00006877,-0.00
 038248,0.00043306,-0.00008051,-0.00050090,0.00168857,0.00029472,0.0076
 7644,-0.00062733,-0.00003234,0.00025035,-0.00001353,0.00001334,-0.0000
 0086,0.00001702,-0.00004063,-0.00000024,-0.00010044,0.00003838,0.00003
 763,0.00002320,-0.00003458,-0.00002275,-0.00090161,0.00202269,0.004131
 35,-0.00024458,-0.00009687,0.00612067,-0.00085476,0.00096575,0.0031086
 8,0.01307693,0.01601696,-0.03956110,-0.00006310,0.00003286,-0.00000636
 ,0.00005790,0.00005977,-0.00000609,0.00007948,-0.00002954,-0.00007713,
 -0.00010484,0.00011269,-0.00008819,0.00040756,0.00042839,0.00031882,0.
 00005094,0.00001350,0.00000082,-0.00000565,0.00000782,0.00000883,0.000
 03978,-0.00000691,-0.00000084,-0.00000908,0.00000414,0.00000065,0.0000
 4029,-0.00007127,0.00000784,-0.00000347,0.00000755,0.00000118,-0.00000
 156,0.00000779,0.00001461,0.00000043,0.00000180,0.00000173,0.00000140,
 0.00000106,-0.00000008,0.00000377,0.00000132,-0.00000148,-0.00000157,-
 0.00000305,0.00000251,-0.00000152,0.00000234,0.00001814,0.00000281,-0.
 00000127,0.00000160,0.00000737,-0.00002600,0.00021801,-0.00033890,-0.0
 0011252,-0.00431200,-0.01193344,-0.01862895,0.02746268,0.00003752,-0.0
 0005142,0.00000036,-0.00005893,-0.00003179,0.00000894,0.00001617,0.000
 05204,0.00000549,-0.00013819,0.00001985,0.00001356,-0.00001355,-0.0000
 4022,-0.00000172,0.00003291,0.00002718,-0.00000321,0.00004687,-0.00031
 004,-0.00014648,-0.00010884,0.00000728,-0.00000933,0.00013967,0.000054
 34,0.00001799,0.00000543,-0.00014879,-0.00000596,-0.00062057,0.0006294
 6,0.00002469,0.00089137,-0.00215329,0.00124491,0.00040212,0.00000644,-
 0.00016519,0.00000009,0.00003592,-0.00006562,-0.00005599,-0.00002258,-
 0.00000046,0.00001806,-0.00002396,-0.00000244,-0.00015530,0.00005578,0
 .00000196,0.00008094,0.00002976,0.00001464,0.00077991,0.00323721,0.000
 71189,-0.00698644,-0.00003920,0.00011343,-0.34308216,-0.04380139,0.042
 03439,-0.01498251,-0.00332461,0.00166005,-0.00005446,0.00006760,-0.000
 00396,0.00011785,0.00004245,0.00002983,0.00000589,-0.00013376,-0.00003
 791,0.00024569,-0.00002055,-0.00000137,-0.00200198,0.00032203,-0.00009
 313,-0.00311774,0.00626922,-0.00146801,-0.00043471,0.00023017,-0.00000
 660,0.00101281,0.00114254,0.00011199,-0.00003385,-0.00003514,-0.000003
 65,-0.00049803,0.00097360,-0.00037618,0.00001525,0.00013943,-0.0000218
 7,0.00000800,-0.00001078,-0.00000148,0.00000383,-0.00000112,-0.0000015
 4,0.00000190,-0.00000218,-0.00000096,0.00000195,-0.00000393,0.00000043
 ,-0.00000582,-0.00000832,0.00000146,-0.00000676,-0.00000733,-0.0000019
 2,-0.00000498,0.00000630,0.00000199,0.00001022,-0.00000146,0.00001464,
 -0.00070835,-0.00016632,0.00012371,0.00101130,0.00026981,-0.00059580,0
 .36998105,-0.00000118,-0.00003688,0.00000653,-0.00001707,0.00002957,-0
 .00000156,-0.00011805,-0.00000882,0.00001513,-0.00005663,0.00004588,0.
 00002424,0.00005264,0.00002722,-0.00000754,-0.00002979,0.00000279,0.00
 000157,-0.00012944,-0.00024900,-0.00021861,-0.00019509,-0.00035105,-0.
 00003320,0.00014510,0.00012452,0.00003101,-0.00001233,-0.00013486,-0.0
 0001197,-0.00154936,0.00076440,-0.00008515,-0.00015748,-0.00535764,0.0
 0159124,-0.00070139,-0.00112997,-0.00004361,0.00052735,0.00044221,-0.0
 0003782,-0.00001449,-0.00002874,-0.00000037,0.00005459,0.00002009,0.00
 000309,0.00002685,0.00006361,0.00000376,0.00001543,0.00019118,0.000021
 11,0.00266218,-0.00390284,0.00014708,-0.02592874,0.00134904,0.00147733
 ,-0.04071595,-0.05955661,0.00707673,0.02788389,0.00496350,-0.00322268,
 0.00011942,-0.00004856,-0.00000479,-0.00007615,-0.00008713,0.00002024,
 -0.00002127,-0.00005507,0.00002949,0.00038875,-0.00017876,-0.00010734,
 -0.00076569,0.00156374,0.00023772,0.00170721,-0.00445656,0.00038422,-0
 .00053838,0.00006180,-0.00009512,0.00054574,-0.00000746,0.00001641,-0.
 00004362,0.00002068,0.00001726,0.00107392,-0.00124813,-0.00109292,0.00
 003137,0.00006240,0.00000781,0.00000532,-0.00001750,-0.00000424,0.0000
 0630,0.00000473,-0.00000061,0.00000448,0.00000251,0.00000216,-0.000002
 70,-0.00000321,0.00000087,-0.00000249,-0.00000525,0.00000079,-0.000000
 04,0.00000022,-0.00000173,-0.00001315,0.00000134,-0.00000084,-0.000091
 23,0.00002994,0.00001067,0.00118295,0.00001593,0.00006670,0.00005997,0
 .00090738,-0.00028590,0.03216878,0.06922551,-0.00003046,0.00004407,0.0
 0000110,0.00004614,-0.00005244,0.00000434,-0.00007588,-0.00003175,0.00
 004729,0.00011426,0.00007491,0.00001458,-0.00001898,-0.00000970,-0.000
 00502,0.00001817,-0.00005602,-0.00003012,0.00001772,0.00020779,-0.0004
 4306,-0.00010163,-0.00012664,-0.00006015,0.00006690,-0.00003881,0.0001
 0207,-0.00008759,0.00002922,0.00001298,0.00021887,-0.00035518,-0.00026
 037,-0.00045783,0.00098014,0.00397577,-0.00030415,-0.00009135,-0.00042
 809,0.00022540,0.00006430,-0.00045129,0.00007152,-0.00003256,0.0000004
 7,-0.00012804,0.00017029,-0.00000125,0.00012944,-0.00010796,-0.0000858
 5,-0.00010740,0.00015276,0.00019939,0.00056404,0.00003043,0.00540041,0
 .00257495,-0.00016477,0.00066616,0.04200125,0.00546460,-0.02826250,0.0
 0031541,0.00072191,0.00231806,0.00019421,0.00006111,-0.00003102,-0.000
 11765,-0.00031327,0.00018114,0.00009337,0.00038879,-0.00014701,-0.0000
 6713,-0.00034443,-0.00039406,0.00069348,0.00161039,0.00049720,-0.00066
 652,-0.00147881,-0.00279102,-0.00017525,-0.00025958,0.00040996,-0.0002
 4869,0.00016037,-0.00048623,-0.00001320,0.00000560,-0.00012732,0.00214
 527,-0.00231042,0.00052863,-0.00001464,-0.00001111,0.00007708,-0.00000
 769,0.00000343,0.00000179,0.00000740,-0.00000489,-0.00000513,-0.000001
 77,-0.00000503,-0.00000145,-0.00000132,-0.00000028,0.00000305,0.000002
 10,-0.00000027,0.00000903,0.00000311,-0.00000220,-0.00001471,-0.000007
 21,0.00000003,0.00000502,-0.00000473,-0.00000284,0.00007143,0.00007057
 ,0.00004285,0.00067866,-0.00047739,0.00002735,-0.00370346,-0.04328394,
 -0.00814940,0.02263859,0.00015330,-0.00013644,0.00008269,-0.00248709,0
 .00006193,0.00013958,0.00221972,-0.00008165,-0.00027772,-0.00274002,-0
 .00010362,-0.00006706,0.00019645,0.00001974,-0.00001485,0.00006064,0.0
 0090690,-0.00001149,-0.00135032,-0.00039796,0.00113100,-0.00118961,0.0
 0007731,0.00001633,0.00071331,0.00072902,-0.00008514,0.00054674,-0.001
 54878,-0.00000837,0.00215483,0.00486216,0.00066604,-0.02125543,-0.0013
 1162,-0.02216301,-0.00030113,0.00024403,-0.00057759,-0.00031043,-0.000
 54038,0.00025531,0.00000400,0.00036913,-0.00005966,-0.00036937,-0.0001
 8391,-0.00027211,-0.00676526,-0.00098914,0.00029338,0.00373586,-0.0015
 9382,-0.00008920,-0.00511681,-0.00115554,0.00086196,-0.01108523,-0.022
 51617,0.01646154,0.00453211,0.01802923,0.00381903,0.00962355,-0.005902
 25,-0.00108628,-0.00077815,-0.00053750,-0.00007152,0.00132653,0.002516
 91,0.00002652,0.00971856,-0.00566860,0.00061109,0.00232262,0.02222844,
 -0.00023260,0.00297216,-0.02718104,-0.03174679,-0.00656017,-0.00851224
 ,0.00998107,-0.00443206,-0.00335680,-0.00032131,0.00008240,0.00369377,
 -0.00104985,0.00001628,0.00006517,0.00047701,-0.00313867,0.00196627,0.
 00038211,-0.00006260,-0.00006884,-0.00003995,0.00002918,0.00005195,0.0
 0001995,-0.00005141,0.00005856,0.00007666,0.00001432,0.00005470,0.0000
 0127,0.00004979,0.00000514,-0.00000459,-0.00001875,0.00001917,0.000006
 77,-0.00000212,-0.00002216,0.00000016,0.00005726,0.00002452,0.00000858
 ,0.00003984,-0.00002872,0.00010153,-0.00006706,-0.00011606,0.00000382,
 0.00004465,-0.00004534,-0.00034720,-0.00033252,0.00009624,-0.00023091,
 0.02958741,-0.00024938,0.00041539,-0.00009357,0.00101888,-0.00016570,0
 .00009661,-0.00169071,-0.00188694,-0.00002237,0.00349061,0.00019416,-0
 .00000873,0.00007296,-0.00012244,0.00001201,-0.00008346,-0.00098263,0.
 00001760,0.00657099,0.00059845,-0.00036549,0.00071274,0.00235074,0.000
 07311,-0.00030398,-0.00075294,0.00003825,-0.00101623,0.00173746,0.0000
 3908,-0.00970110,-0.00738890,-0.00036106,0.01920556,0.00699471,0.00397
 765,0.00207192,0.00097947,0.00027584,-0.00182651,-0.00083258,-0.000038
 82,0.00023910,-0.00057985,0.00002121,-0.00007850,0.00038979,0.00037075
 ,0.00769519,0.00047650,-0.00086669,-0.00423412,0.00241245,0.00049959,0
 .00601318,0.00117149,-0.00051117,-0.01643071,0.02402825,-0.03138064,-0
 .00621007,-0.03944954,0.02137543,-0.01339432,0.00659894,0.00118190,0.0
 0257157,0.00086749,0.00010048,-0.00298469,-0.00493309,0.00050239,-0.01
 145677,0.00956861,-0.00110419,-0.00150407,-0.03267788,-0.00654669,-0.0
 0918663,0.02738554,0.03946257,0.00495021,0.00680399,-0.00080205,0.0042
 6928,0.00319673,-0.00012716,-0.00003084,-0.00337465,0.00052325,-0.0001
 1751,0.00008676,0.00005290,-0.00040991,-0.00256799,0.00092225,0.000031
 46,0.00008700,0.00009952,-0.00006498,-0.00002054,-0.00002627,0.0000787
 1,-0.00004572,-0.00011191,0.00002729,-0.00005109,0.00003256,-0.0000560
 1,-0.00001411,-0.00001278,0.00001818,-0.00002467,-0.00000614,0.0000112
 6,0.00000920,-0.00000247,-0.00009141,-0.00002501,-0.00001548,0.0000172
 5,0.00003382,-0.00001165,-0.00000311,0.00009547,0.00004638,-0.00026403
 ,0.00022632,-0.00066469,-0.00000518,-0.00015877,-0.00080005,0.02291475
 ,0.00197793,0.00075109,-0.00067147,0.00007504,0.00041106,0.00111089,-0
 .00009818,0.00033225,-0.00030799,-0.00014244,-0.00037938,0.00035665,0.
 00000355,-0.00005500,0.00043624,-0.00000029,-0.00012114,-0.00018467,0.
 00000737,-0.00052921,0.00054851,0.00032138,-0.00051551,-0.00045129,-0.
 00006438,-0.00003000,0.00048315,0.00000500,0.00029104,-0.00031761,-0.0
 0001300,0.00098412,0.00173187,0.00126366,-0.00562716,-0.00231193,0.001
 10289,-0.00048985,-0.00146429,0.00002653,0.00033472,0.00026761,-0.0001
 1374,-0.00082921,0.00017797,0.00001570,0.00086978,-0.00066546,-0.00004
 807,0.00042351,-0.00046300,-0.00008586,-0.00084108,-0.00107244,-0.0007
 3880,-0.00071181,-0.00100824,-0.00047174,-0.02812885,0.03189984,-0.134
 15127,0.00250489,0.00711597,0.00054081,0.00323035,-0.00068431,0.000538
 18,-0.00019790,-0.00052612,-0.00009682,-0.00080068,0.00069812,-0.00081
 266,-0.00051773,-0.00041538,0.00201749,-0.00179857,0.00016179,0.006441
 74,0.01073613,-0.01504963,-0.05248972,-0.00182979,0.00283832,0.0000355
 4,0.00013670,0.00134347,-0.00011747,0.00012537,-0.00169387,0.00063319,
 -0.00010840,0.00016497,0.00020679,0.00062524,0.00076629,0.00088783,0.0
 0003841,0.00003315,-0.00008323,0.00005571,0.00002887,-0.00005319,-0.00
 005032,0.00003874,0.00007904,0.00001039,0.00004336,0.00001649,-0.00001
 116,-0.00000190,-0.00000156,-0.00000319,0.00002885,-0.00000009,0.00000
 497,0.00002172,-0.00000128,0.00003010,-0.00000126,0.00000482,0.0000037
 5,0.00000735,0.00007978,0.00003547,0.00001621,0.00001685,0.00004366,-0
 .00019008,-0.00005790,-0.00004497,0.00021763,-0.00040844,0.02079190,-0
 .02446119,0.17300374,-0.00009171,-0.00017740,0.00000874,0.00019254,0.0
 0016553,-0.00001949,0.00023943,0.00043940,0.00004177,-0.00036571,-0.00
 006488,0.00001033,0.00016827,-0.00007702,-0.00000466,-0.00000893,0.000
 22539,-0.00000977,-0.00072658,-0.00011742,0.00000280,-0.00005336,-0.00
 036560,-0.00001953,0.00016558,0.00007943,-0.00000224,0.00004970,-0.000
 22718,-0.00000290,0.00058684,0.00049602,-0.00014306,-0.00090476,-0.000
 80131,0.00001668,-0.00045374,-0.00045264,0.00017522,0.00043136,0.00013
 515,0.00000193,-0.00004311,-0.00013343,0.00000924,-0.00028534,-0.00000
 935,-0.00008149,0.00001202,-0.00079176,0.00051545,0.00011760,-0.000261
 87,-0.00006863,0.00108186,0.00045539,-0.00003162,0.00097283,-0.0034130
 2,0.00045404,0.00118305,0.00105560,-0.00057464,-0.00108385,0.00074914,
 0.00128487,-0.00008421,0.00008603,0.00002496,0.00036257,0.00012951,-0.
 00001586,-0.00046054,-0.00010788,0.00018837,-0.00437688,0.00045116,0.0
 0004459,-0.00629321,-0.02012768,-0.01835121,-0.05327628,-0.02883191,-0
 .02414182,-0.00285380,0.00181360,-0.00060447,0.00431088,0.01920781,0.0
 1581767,0.00056570,-0.00051864,-0.00008982,0.00067088,0.00225845,0.001
 86733,0.00018283,0.00042142,-0.00144213,0.00001340,-0.00006596,-0.0000
 2271,0.00001329,0.00000050,0.00001945,-0.00003319,-0.00001092,0.000003
 52,0.00001028,0.00000366,0.00000258,-0.00000011,0.00000056,0.00000155,
 0.00000077,-0.00000526,-0.00000169,0.00000435,0.00000152,0.00000260,0.
 00002871,-0.00000546,0.00001407,0.00002131,-0.00000617,-0.00022424,0.0
 0000428,-0.00002861,0.00000533,-0.00146510,0.00242322,-0.00294359,-0.0
 0178728,-0.00058688,0.00085029,0.06325735,0.00009819,-0.00001240,-0.00
 000183,-0.00006140,-0.00007228,0.00001332,-0.00011158,-0.00015219,0.00
 002282,0.00017565,-0.00012853,-0.00000379,-0.00012622,-0.00011099,0.00
 000087,0.00007991,-0.00000565,-0.00000602,0.00082476,-0.00035618,-0.00
 007318,0.00028514,0.00091388,-0.00002497,-0.00019228,-0.00018004,0.000
 01117,-0.00001318,0.00022269,0.00000502,-0.00078922,-0.00047168,-0.000
 14862,0.00135636,0.00013721,0.00059273,0.00117266,0.00175914,0.0000001
 0,-0.00095468,-0.00055676,-0.00001157,-0.00009489,-0.00007235,0.000046
 08,0.00007885,-0.00035032,0.00006770,0.00006798,-0.00040672,-0.0002059
 5,0.00004806,0.00005922,0.00007774,-0.00219028,-0.00055372,0.00003877,
 -0.00097346,0.00311393,-0.00430602,-0.00174901,-0.00162407,0.00207892,
 0.00244594,-0.00178209,-0.00215785,-0.00092562,-0.00008458,-0.00005740
 ,0.00074820,0.00105981,-0.00002379,-0.00147724,-0.00107647,-0.00078562
 ,-0.00211873,0.00080897,-0.00133617,-0.00984625,-0.01067989,-0.0016636
 4,-0.02870269,-0.16077420,-0.12160648,0.00523864,0.00182924,-0.0004282
 5,0.00131731,-0.02374157,-0.01282256,0.00005802,0.00098810,0.00095235,
 0.00227302,0.00600301,0.00762016,-0.00014373,-0.00055610,0.00122718,-0
 .00000280,0.00000694,0.00004243,-0.00000991,-0.00000663,0.00001829,-0.
 00001446,-0.00001369,-0.00000154,0.00000290,-0.00000238,-0.00000028,-0
 .00000792,-0.00001102,-0.00000121,-0.00001196,-0.00000081,0.00000091,-
 0.00000359,0.00000178,-0.00000142,0.00001458,-0.00000611,0.00003108,0.
 00002401,-0.00004454,0.00040113,0.00006144,0.00004475,-0.00001729,0.00
 455614,-0.00289736,0.00450946,0.00300356,-0.00263161,0.00140460,0.0265
 8979,0.19241428,-0.00004571,0.00010191,0.00000245,-0.00002913,-0.00013
 057,-0.00001335,0.00000815,-0.00002539,0.00002423,0.00009332,-0.000078
 07,-0.00000730,-0.00001776,-0.00008398,0.00000516,0.00003237,0.0000234
 6,-0.00000369,0.00041688,-0.00018912,-0.00003250,0.00016542,0.00040151
 ,0.00001002,-0.00003371,-0.00008604,-0.00000283,-0.00002330,0.00007990
 ,0.00000531,-0.00042998,-0.00036038,0.00001111,0.00088532,0.00048620,-
 0.00003405,0.00047676,0.00072634,-0.00003402,-0.00040625,-0.00023011,-
 0.00000453,0.00009505,-0.00000113,-0.00002345,-0.00008275,0.00003593,0
 .00006475,-0.00003226,0.00033439,0.00006622,-0.00006175,0.00008349,0.0
 0000584,-0.00057341,-0.00019184,0.00011006,-0.00005924,0.00157101,-0.0
 0225165,-0.00299323,-0.00159289,-0.00126201,0.00126200,-0.00034921,-0.
 00050547,0.00014019,0.00017917,0.00004742,-0.00003236,-0.00027154,-0.0
 0003605,0.00012699,0.00060956,-0.00008393,0.00058208,0.00000610,-0.000
 87713,0.00016029,0.00555399,0.00502537,-0.02642249,-0.11975248,-0.1475
 0544,-0.00013896,0.00056246,-0.00023268,0.00113919,0.00478698,0.004845
 32,0.00047866,-0.00043509,0.00045636,-0.00491298,-0.01909565,-0.026221
 00,-0.00005862,0.00016652,-0.00037696,-0.00000532,0.00002032,-0.000022
 61,0.00000773,0.00000083,0.00000021,0.00001008,0.00000245,-0.00000357,
 0.00000208,0.00000113,-0.00000079,-0.00000079,-0.00000603,0.00000023,-
 0.00000328,-0.00000231,0.00000072,-0.00000164,-0.00000031,-0.00000012,
 0.00001103,-0.00000861,-0.00000763,0.00009776,-0.00003193,0.00009064,-
 0.00000792,0.00005183,0.00000795,0.00020734,0.00199461,0.00029338,0.00
 254191,-0.00138005,0.00272670,0.02743220,0.12652265,0.16574327\\-0.000
 00041,0.00000107,-0.00000038,-0.00000193,0.00000003,-0.00000034,0.0000
 0048,0.00000047,0.00000068,-0.00000088,0.00000148,-0.00000171,-0.00000
 100,0.00000098,-0.00000153,-0.00000081,0.00000128,-0.00000197,-0.00000
 141,0.00000099,-0.00000045,-0.00000014,-0.00000043,-0.00000089,0.00000
 083,0.00000198,-0.00000229,0.00000013,0.00000068,-0.00000239,0.0000011
 6,-0.00000181,-0.00000177,0.00000613,0.00000100,-0.00000008,-0.0000010
 4,-0.00000039,0.00000200,0.00000183,0.00000139,-0.00000180,-0.00000102
 ,0.00000011,-0.00000034,-0.00000039,-0.00000061,0.00000019,0.00000254,
 -0.00000073,-0.00000087,-0.00000120,0.00000174,-0.00000013,0.00000204,
 0.00000004,-0.00000054,-0.00000524,0.00000039,-0.00002181,-0.00000012,
 -0.00000291,0.00000069,0.00000091,0.00000199,0.00000081,-0.00000082,-0
 .00000019,0.00000060,-0.00000143,-0.00000113,0.00000143,-0.00000126,-0
 .00000107,0.00000134,-0.00000327,-0.00000659,0.00000169,-0.00000547,0.
 00000926,0.00000528,0.00000256,-0.00000016,0.00000399,0.00000012,-0.00
 000104,0.00000269,-0.00000167,-0.00000127,0.00000099,0.00000022,-0.000
 00172,0.00000068,0.00000188,0.00000029,0.00000120,-0.00000047,-0.00000
 153,0.00000191,-0.00000118,-0.00000118,0.00000202,-0.00000134,-0.00000
 043,0.00000070,-0.00000139,0.00000030,-0.00000013,-0.00000127,0.000001
 08,-0.00000114,-0.00000081,0.00000157,-0.00000183,0.00000002,0.0000017
 8,-0.00000216,0.00000066,0.00000153,-0.00000184,0.00000110,0.00000087,
 -0.00000120,0.00000161,0.00000035,0.00000002,0.00000163,-0.00000037,0.
 00000058,0.00000251,-0.00000160,0.00000026,0.00000753,-0.00000596,0.00
 001674,0.00000009,-0.00000154,0.00000109\\\@


 WAR ES EIN GOTT DER DIESE ZEICHEN SCHRIEB?
          - LUDWIG BOLTZMANN, QUOTING GOETHE, ABOUT MAXWELL'S EQUATIONS.
 Job cpu time:       0 days 22 hours 14 minutes 23.3 seconds.
 Elapsed time:       0 days  1 hours  6 minutes 54.5 seconds.
 File lengths (MBytes):  RWF=   2270 Int=      0 D2E=      0 Chk=     47 Scr=      1
 Normal termination of Gaussian 16 at Tue Jun 18 17:29:23 2019.
