 Entering Gaussian System, Link 0=/share/apps/gaussian16/g16/g16
 Initial command:
 /share/apps/gaussian16/g16/l1.exe "/home/am2145//scratch/4156/Gau-4423.inp" -scrdir="/home/am2145//scratch/4156/"
 Entering Link 1 = /share/apps/gaussian16/g16/l1.exe PID=      4424.
  
 Copyright (c) 1988,1990,1992,1993,1995,1998,2003,2009,2016,
            Gaussian, Inc.  All Rights Reserved.
  
 This is part of the Gaussian(R) 16 program.  It is based on
 the Gaussian(R) 09 system (copyright 2009, Gaussian, Inc.),
 the Gaussian(R) 03 system (copyright 2003, Gaussian, Inc.),
 the Gaussian(R) 98 system (copyright 1998, Gaussian, Inc.),
 the Gaussian(R) 94 system (copyright 1995, Gaussian, Inc.),
 the Gaussian 92(TM) system (copyright 1992, Gaussian, Inc.),
 the Gaussian 90(TM) system (copyright 1990, Gaussian, Inc.),
 the Gaussian 88(TM) system (copyright 1988, Gaussian, Inc.),
 the Gaussian 86(TM) system (copyright 1986, Carnegie Mellon
 University), and the Gaussian 82(TM) system (copyright 1983,
 Carnegie Mellon University). Gaussian is a federally registered
 trademark of Gaussian, Inc.
  
 This software contains proprietary and confidential information,
 including trade secrets, belonging to Gaussian, Inc.
  
 This software is provided under written license and may be
 used, copied, transmitted, or stored only in accord with that
 written license.
  
 The following legend is applicable only to US Government
 contracts under FAR:
  
                    RESTRICTED RIGHTS LEGEND
  
 Use, reproduction and disclosure by the US Government is
 subject to restrictions as set forth in subparagraphs (a)
 and (c) of the Commercial Computer Software - Restricted
 Rights clause in FAR 52.227-19.
  
 Gaussian, Inc.
 340 Quinnipiac St., Bldg. 40, Wallingford CT 06492
  
  
 ---------------------------------------------------------------
 Warning -- This program may not be used in any manner that
 competes with the business of Gaussian, Inc. or will provide
 assistance to any competitor of Gaussian, Inc.  The licensee
 of this program is prohibited from giving any competitor of
 Gaussian, Inc. access to this program.  By using this program,
 the user acknowledges that Gaussian, Inc. is engaged in the
 business of creating and licensing software in the field of
 computational chemistry and represents and warrants to the
 licensee that it is not a competitor of Gaussian, Inc. and that
 it will not use this program in any manner prohibited above.
 ---------------------------------------------------------------
  

 Cite this work as:
 Gaussian 16, Revision A.03,
 M. J. Frisch, G. W. Trucks, H. B. Schlegel, G. E. Scuseria, 
 M. A. Robb, J. R. Cheeseman, G. Scalmani, V. Barone, 
 G. A. Petersson, H. Nakatsuji, X. Li, M. Caricato, A. V. Marenich, 
 J. Bloino, B. G. Janesko, R. Gomperts, B. Mennucci, H. P. Hratchian, 
 J. V. Ortiz, A. F. Izmaylov, J. L. Sonnenberg, D. Williams-Young, 
 F. Ding, F. Lipparini, F. Egidi, J. Goings, B. Peng, A. Petrone, 
 T. Henderson, D. Ranasinghe, V. G. Zakrzewski, J. Gao, N. Rega, 
 G. Zheng, W. Liang, M. Hada, M. Ehara, K. Toyota, R. Fukuda, 
 J. Hasegawa, M. Ishida, T. Nakajima, Y. Honda, O. Kitao, H. Nakai, 
 T. Vreven, K. Throssell, J. A. Montgomery, Jr., J. E. Peralta, 
 F. Ogliaro, M. J. Bearpark, J. J. Heyd, E. N. Brothers, K. N. Kudin, 
 V. N. Staroverov, T. A. Keith, R. Kobayashi, J. Normand, 
 K. Raghavachari, A. P. Rendell, J. C. Burant, S. S. Iyengar, 
 J. Tomasi, M. Cossi, J. M. Millam, M. Klene, C. Adamo, R. Cammi, 
 J. W. Ochterski, R. L. Martin, K. Morokuma, O. Farkas, 
 J. B. Foresman, and D. J. Fox, Gaussian, Inc., Wallingford CT, 2016.
 
 ******************************************
 Gaussian 16:  ES64L-G16RevA.03 25-Dec-2016
                 2-May-2019 
 ******************************************
 %nprocshared=20
 Will use up to   20 processors via shared memory.
 %mem=100GB
 %chk=7-path-TSguess-3.chk
 ----------------------------------------------------------------------
 # opt=(ts,calcfc,modredundant,noeigen) freq b3lyp/6-311+g(d,p) geom=co
 nnectivity int=grid=fine
 ----------------------------------------------------------------------
 1/5=1,10=4,11=1,18=120,26=3,38=1,57=2/1,3;
 2/9=110,12=2,17=6,18=5,40=1/2;
 3/5=4,6=6,7=111,11=2,25=1,30=1,71=2,74=-5,75=-4,140=1/1,2,3;
 4//1;
 5/5=2,38=5/2;
 8/6=4,10=90,11=11/1;
 11/6=1,8=1,9=11,15=111,16=1/1,2,10;
 10/6=1,13=1/2;
 6/7=2,8=2,9=2,10=2,28=1/1;
 7/10=1,18=20,25=1/1,2,3,16;
 1/5=1,10=4,11=1,18=20,26=3/3(2);
 2/9=110/2;
 99//99;
 2/9=110/2;
 3/5=4,6=6,7=111,11=2,25=1,30=1,71=1,74=-5,75=-4/1,2,3;
 4/5=5,16=3,69=1/1;
 5/5=2,38=5/2;
 7//1,2,3,16;
 1/5=1,11=1,18=20,26=3/3(-5);
 2/9=110/2;
 6/7=2,8=2,9=2,10=2,19=2,28=1/1;
 99/9=1/99;
 ----------------
 7-path-TSguess-3
 ----------------
 Symbolic Z-matrix:
 Charge =  0 Multiplicity = 2
 C                     0.79337   3.06819  -0.0186 
 C                     2.20813   3.01414   0.11217 
 C                     2.87168   1.7891    0.29791 
 C                     2.02031   0.69107   0.42558 
 C                     0.62187   0.68533   0.31673 
 C                    -0.04172   1.8741    0.07563 
 C                     0.21044  -0.71252   0.16198 
 C                     2.49323  -0.62572   0.34009 
 C                     1.39054  -1.47332   0.17567 
 C                     4.28201   1.43953   0.21918 
 C                     3.80464  -0.99268   0.16019 
 C                     4.72461   0.13092   0.15433 
 C                     1.52978  -2.82416  -0.12656 
 C                     3.98152  -2.40622  -0.0986 
 C                     2.90516  -3.27121  -0.22537 
 C                    -1.00256  -1.34001  -0.07272 
 C                    -0.92415  -2.78142  -0.28322 
 C                     0.3006   -3.48298  -0.34404 
 C                    -2.27711  -0.63806   0.00969 
 C                    -2.16008  -3.50344  -0.38985 
 C                    -3.44123  -1.46373   0.0634 
 C                    -3.34432  -2.87937  -0.19179 
 C                    -1.46223   1.90298  -0.22967 
 C                     0.15085   4.29125  -0.3578 
 C                    -1.19173   4.31651  -0.65519 
 C                    -1.98369   3.15697  -0.59239 
 C                    -2.44308   0.79505   0.12804 
 C                    -3.70032   1.25025   0.54012 
 C                    -4.69964  -0.92076   0.38109 
 C                    -4.81423   0.41781   0.67784 
 H                     5.7902   -0.04944   0.05446 
 H                     4.98216  -2.80644  -0.22732 
 H                     3.10561  -4.31566  -0.44127 
 H                     0.26635  -4.54757  -0.5539 
 H                     5.01699   2.23623   0.16548 
 H                     2.76459   3.93636  -0.02303 
 H                     0.7429    5.19802  -0.41731 
 H                    -1.65841   5.248    -0.95568 
 H                    -3.02239   3.23498  -0.88305 
 H                    -3.82755   2.30195   0.75378 
 H                    -5.76233   0.83846   0.9927 
 H                    -5.56126  -1.57791   0.42479 
 H                    -4.26931  -3.44571  -0.21345 
 H                    -2.12541  -4.57039  -0.58232 
 H                    -1.25785   1.27357  -2.01688 
 
 Add virtual bond connecting atoms H45        and C23        Dist= 3.60D+00.
 The following ModRedundant input section has been read:
 

 GradGradGradGradGradGradGradGradGradGradGradGradGradGradGradGradGradGrad
 Berny optimization.
 Initialization pass.
                           ----------------------------
                           !    Initial Parameters    !
                           ! (Angstroms and Degrees)  !
 --------------------------                            --------------------------
 ! Name  Definition              Value          Derivative Info.                !
 --------------------------------------------------------------------------------
 ! R1    R(1,2)                  1.4218         calculate D2E/DX2 analytically  !
 ! R2    R(1,6)                  1.4602         calculate D2E/DX2 analytically  !
 ! R3    R(1,24)                 1.4226         calculate D2E/DX2 analytically  !
 ! R4    R(2,3)                  1.4055         calculate D2E/DX2 analytically  !
 ! R5    R(2,36)                 1.0855         calculate D2E/DX2 analytically  !
 ! R6    R(3,4)                  1.3953         calculate D2E/DX2 analytically  !
 ! R7    R(3,10)                 1.4551         calculate D2E/DX2 analytically  !
 ! R8    R(4,5)                  1.4027         calculate D2E/DX2 analytically  !
 ! R9    R(4,8)                  1.4017         calculate D2E/DX2 analytically  !
 ! R10   R(5,6)                  1.3826         calculate D2E/DX2 analytically  !
 ! R11   R(5,7)                  1.4653         calculate D2E/DX2 analytically  !
 ! R12   R(6,23)                 1.4532         calculate D2E/DX2 analytically  !
 ! R13   R(7,9)                  1.4041         calculate D2E/DX2 analytically  !
 ! R14   R(7,16)                 1.3857         calculate D2E/DX2 analytically  !
 ! R15   R(8,9)                  1.4005         calculate D2E/DX2 analytically  !
 ! R16   R(8,11)                 1.3736         calculate D2E/DX2 analytically  !
 ! R17   R(9,13)                 1.3912         calculate D2E/DX2 analytically  !
 ! R18   R(10,12)                1.383          calculate D2E/DX2 analytically  !
 ! R19   R(10,35)                1.0853         calculate D2E/DX2 analytically  !
 ! R20   R(11,12)                1.4522         calculate D2E/DX2 analytically  !
 ! R21   R(11,14)                1.4479         calculate D2E/DX2 analytically  !
 ! R22   R(12,31)                1.0854         calculate D2E/DX2 analytically  !
 ! R23   R(13,15)                1.4496         calculate D2E/DX2 analytically  !
 ! R24   R(13,18)                1.4115         calculate D2E/DX2 analytically  !
 ! R25   R(14,15)                1.3867         calculate D2E/DX2 analytically  !
 ! R26   R(14,32)                1.0854         calculate D2E/DX2 analytically  !
 ! R27   R(15,33)                1.0852         calculate D2E/DX2 analytically  !
 ! R28   R(16,17)                1.4588         calculate D2E/DX2 analytically  !
 ! R29   R(16,19)                1.4574         calculate D2E/DX2 analytically  !
 ! R30   R(17,18)                1.4128         calculate D2E/DX2 analytically  !
 ! R31   R(17,20)                1.4353         calculate D2E/DX2 analytically  !
 ! R32   R(18,34)                1.0856         calculate D2E/DX2 analytically  !
 ! R33   R(19,21)                1.4282         calculate D2E/DX2 analytically  !
 ! R34   R(19,27)                1.4475         calculate D2E/DX2 analytically  !
 ! R35   R(20,22)                1.3532         calculate D2E/DX2 analytically  !
 ! R36   R(20,44)                1.0847         calculate D2E/DX2 analytically  !
 ! R37   R(21,22)                1.4417         calculate D2E/DX2 analytically  !
 ! R38   R(21,29)                1.4069         calculate D2E/DX2 analytically  !
 ! R39   R(22,43)                1.0848         calculate D2E/DX2 analytically  !
 ! R40   R(23,26)                1.4057         calculate D2E/DX2 analytically  !
 ! R41   R(23,27)                1.5223         calculate D2E/DX2 analytically  !
 ! R42   R(23,45)                1.9058         calculate D2E/DX2 analytically  !
 ! R43   R(24,25)                1.3754         calculate D2E/DX2 analytically  !
 ! R44   R(24,37)                1.0846         calculate D2E/DX2 analytically  !
 ! R45   R(25,26)                1.4056         calculate D2E/DX2 analytically  !
 ! R46   R(25,38)                1.0843         calculate D2E/DX2 analytically  !
 ! R47   R(26,39)                1.0814         calculate D2E/DX2 analytically  !
 ! R48   R(27,28)                1.3992         calculate D2E/DX2 analytically  !
 ! R49   R(28,30)                1.3974         calculate D2E/DX2 analytically  !
 ! R50   R(28,40)                1.0807         calculate D2E/DX2 analytically  !
 ! R51   R(29,30)                1.3758         calculate D2E/DX2 analytically  !
 ! R52   R(29,42)                1.0845         calculate D2E/DX2 analytically  !
 ! R53   R(30,41)                1.084          calculate D2E/DX2 analytically  !
 ! A1    A(2,1,6)              122.1445         calculate D2E/DX2 analytically  !
 ! A2    A(2,1,24)             120.2664         calculate D2E/DX2 analytically  !
 ! A3    A(6,1,24)             117.3968         calculate D2E/DX2 analytically  !
 ! A4    A(1,2,3)              121.0002         calculate D2E/DX2 analytically  !
 ! A5    A(1,2,36)             117.7957         calculate D2E/DX2 analytically  !
 ! A6    A(3,2,36)             120.9906         calculate D2E/DX2 analytically  !
 ! A7    A(2,3,4)              114.2001         calculate D2E/DX2 analytically  !
 ! A8    A(2,3,10)             131.2846         calculate D2E/DX2 analytically  !
 ! A9    A(4,3,10)             114.0345         calculate D2E/DX2 analytically  !
 ! A10   A(3,4,5)              127.1896         calculate D2E/DX2 analytically  !
 ! A11   A(3,4,8)              121.8582         calculate D2E/DX2 analytically  !
 ! A12   A(5,4,8)              109.1345         calculate D2E/DX2 analytically  !
 ! A13   A(4,5,6)              119.2429         calculate D2E/DX2 analytically  !
 ! A14   A(4,5,7)              106.979          calculate D2E/DX2 analytically  !
 ! A15   A(6,5,7)              131.8377         calculate D2E/DX2 analytically  !
 ! A16   A(1,6,5)              116.0959         calculate D2E/DX2 analytically  !
 ! A17   A(1,6,23)             121.9534         calculate D2E/DX2 analytically  !
 ! A18   A(5,6,23)             121.5244         calculate D2E/DX2 analytically  !
 ! A19   A(5,7,9)              106.2521         calculate D2E/DX2 analytically  !
 ! A20   A(5,7,16)             134.078          calculate D2E/DX2 analytically  !
 ! A21   A(9,7,16)             119.4715         calculate D2E/DX2 analytically  !
 ! A22   A(4,8,9)              108.0623         calculate D2E/DX2 analytically  !
 ! A23   A(4,8,11)             125.5241         calculate D2E/DX2 analytically  !
 ! A24   A(9,8,11)             125.0748         calculate D2E/DX2 analytically  !
 ! A25   A(7,9,8)              109.5699         calculate D2E/DX2 analytically  !
 ! A26   A(7,9,13)             127.4514         calculate D2E/DX2 analytically  !
 ! A27   A(8,9,13)             122.2999         calculate D2E/DX2 analytically  !
 ! A28   A(3,10,12)            122.6868         calculate D2E/DX2 analytically  !
 ! A29   A(3,10,35)            118.8618         calculate D2E/DX2 analytically  !
 ! A30   A(12,10,35)           118.3968         calculate D2E/DX2 analytically  !
 ! A31   A(8,11,12)            113.4936         calculate D2E/DX2 analytically  !
 ! A32   A(8,11,14)            113.6314         calculate D2E/DX2 analytically  !
 ! A33   A(12,11,14)           132.6303         calculate D2E/DX2 analytically  !
 ! A34   A(10,12,11)           121.951          calculate D2E/DX2 analytically  !
 ! A35   A(10,12,31)           118.4098         calculate D2E/DX2 analytically  !
 ! A36   A(11,12,31)           119.5886         calculate D2E/DX2 analytically  !
 ! A37   A(9,13,15)            114.1553         calculate D2E/DX2 analytically  !
 ! A38   A(9,13,18)            113.5487         calculate D2E/DX2 analytically  !
 ! A39   A(15,13,18)           132.2085         calculate D2E/DX2 analytically  !
 ! A40   A(11,14,15)           122.04           calculate D2E/DX2 analytically  !
 ! A41   A(11,14,32)           119.592          calculate D2E/DX2 analytically  !
 ! A42   A(15,14,32)           118.3444         calculate D2E/DX2 analytically  !
 ! A43   A(13,15,14)           122.5399         calculate D2E/DX2 analytically  !
 ! A44   A(13,15,33)           119.0539         calculate D2E/DX2 analytically  !
 ! A45   A(14,15,33)           118.3708         calculate D2E/DX2 analytically  !
 ! A46   A(7,16,17)            115.1389         calculate D2E/DX2 analytically  !
 ! A47   A(7,16,19)            122.5382         calculate D2E/DX2 analytically  !
 ! A48   A(17,16,19)           122.0775         calculate D2E/DX2 analytically  !
 ! A49   A(16,17,18)           122.9202         calculate D2E/DX2 analytically  !
 ! A50   A(16,17,20)           117.482          calculate D2E/DX2 analytically  !
 ! A51   A(18,17,20)           119.5698         calculate D2E/DX2 analytically  !
 ! A52   A(13,18,17)           121.1008         calculate D2E/DX2 analytically  !
 ! A53   A(13,18,34)           120.9961         calculate D2E/DX2 analytically  !
 ! A54   A(17,18,34)           117.9004         calculate D2E/DX2 analytically  !
 ! A55   A(16,19,21)           115.8814         calculate D2E/DX2 analytically  !
 ! A56   A(16,19,27)           125.5731         calculate D2E/DX2 analytically  !
 ! A57   A(21,19,27)           118.4129         calculate D2E/DX2 analytically  !
 ! A58   A(17,20,22)           120.7105         calculate D2E/DX2 analytically  !
 ! A59   A(17,20,44)           118.715          calculate D2E/DX2 analytically  !
 ! A60   A(22,20,44)           120.5018         calculate D2E/DX2 analytically  !
 ! A61   A(19,21,22)           120.4116         calculate D2E/DX2 analytically  !
 ! A62   A(19,21,29)           120.9606         calculate D2E/DX2 analytically  !
 ! A63   A(22,21,29)           118.6232         calculate D2E/DX2 analytically  !
 ! A64   A(20,22,21)           122.5189         calculate D2E/DX2 analytically  !
 ! A65   A(20,22,43)           120.1674         calculate D2E/DX2 analytically  !
 ! A66   A(21,22,43)           117.3119         calculate D2E/DX2 analytically  !
 ! A67   A(6,23,26)            115.7564         calculate D2E/DX2 analytically  !
 ! A68   A(6,23,27)            124.4694         calculate D2E/DX2 analytically  !
 ! A69   A(6,23,45)             94.9116         calculate D2E/DX2 analytically  !
 ! A70   A(26,23,27)           118.0898         calculate D2E/DX2 analytically  !
 ! A71   A(26,23,45)            95.3032         calculate D2E/DX2 analytically  !
 ! A72   A(27,23,45)            92.8138         calculate D2E/DX2 analytically  !
 ! A73   A(1,24,25)            120.5466         calculate D2E/DX2 analytically  !
 ! A74   A(1,24,37)            119.0345         calculate D2E/DX2 analytically  !
 ! A75   A(25,24,37)           120.3744         calculate D2E/DX2 analytically  !
 ! A76   A(24,25,26)           121.6813         calculate D2E/DX2 analytically  !
 ! A77   A(24,25,38)           119.7245         calculate D2E/DX2 analytically  !
 ! A78   A(26,25,38)           118.5917         calculate D2E/DX2 analytically  !
 ! A79   A(23,26,25)           122.5773         calculate D2E/DX2 analytically  !
 ! A80   A(23,26,39)           119.3416         calculate D2E/DX2 analytically  !
 ! A81   A(25,26,39)           118.0121         calculate D2E/DX2 analytically  !
 ! A82   A(19,27,23)           128.8617         calculate D2E/DX2 analytically  !
 ! A83   A(19,27,28)           116.6922         calculate D2E/DX2 analytically  !
 ! A84   A(23,27,28)           114.2915         calculate D2E/DX2 analytically  !
 ! A85   A(27,28,30)           123.4698         calculate D2E/DX2 analytically  !
 ! A86   A(27,28,40)           118.726          calculate D2E/DX2 analytically  !
 ! A87   A(30,28,40)           117.8            calculate D2E/DX2 analytically  !
 ! A88   A(21,29,30)           119.9123         calculate D2E/DX2 analytically  !
 ! A89   A(21,29,42)           119.0702         calculate D2E/DX2 analytically  !
 ! A90   A(30,29,42)           120.9755         calculate D2E/DX2 analytically  !
 ! A91   A(28,30,29)           119.4668         calculate D2E/DX2 analytically  !
 ! A92   A(28,30,41)           119.6484         calculate D2E/DX2 analytically  !
 ! A93   A(29,30,41)           120.867          calculate D2E/DX2 analytically  !
 ! D1    D(6,1,2,3)              2.0342         calculate D2E/DX2 analytically  !
 ! D2    D(6,1,2,36)           176.7768         calculate D2E/DX2 analytically  !
 ! D3    D(24,1,2,3)          -172.7949         calculate D2E/DX2 analytically  !
 ! D4    D(24,1,2,36)            1.9476         calculate D2E/DX2 analytically  !
 ! D5    D(2,1,6,5)              0.7784         calculate D2E/DX2 analytically  !
 ! D6    D(2,1,6,23)          -171.8321         calculate D2E/DX2 analytically  !
 ! D7    D(24,1,6,5)           175.7485         calculate D2E/DX2 analytically  !
 ! D8    D(24,1,6,23)            3.138          calculate D2E/DX2 analytically  !
 ! D9    D(2,1,24,25)          171.5479         calculate D2E/DX2 analytically  !
 ! D10   D(2,1,24,37)           -6.0361         calculate D2E/DX2 analytically  !
 ! D11   D(6,1,24,25)           -3.5213         calculate D2E/DX2 analytically  !
 ! D12   D(6,1,24,37)          178.8946         calculate D2E/DX2 analytically  !
 ! D13   D(1,2,3,4)             -3.9793         calculate D2E/DX2 analytically  !
 ! D14   D(1,2,3,10)           167.452          calculate D2E/DX2 analytically  !
 ! D15   D(36,2,3,4)          -178.5535         calculate D2E/DX2 analytically  !
 ! D16   D(36,2,3,10)           -7.1223         calculate D2E/DX2 analytically  !
 ! D17   D(2,3,4,5)              3.664          calculate D2E/DX2 analytically  !
 ! D18   D(2,3,4,8)            166.5956         calculate D2E/DX2 analytically  !
 ! D19   D(10,3,4,5)          -169.2944         calculate D2E/DX2 analytically  !
 ! D20   D(10,3,4,8)            -6.3628         calculate D2E/DX2 analytically  !
 ! D21   D(2,3,10,12)         -165.8693         calculate D2E/DX2 analytically  !
 ! D22   D(2,3,10,35)           11.3953         calculate D2E/DX2 analytically  !
 ! D23   D(4,3,10,12)            5.5731         calculate D2E/DX2 analytically  !
 ! D24   D(4,3,10,35)         -177.1622         calculate D2E/DX2 analytically  !
 ! D25   D(3,4,5,6)             -1.0099         calculate D2E/DX2 analytically  !
 ! D26   D(3,4,5,7)            164.974          calculate D2E/DX2 analytically  !
 ! D27   D(8,4,5,6)           -165.7098         calculate D2E/DX2 analytically  !
 ! D28   D(8,4,5,7)              0.2742         calculate D2E/DX2 analytically  !
 ! D29   D(3,4,8,9)           -165.6529         calculate D2E/DX2 analytically  !
 ! D30   D(3,4,8,11)             1.6356         calculate D2E/DX2 analytically  !
 ! D31   D(5,4,8,9)              0.0176         calculate D2E/DX2 analytically  !
 ! D32   D(5,4,8,11)           167.3061         calculate D2E/DX2 analytically  !
 ! D33   D(4,5,6,1)             -1.2949         calculate D2E/DX2 analytically  !
 ! D34   D(4,5,6,23)           171.3499         calculate D2E/DX2 analytically  !
 ! D35   D(7,5,6,1)           -163.1811         calculate D2E/DX2 analytically  !
 ! D36   D(7,5,6,23)             9.4638         calculate D2E/DX2 analytically  !
 ! D37   D(4,5,7,9)             -0.4589         calculate D2E/DX2 analytically  !
 ! D38   D(4,5,7,16)          -175.1026         calculate D2E/DX2 analytically  !
 ! D39   D(6,5,7,9)            163.0631         calculate D2E/DX2 analytically  !
 ! D40   D(6,5,7,16)           -11.5806         calculate D2E/DX2 analytically  !
 ! D41   D(1,6,23,26)           -1.3135         calculate D2E/DX2 analytically  !
 ! D42   D(1,6,23,27)         -166.1869         calculate D2E/DX2 analytically  !
 ! D43   D(1,6,23,45)           96.9926         calculate D2E/DX2 analytically  !
 ! D44   D(5,6,23,26)         -173.5259         calculate D2E/DX2 analytically  !
 ! D45   D(5,6,23,27)           21.6007         calculate D2E/DX2 analytically  !
 ! D46   D(5,6,23,45)          -75.2198         calculate D2E/DX2 analytically  !
 ! D47   D(5,7,9,8)              0.4788         calculate D2E/DX2 analytically  !
 ! D48   D(5,7,9,13)          -170.1525         calculate D2E/DX2 analytically  !
 ! D49   D(16,7,9,8)           176.0609         calculate D2E/DX2 analytically  !
 ! D50   D(16,7,9,13)            5.4297         calculate D2E/DX2 analytically  !
 ! D51   D(5,7,16,17)          174.3601         calculate D2E/DX2 analytically  !
 ! D52   D(5,7,16,19)          -11.2246         calculate D2E/DX2 analytically  !
 ! D53   D(9,7,16,17)            0.2686         calculate D2E/DX2 analytically  !
 ! D54   D(9,7,16,19)          174.6839         calculate D2E/DX2 analytically  !
 ! D55   D(4,8,9,7)             -0.3195         calculate D2E/DX2 analytically  !
 ! D56   D(4,8,9,13)           170.886          calculate D2E/DX2 analytically  !
 ! D57   D(11,8,9,7)          -167.6796         calculate D2E/DX2 analytically  !
 ! D58   D(11,8,9,13)            3.5259         calculate D2E/DX2 analytically  !
 ! D59   D(4,8,11,12)            4.1108         calculate D2E/DX2 analytically  !
 ! D60   D(4,8,11,14)         -170.9374         calculate D2E/DX2 analytically  !
 ! D61   D(9,8,11,12)          169.3006         calculate D2E/DX2 analytically  !
 ! D62   D(9,8,11,14)           -5.7476         calculate D2E/DX2 analytically  !
 ! D63   D(7,9,13,15)          170.7868         calculate D2E/DX2 analytically  !
 ! D64   D(7,9,13,18)           -6.2344         calculate D2E/DX2 analytically  !
 ! D65   D(8,9,13,15)            1.2418         calculate D2E/DX2 analytically  !
 ! D66   D(8,9,13,18)         -175.7793         calculate D2E/DX2 analytically  !
 ! D67   D(3,10,12,11)           0.0116         calculate D2E/DX2 analytically  !
 ! D68   D(3,10,12,31)         177.4115         calculate D2E/DX2 analytically  !
 ! D69   D(35,10,12,11)       -177.2651         calculate D2E/DX2 analytically  !
 ! D70   D(35,10,12,31)          0.1348         calculate D2E/DX2 analytically  !
 ! D71   D(8,11,12,10)          -4.7967         calculate D2E/DX2 analytically  !
 ! D72   D(8,11,12,31)         177.8332         calculate D2E/DX2 analytically  !
 ! D73   D(14,11,12,10)        169.033          calculate D2E/DX2 analytically  !
 ! D74   D(14,11,12,31)         -8.337          calculate D2E/DX2 analytically  !
 ! D75   D(8,11,14,15)           3.5398         calculate D2E/DX2 analytically  !
 ! D76   D(8,11,14,32)        -178.2583         calculate D2E/DX2 analytically  !
 ! D77   D(12,11,14,15)       -170.2835         calculate D2E/DX2 analytically  !
 ! D78   D(12,11,14,32)          7.9185         calculate D2E/DX2 analytically  !
 ! D79   D(9,13,15,14)          -3.2455         calculate D2E/DX2 analytically  !
 ! D80   D(9,13,15,33)         178.9575         calculate D2E/DX2 analytically  !
 ! D81   D(18,13,15,14)        173.0669         calculate D2E/DX2 analytically  !
 ! D82   D(18,13,15,33)         -4.7301         calculate D2E/DX2 analytically  !
 ! D83   D(9,13,18,17)           1.5618         calculate D2E/DX2 analytically  !
 ! D84   D(9,13,18,34)        -177.836          calculate D2E/DX2 analytically  !
 ! D85   D(15,13,18,17)       -174.7679         calculate D2E/DX2 analytically  !
 ! D86   D(15,13,18,34)          5.8344         calculate D2E/DX2 analytically  !
 ! D87   D(11,14,15,13)          0.8409         calculate D2E/DX2 analytically  !
 ! D88   D(11,14,15,33)        178.6522         calculate D2E/DX2 analytically  !
 ! D89   D(32,14,15,13)       -177.3826         calculate D2E/DX2 analytically  !
 ! D90   D(32,14,15,33)          0.4287         calculate D2E/DX2 analytically  !
 ! D91   D(7,16,17,18)          -4.4883         calculate D2E/DX2 analytically  !
 ! D92   D(7,16,17,20)         173.5731         calculate D2E/DX2 analytically  !
 ! D93   D(19,16,17,18)       -178.932          calculate D2E/DX2 analytically  !
 ! D94   D(19,16,17,20)         -0.8707         calculate D2E/DX2 analytically  !
 ! D95   D(7,16,19,21)        -165.4448         calculate D2E/DX2 analytically  !
 ! D96   D(7,16,19,27)          10.2815         calculate D2E/DX2 analytically  !
 ! D97   D(17,16,19,21)          8.5872         calculate D2E/DX2 analytically  !
 ! D98   D(17,16,19,27)       -175.6865         calculate D2E/DX2 analytically  !
 ! D99   D(16,17,18,13)          3.6054         calculate D2E/DX2 analytically  !
 ! D100  D(16,17,18,34)       -176.9787         calculate D2E/DX2 analytically  !
 ! D101  D(20,17,18,13)       -174.4171         calculate D2E/DX2 analytically  !
 ! D102  D(20,17,18,34)          4.9988         calculate D2E/DX2 analytically  !
 ! D103  D(16,17,20,22)         -5.2691         calculate D2E/DX2 analytically  !
 ! D104  D(16,17,20,44)        177.8162         calculate D2E/DX2 analytically  !
 ! D105  D(18,17,20,22)        172.8599         calculate D2E/DX2 analytically  !
 ! D106  D(18,17,20,44)         -4.0548         calculate D2E/DX2 analytically  !
 ! D107  D(16,19,21,22)        -10.5902         calculate D2E/DX2 analytically  !
 ! D108  D(16,19,21,29)        168.616          calculate D2E/DX2 analytically  !
 ! D109  D(27,19,21,22)        173.3614         calculate D2E/DX2 analytically  !
 ! D110  D(27,19,21,29)         -7.4324         calculate D2E/DX2 analytically  !
 ! D111  D(16,19,27,23)         21.0114         calculate D2E/DX2 analytically  !
 ! D112  D(16,19,27,28)       -163.8059         calculate D2E/DX2 analytically  !
 ! D113  D(21,19,27,23)       -163.3605         calculate D2E/DX2 analytically  !
 ! D114  D(21,19,27,28)         11.8223         calculate D2E/DX2 analytically  !
 ! D115  D(17,20,22,21)          3.3223         calculate D2E/DX2 analytically  !
 ! D116  D(17,20,22,43)       -176.1852         calculate D2E/DX2 analytically  !
 ! D117  D(44,20,22,21)       -179.8182         calculate D2E/DX2 analytically  !
 ! D118  D(44,20,22,43)          0.6743         calculate D2E/DX2 analytically  !
 ! D119  D(19,21,22,20)          5.0816         calculate D2E/DX2 analytically  !
 ! D120  D(19,21,22,43)       -175.3976         calculate D2E/DX2 analytically  !
 ! D121  D(29,21,22,20)       -174.1429         calculate D2E/DX2 analytically  !
 ! D122  D(29,21,22,43)          5.3779         calculate D2E/DX2 analytically  !
 ! D123  D(19,21,29,30)         -1.6149         calculate D2E/DX2 analytically  !
 ! D124  D(19,21,29,42)       -179.2805         calculate D2E/DX2 analytically  !
 ! D125  D(22,21,29,30)        177.6051         calculate D2E/DX2 analytically  !
 ! D126  D(22,21,29,42)         -0.0604         calculate D2E/DX2 analytically  !
 ! D127  D(6,23,26,25)          -0.1842         calculate D2E/DX2 analytically  !
 ! D128  D(6,23,26,39)         176.7331         calculate D2E/DX2 analytically  !
 ! D129  D(27,23,26,25)        165.7013         calculate D2E/DX2 analytically  !
 ! D130  D(27,23,26,39)        -17.3814         calculate D2E/DX2 analytically  !
 ! D131  D(45,23,26,25)        -98.2469         calculate D2E/DX2 analytically  !
 ! D132  D(45,23,26,39)         78.6703         calculate D2E/DX2 analytically  !
 ! D133  D(6,23,27,19)         -42.9747         calculate D2E/DX2 analytically  !
 ! D134  D(6,23,27,28)         141.7471         calculate D2E/DX2 analytically  !
 ! D135  D(26,23,27,19)        152.4759         calculate D2E/DX2 analytically  !
 ! D136  D(26,23,27,28)        -22.8023         calculate D2E/DX2 analytically  !
 ! D137  D(45,23,27,19)         54.9413         calculate D2E/DX2 analytically  !
 ! D138  D(45,23,27,28)       -120.337          calculate D2E/DX2 analytically  !
 ! D139  D(1,24,25,26)           2.1866         calculate D2E/DX2 analytically  !
 ! D140  D(1,24,25,38)        -177.2336         calculate D2E/DX2 analytically  !
 ! D141  D(37,24,25,26)        179.7382         calculate D2E/DX2 analytically  !
 ! D142  D(37,24,25,38)          0.318          calculate D2E/DX2 analytically  !
 ! D143  D(24,25,26,23)         -0.24           calculate D2E/DX2 analytically  !
 ! D144  D(24,25,26,39)       -177.1962         calculate D2E/DX2 analytically  !
 ! D145  D(38,25,26,23)        179.1866         calculate D2E/DX2 analytically  !
 ! D146  D(38,25,26,39)          2.2304         calculate D2E/DX2 analytically  !
 ! D147  D(19,27,28,30)         -7.9895         calculate D2E/DX2 analytically  !
 ! D148  D(19,27,28,40)        172.7643         calculate D2E/DX2 analytically  !
 ! D149  D(23,27,28,30)        167.8964         calculate D2E/DX2 analytically  !
 ! D150  D(23,27,28,40)        -11.3498         calculate D2E/DX2 analytically  !
 ! D151  D(27,28,30,29)         -0.9348         calculate D2E/DX2 analytically  !
 ! D152  D(27,28,30,41)       -179.4126         calculate D2E/DX2 analytically  !
 ! D153  D(40,28,30,29)        178.318          calculate D2E/DX2 analytically  !
 ! D154  D(40,28,30,41)         -0.1599         calculate D2E/DX2 analytically  !
 ! D155  D(21,29,30,28)          5.8978         calculate D2E/DX2 analytically  !
 ! D156  D(21,29,30,41)       -175.6434         calculate D2E/DX2 analytically  !
 ! D157  D(42,29,30,28)       -176.4821         calculate D2E/DX2 analytically  !
 ! D158  D(42,29,30,41)          1.9768         calculate D2E/DX2 analytically  !
 --------------------------------------------------------------------------------
 Trust Radius=3.00D-01 FncErr=1.00D-07 GrdErr=1.00D-06 EigMax=2.50D+02 EigMin=1.00D-04
 Number of steps in this run=    270 maximum allowed number of steps=    270.
 Search for a saddle point of order  1.
 GradGradGradGradGradGradGradGradGradGradGradGradGradGradGradGradGradGrad

                          Input orientation:                          
 ---------------------------------------------------------------------
 Center     Atomic      Atomic             Coordinates (Angstroms)
 Number     Number       Type             X           Y           Z
 ---------------------------------------------------------------------
      1          6           0        0.793370    3.068188   -0.018601
      2          6           0        2.208126    3.014144    0.112172
      3          6           0        2.871683    1.789101    0.297908
      4          6           0        2.020306    0.691067    0.425577
      5          6           0        0.621868    0.685330    0.316730
      6          6           0       -0.041724    1.874104    0.075625
      7          6           0        0.210441   -0.712520    0.161984
      8          6           0        2.493230   -0.625723    0.340090
      9          6           0        1.390543   -1.473315    0.175666
     10          6           0        4.282006    1.439526    0.219176
     11          6           0        3.804640   -0.992680    0.160187
     12          6           0        4.724611    0.130918    0.154330
     13          6           0        1.529779   -2.824164   -0.126558
     14          6           0        3.981518   -2.406221   -0.098600
     15          6           0        2.905156   -3.271208   -0.225365
     16          6           0       -1.002565   -1.340008   -0.072717
     17          6           0       -0.924154   -2.781421   -0.283223
     18          6           0        0.300601   -3.482977   -0.344039
     19          6           0       -2.277113   -0.638062    0.009691
     20          6           0       -2.160076   -3.503441   -0.389845
     21          6           0       -3.441229   -1.463726    0.063397
     22          6           0       -3.344315   -2.879372   -0.191793
     23          6           0       -1.462234    1.902984   -0.229674
     24          6           0        0.150853    4.291248   -0.357798
     25          6           0       -1.191735    4.316511   -0.655194
     26          6           0       -1.983694    3.156971   -0.592386
     27          6           0       -2.443084    0.795052    0.128035
     28          6           0       -3.700316    1.250246    0.540120
     29          6           0       -4.699642   -0.920763    0.381094
     30          6           0       -4.814230    0.417807    0.677842
     31          1           0        5.790203   -0.049442    0.054461
     32          1           0        4.982160   -2.806443   -0.227322
     33          1           0        3.105606   -4.315662   -0.441269
     34          1           0        0.266351   -4.547565   -0.553897
     35          1           0        5.016987    2.236225    0.165481
     36          1           0        2.764589    3.936356   -0.023029
     37          1           0        0.742898    5.198020   -0.417312
     38          1           0       -1.658409    5.247998   -0.955678
     39          1           0       -3.022389    3.234981   -0.883052
     40          1           0       -3.827549    2.301946    0.753780
     41          1           0       -5.762333    0.838456    0.992703
     42          1           0       -5.561258   -1.577913    0.424791
     43          1           0       -4.269306   -3.445711   -0.213445
     44          1           0       -2.125412   -4.570387   -0.582320
     45          1           0       -1.257851    1.273574   -2.016885
 ---------------------------------------------------------------------
                    Distance matrix (angstroms):
                    1          2          3          4          5
     1  C    0.000000
     2  C    1.421815   0.000000
     3  C    2.460818   1.405538   0.000000
     4  C    2.711710   2.351635   1.395285   0.000000
     5  C    2.412441   2.825143   2.506059   1.402679   0.000000
     6  C    1.460170   2.522469   2.923111   2.402917   1.382631
     7  C    3.829644   4.228623   3.654968   2.305461   1.465334
     8  C    4.082054   3.658123   2.444664   1.401749   2.285039
     9  C    4.584714   4.561772   3.584979   2.267952   2.295759
    10  C    3.857416   2.606118   1.455133   2.391251   3.738307
    11  C    5.058692   4.313444   2.937292   2.467647   3.601425
    12  C    4.910409   3.827201   2.490688   2.774997   4.143217
    13  C    5.939172   5.882430   4.823183   3.591980   3.652034
    14  C    6.335601   5.706987   4.357715   3.703283   4.584478
    15  C    6.685083   6.332885   5.087402   4.111728   4.600159
    16  C    4.760305   5.413073   4.993845   3.675774   2.625347
    17  C    6.102281   6.599704   5.969570   4.607647   3.842979
    18  C    6.577727   6.786705   5.900624   4.579556   4.232566
    19  C    4.812999   5.785022   5.699499   4.517450   3.201520
    20  C    7.214359   7.862069   7.335026   5.977826   5.077821
    21  C    6.202967   7.208947   7.105543   5.882404   4.603409
    22  C    7.247338   8.102810   7.789293   6.473665   5.356893
    23  C    2.547548   3.850075   4.367396   3.745154   2.474817
    24  C    1.422589   2.466625   3.754145   4.131566   3.698579
    25  C    2.429857   3.720761   4.879300   4.962773   4.173640
    26  C    2.837111   4.253017   5.122341   4.811335   3.704653
    27  C    3.957687   5.153482   5.409597   4.474505   3.072715
    28  C    4.879580   6.180952   6.598500   5.749028   4.364666
    29  C    6.800343   7.954437   8.042092   6.910693   5.558970
    30  C    6.241372   7.508291   7.816525   6.844647   5.454643
    31  H    5.890101   4.713827   3.457928   3.859819   5.226888
    32  H    7.218089   6.456760   5.084192   4.629410   5.612541
    33  H    7.748956   7.405256   6.153798   5.195828   5.635019
    34  H    7.652711   7.835406   6.904105   5.610614   5.316726
    35  H    4.308711   2.915081   2.195401   3.381606   4.663177
    36  H    2.153936   1.085544   2.173746   3.359629   3.908434
    37  H    2.167418   2.682641   4.082156   4.759712   4.573602
    38  H    3.411877   4.591351   5.835853   6.017178   5.257055
    39  H    3.916007   5.328933   6.182663   5.797653   4.606605
    40  H    4.747272   6.111322   6.734281   6.074542   4.754132
    41  H    6.997977   8.308861   8.713937   7.804667   6.421714
    42  H    7.884424   9.030396   9.081155   7.913810   6.585210
    43  H    8.252244   9.153845   8.868961   7.555164   6.424186
    44  H    8.196639   8.762818   8.135653   6.773901   5.998200
    45  H    3.379539   4.424417   4.762046   4.129316   3.053708
                    6          7          8          9         10
     6  C    0.000000
     7  C    2.600321   0.000000
     8  C    3.570024   2.291371   0.000000
     9  C    3.642336   1.404150   1.400488   0.000000
    10  C    4.347885   4.605672   2.734884   4.104521   0.000000
    11  C    4.797928   3.605102   1.373615   2.461527   2.479311
    12  C    5.075711   4.592295   2.363488   3.700004   1.382953
    13  C    4.958248   2.506581   2.445228   1.391229   5.086584
    14  C    5.876905   4.142167   2.361699   2.767433   3.870535
    15  C    5.937081   3.736096   2.736423   2.384806   4.927915
    16  C    3.357936   1.385716   3.591823   2.409654   5.978102
    17  C    4.751986   2.401222   4.088284   2.698063   6.721079
    18  C    5.384387   2.817733   3.666000   2.344527   6.356086
    19  C    3.363375   2.493323   4.781787   3.765222   6.883480
    20  C    5.798454   3.703121   5.519721   4.128936   8.142742
    21  C    4.764231   3.729440   5.999718   4.833086   8.252363
    22  C    5.794321   4.178121   6.280029   4.952868   8.773970
    23  C    1.453234   3.129233   4.729132   4.438697   5.780359
    24  C    2.463235   5.031045   5.490936   5.920439   5.052885
    25  C    2.796779   5.284414   6.244616   6.393792   6.245271
    26  C    2.421412   4.511792   5.934740   5.780565   6.547308
    27  C    2.633179   3.052068   5.141086   4.454711   6.756515
    28  C    3.740354   4.391976   6.474510   5.785106   7.991013
    29  C    5.440661   4.919379   7.199037   6.118649   9.288013
    30  C    5.025961   5.176009   7.389317   6.505977   9.164922
    31  H    6.140997   5.620051   3.359124   4.625918   2.125750
    32  H    6.873042   5.225455   3.357420   3.852187   4.326411
    33  H    6.963194   4.661387   3.821149   3.376535   5.911201
    34  H    6.459802   3.901690   4.597722   3.353667   7.250406
    35  H    5.072451   5.638971   3.819762   5.187667   1.085269
    36  H    3.483964   5.307537   4.584545   5.584982   2.931787
    37  H    3.450657   5.962682   6.128075   6.728876   5.201604
    38  H    3.880775   6.345829   7.308606   7.466733   7.153550
    39  H    3.414002   5.208268   6.842745   6.539335   7.602154
    40  H    3.869808   5.073716   6.978154   6.466475   8.172787
    41  H    5.885488   6.226528   8.409759   7.561446  10.091996
    42  H    6.519478   5.842130   8.111018   6.957050  10.297430
    43  H    6.801209   5.261123   7.347831   6.006300   9.857872
    44  H    6.804859   4.570923   6.143539   4.746403   8.821364
    45  H    2.493632   3.293618   4.820090   4.400758   5.976414
                   11         12         13         14         15
    11  C    0.000000
    12  C    1.452189   0.000000
    13  C    2.934544   4.361004   0.000000
    14  C    1.447879   2.655793   2.487264   0.000000
    15  C    2.479801   3.876731   1.449577   1.386660   0.000000
    16  C    4.825360   5.917408   2.935708   5.096917   4.361550
    17  C    5.075204   6.370378   2.459300   4.923462   3.860940
    18  C    4.328292   5.734150   1.411457   3.843019   2.615843
    19  C    6.093941   7.045310   4.392042   6.504504   5.817613
    20  C    6.494944   7.804076   3.761086   6.245630   5.073220
    21  C    7.261809   8.320583   5.157305   7.484097   6.605072
    22  C    7.402098   8.619119   4.874843   7.341688   6.261833
    23  C    6.023024   6.447071   5.595418   6.944124   6.770995
    24  C    6.445026   6.204022   7.251482   7.719927   8.049501
    25  C    7.335947   7.292302   7.659983   8.501028   8.633814
    26  C    7.161758   7.397022   6.952371   8.171700   8.084370
    27  C    6.498544   7.198445   5.380259   7.181575   6.727781
    28  C    7.842157   8.507710   6.663270   8.531605   8.041254
    29  C    8.507455   9.485463   6.533478   8.820387   7.982815
    30  C    8.748849   9.557503   7.169650   9.270554   8.603112
    31  H    2.200758   1.085352   5.087540   2.974757   4.333771
    32  H    2.196919   2.973227   3.453897   1.085372   2.128369
    33  H    3.448566   4.769485   2.192451   2.128523   1.085209
    34  H    5.066223   6.501221   2.179215   4.312205   2.949629
    35  H    3.449006   2.125541   6.152515   4.763847   5.911380
    36  H    5.040900   4.284215   6.873144   6.458708   7.211774
    37  H    6.930551   6.469647   8.065926   8.271319   8.742999
    38  H    8.368759   8.255881   8.718474   9.546226   9.692077
    39  H    8.097518   8.409957   7.616282   9.027361   8.826032
    40  H    8.334100   8.843763   7.466791   9.158325   8.794776
    41  H    9.776150  10.544168   8.236651  10.327706   9.669457
    42  H    9.387894  10.430357   7.220799   9.592946   8.658529
    43  H    8.446630   9.685973   5.832946   8.316840   7.176594
    44  H    6.965402   8.340728   4.076449   6.497091   5.207869
    45  H    5.958554   6.466041   5.304307   6.683689   6.418350
                   16         17         18         19         20
    16  C    0.000000
    17  C    1.458812   0.000000
    18  C    2.522731   1.412765   0.000000
    19  C    1.457392   2.551526   3.855292   0.000000
    20  C    2.474034   1.435334   2.461188   2.895466   0.000000
    21  C    2.445591   2.862190   4.271378   1.428206   2.450963
    22  C    2.804927   2.423867   3.697693   2.490580   1.353185
    23  C    3.279166   4.715511   5.668266   2.679223   5.453629
    24  C    5.755231   7.154289   7.775679   5.507101   8.130104
    25  C    5.689576   7.112707   7.947068   5.115458   7.884145
    26  C    4.632007   6.040092   7.026278   3.853682   6.665825
    27  C    2.583385   3.907357   5.104135   1.447538   4.338817
    28  C    3.789834   4.963800   6.260389   2.423338   5.082786
    29  C    3.748345   4.261182   5.665085   2.467085   3.703238
    30  C    4.264041   5.127514   6.513206   2.828117   4.853934
    31  H    6.915449   7.256744   6.487195   8.088885   8.679542
    32  H    6.163706   5.906632   4.731629   7.579914   7.178005
    33  H    5.086002   4.314839   2.927605   6.534659   5.328204
    34  H    3.482830   2.147052   1.085616   4.697984   2.646631
    35  H    7.005797   7.789433   7.430557   7.841536   9.206649
    36  H    6.483358   7.668315   7.824371   6.807726   8.929583
    37  H    6.775780   8.152823   8.692566   6.585032   9.172973
    38  H    6.679190   8.090914   8.968932   5.996702   8.784049
    39  H    5.066247   6.399959   7.514237   4.043870   6.811253
    40  H    4.682677   5.945225   7.191117   3.406049   6.147427
    41  H    5.341930   6.175716   7.564445   3.910649   5.808594
    42  H    4.591927   4.842773   6.211422   3.441110   3.992409
    43  H    3.889137   3.411186   4.571924   3.449857   2.117381
    44  H    3.457720   2.175518   2.669228   3.979531   1.084722
    45  H    3.267380   4.422660   5.277496   2.966523   5.126514
                   21         22         23         24         25
    21  C    0.000000
    22  C    1.441724   0.000000
    23  C    3.916254   5.139513   0.000000
    24  C    6.797072   7.978819   2.884835   0.000000
    25  C    6.244016   7.525229   2.465634   1.375364   0.000000
    26  C    4.889305   6.200742   1.405690   2.428561   1.405588
    27  C    2.470334   3.796827   1.522345   4.380403   3.818376
    28  C    2.767677   4.209059   2.455129   4.988532   4.138084
    29  C    1.406891   2.449747   4.339055   7.158095   6.388141
    30  C    2.408909   3.713261   3.776932   6.381861   5.486287
    31  H    9.339144   9.566011   7.516019   7.128381   8.265145
    32  H    8.534687   8.326870   7.981787   8.586953   9.435917
    33  H    7.158860   6.612613   7.718905   9.100353   9.645067
    34  H    4.861817   3.993857   6.686008   8.841742   8.983770
    35  H    9.232631   9.808585   6.499808   5.308126   6.599191
    36  H    8.226818   9.154307   4.695033   2.658878   4.024506
    37  H    7.881425   9.055409   3.969267   1.084571   2.139264
    38  H    7.018846   8.335463   3.428511   2.132196   1.084317
    39  H    4.811345   6.161720   2.152952   3.385418   2.138439
    40  H    3.847877   5.289015   2.592502   4.584824   3.604330
    41  H    3.398702   4.590434   4.595463   6.979355   5.975182
    42  H    2.153640   2.643635   5.417284   8.227254   7.416423
    43  H    2.165783   1.084812   6.040567   8.911744   8.361739
    44  H    3.435064   2.120794   6.516801   9.152069   8.936108
    45  H    4.072778   4.993121   1.905794   3.720668   3.334372
                   26         27         28         29         30
    26  C    0.000000
    27  C    2.511714   0.000000
    28  C    2.804454   1.399160   0.000000
    29  C    4.995193   2.846070   2.395250   0.000000
    30  C    4.138651   2.463115   1.397400   1.375849   0.000000
    31  H    8.434036   8.276811   9.591403  10.531037  10.633011
    32  H    9.177075   8.260224   9.614109   9.882472  10.352988
    33  H    9.042348   7.565148   8.846640   8.551229   9.294189
    34  H    8.026460   6.029065   7.109566   6.220047   7.210021
    35  H    7.101526   7.598095   8.780882  10.218901  10.011093
    36  H    4.845390   6.083623   7.023341   8.914576   8.385100
    37  H    3.410401   5.462052   6.020278   8.227892   7.411577
    38  H    2.147134   4.649610   4.731682   7.006402   5.996527
    39  H    1.081416   2.703913   2.534596   4.656334   3.685587
    40  H    2.437833   2.139867   1.080700   3.359359   2.128212
    41  H    4.708092   3.430299   2.150887   2.144348   1.083966
    42  H    6.021025   3.929636   3.387461   1.084499   2.145923
    43  H    6.997359   4.629878   4.789950   2.629454   4.002263
    44  H    7.728664   5.421573   6.133511   4.568871   5.805155
    45  H    2.470472   2.496887   3.536164   4.734062   4.543316
                   31         32         33         34         35
    31  H    0.000000
    32  H    2.886761   0.000000
    33  H    5.064923   2.417637   0.000000
    34  H    7.149556   5.037560   2.850935   0.000000
    35  H    2.415463   5.058064   6.851916   8.312993   0.000000
    36  H    5.004691   7.101035   8.269644   8.860019   2.828300
    37  H    7.296144   9.059739   9.802709   9.758185   5.232563
    38  H    9.195927  10.464305  10.696918   9.990955   7.408690
    39  H    9.451357  10.049955   9.734460   8.455305   8.168752
    40  H    9.925685  10.230795   9.658650   8.086151   8.864324
    41  H   11.624532  11.411305  10.356715   8.230809  10.901000
    42  H   11.459888  10.634764   9.130162   6.613448  11.247851
    43  H   10.620741   9.273537   7.429539   4.679976  10.893265
    44  H    9.137910   7.331787   5.239115   2.392041   9.894596
    45  H    7.464309   7.667256   7.263737   6.192672   6.712899
                   36         37         38         39         40
    36  H    0.000000
    37  H    2.415469   0.000000
    38  H    4.706713   2.461425   0.000000
    39  H    5.892426   4.271747   2.432684   0.000000
    40  H    6.836008   5.536035   4.038148   2.048916   0.000000
    41  H    9.128915   7.956882   6.331070   4.095007   2.437678
    42  H    9.996371   9.293266   7.983169   5.596450   4.262310
    43  H   10.198375   9.993890   9.107594   6.828969   5.845189
    44  H    9.828000  10.182151   9.836573   7.862492   7.204956
    45  H    5.219760   4.686460   4.133117   2.871635   3.916310
                   41         42         43         44         45
    41  H    0.000000
    42  H    2.490340   0.000000
    43  H    4.694466   2.359058   0.000000
    44  H    6.705481   4.666284   2.448928   0.000000
    45  H    5.434823   5.710698   5.881574   6.079681   0.000000
 Stoichiometry    C30H15(2)
 Framework group  C1[X(C30H15)]
 Deg. of freedom   129
 Full point group                 C1      NOp   1
 Largest Abelian subgroup         C1      NOp   1
 Largest concise Abelian subgroup C1      NOp   1
                         Standard orientation:                         
 ---------------------------------------------------------------------
 Center     Atomic      Atomic             Coordinates (Angstroms)
 Number     Number       Type             X           Y           Z
 ---------------------------------------------------------------------
      1          6           0       -0.793370    3.068188    0.018601
      2          6           0       -2.208126    3.014144   -0.112172
      3          6           0       -2.871683    1.789101   -0.297908
      4          6           0       -2.020306    0.691067   -0.425577
      5          6           0       -0.621868    0.685330   -0.316730
      6          6           0        0.041724    1.874104   -0.075625
      7          6           0       -0.210441   -0.712520   -0.161984
      8          6           0       -2.493230   -0.625723   -0.340090
      9          6           0       -1.390543   -1.473315   -0.175666
     10          6           0       -4.282006    1.439526   -0.219176
     11          6           0       -3.804640   -0.992680   -0.160187
     12          6           0       -4.724611    0.130918   -0.154330
     13          6           0       -1.529779   -2.824164    0.126558
     14          6           0       -3.981518   -2.406221    0.098600
     15          6           0       -2.905156   -3.271208    0.225365
     16          6           0        1.002565   -1.340008    0.072717
     17          6           0        0.924154   -2.781421    0.283223
     18          6           0       -0.300601   -3.482977    0.344039
     19          6           0        2.277113   -0.638062   -0.009691
     20          6           0        2.160076   -3.503441    0.389845
     21          6           0        3.441229   -1.463726   -0.063397
     22          6           0        3.344315   -2.879372    0.191793
     23          6           0        1.462234    1.902984    0.229674
     24          6           0       -0.150853    4.291248    0.357798
     25          6           0        1.191735    4.316511    0.655194
     26          6           0        1.983694    3.156971    0.592386
     27          6           0        2.443084    0.795052   -0.128035
     28          6           0        3.700316    1.250246   -0.540120
     29          6           0        4.699642   -0.920763   -0.381094
     30          6           0        4.814230    0.417807   -0.677842
     31          1           0       -5.790203   -0.049442   -0.054461
     32          1           0       -4.982160   -2.806443    0.227322
     33          1           0       -3.105606   -4.315662    0.441269
     34          1           0       -0.266351   -4.547565    0.553897
     35          1           0       -5.016987    2.236225   -0.165481
     36          1           0       -2.764589    3.936356    0.023029
     37          1           0       -0.742898    5.198020    0.417312
     38          1           0        1.658409    5.247998    0.955678
     39          1           0        3.022389    3.234981    0.883052
     40          1           0        3.827549    2.301946   -0.753780
     41          1           0        5.762333    0.838456   -0.992703
     42          1           0        5.561258   -1.577913   -0.424791
     43          1           0        4.269306   -3.445711    0.213445
     44          1           0        2.125412   -4.570387    0.582320
     45          1           0        1.257851    1.273574    2.016885
 ---------------------------------------------------------------------
 Rotational constants (GHZ):           0.2422188           0.1774380           0.1043052
 Standard basis: 6-311+G(d,p) (5D, 7F)
 There are   780 symmetry adapted cartesian basis functions of A   symmetry.
 There are   750 symmetry adapted basis functions of A   symmetry.
   750 basis functions,  1200 primitive gaussians,   780 cartesian basis functions
    98 alpha electrons       97 beta electrons
       nuclear repulsion energy      2610.6584390332 Hartrees.
 NAtoms=   45 NActive=   45 NUniq=   45 SFac= 1.00D+00 NAtFMM=   60 NAOKFM=F Big=F
 Integral buffers will be    131072 words long.
 Raffenetti 2 integral format.
 Two-electron integral symmetry is turned on.
 One-electron integrals computed using PRISM.
 NBasis=   750 RedAO= T EigKep=  1.01D-06  NBF=   750
 NBsUse=   728 1.00D-06 EigRej=  8.60D-07 NBFU=   728
 ExpMin= 4.38D-02 ExpMax= 4.56D+03 ExpMxC= 6.82D+02 IAcc=2 IRadAn=         4 AccDes= 0.00D+00
 Harris functional with IExCor=  402 and IRadAn=       4 diagonalized for initial guess.
 HarFok:  IExCor=  402 AccDes= 0.00D+00 IRadAn=         4 IDoV= 1 UseB2=F ITyADJ=14
 ICtDFT=  3500011 ScaDFX=  1.000000  1.000000  1.000000  1.000000
 FoFCou: FMM=F IPFlag=           0 FMFlag=      100000 FMFlg1=           0
         NFxFlg=           0 DoJE=T BraDBF=F KetDBF=T FulRan=T
         wScrn=  0.000000 ICntrl=       500 IOpCl=  0 I1Cent=   200000004 NGrid=           0
         NMat0=    1 NMatS0=      1 NMatT0=    0 NMatD0=    1 NMtDS0=    0 NMtDT0=    0
 Petite list used in FoFCou.
 Initial guess <Sx>= 0.0000 <Sy>= 0.0000 <Sz>= 0.5000 <S**2>= 0.7500 S= 0.5000
 Requested convergence on RMS density matrix=1.00D-08 within 128 cycles.
 Requested convergence on MAX density matrix=1.00D-06.
 Requested convergence on             energy=1.00D-06.
 No special actions if energy rises.
 Restarting incremental Fock formation.
 SCF Done:  E(UB3LYP) =  -1152.42194495     A.U. after   27 cycles
            NFock= 27  Conv=0.95D-08     -V/T= 2.0045
 <Sx>= 0.0000 <Sy>= 0.0000 <Sz>= 0.5000 <S**2>= 0.7911 S= 0.5203
 <L.S>=  0.00000000000    
 Annihilation of the first spin contaminant:
 S**2 before annihilation     0.7911,   after     0.7507
 DoSCS=F DFT=T ScalE2(SS,OS)=  1.000000  1.000000
 Range of M.O.s used for correlation:     1   728
 NBasis=   750 NAE=    98 NBE=    97 NFC=     0 NFV=     0
 NROrb=    728 NOA=    98 NOB=    97 NVA=   630 NVB=   631

 **** Warning!!: The largest alpha MO coefficient is  0.15412754D+03


 **** Warning!!: The smallest alpha delta epsilon is  0.95408049D-01


 **** Warning!!: The largest beta MO coefficient is  0.15792871D+03

 Symmetrizing basis deriv contribution to polar:
 IMax=3 JMax=2 DiffMx= 0.00D+00
 G2DrvN: will do    46 centers at a time, making    1 passes.
 Calling FoFCou, ICntrl=  3107 FMM=F I1Cent=   0 AccDes= 0.00D+00.
 End of G2Drv F.D. properties file   721 does not exist.
 End of G2Drv F.D. properties file   722 does not exist.
 End of G2Drv F.D. properties file   788 does not exist.
          IDoAtm=111111111111111111111111111111111111111111111
          Differentiating once with respect to nuclear coordinates.
 CalDSu exits because no D1Ps are significant.
          There are   138 degrees of freedom in the 1st order CPHF.  IDoFFX=6 NUNeed=     0.
    132 vectors produced by pass  0 Test12= 1.23D-13 1.00D-09 XBig12= 6.22D-01 1.39D-01.
 AX will form   132 AO Fock derivatives at one time.
    132 vectors produced by pass  1 Test12= 1.23D-13 1.00D-09 XBig12= 1.11D-01 5.81D-02.
    132 vectors produced by pass  2 Test12= 1.23D-13 1.00D-09 XBig12= 2.19D-03 7.67D-03.
    132 vectors produced by pass  3 Test12= 1.23D-13 1.00D-09 XBig12= 2.70D-05 5.73D-04.
    132 vectors produced by pass  4 Test12= 1.23D-13 1.00D-09 XBig12= 2.46D-07 3.93D-05.
    132 vectors produced by pass  5 Test12= 1.23D-13 1.00D-09 XBig12= 1.41D-09 2.84D-06.
    117 vectors produced by pass  6 Test12= 1.23D-13 1.00D-09 XBig12= 7.64D-12 1.63D-07.
     58 vectors produced by pass  7 Test12= 1.23D-13 1.00D-09 XBig12= 4.95D-14 9.97D-09.
     43 vectors produced by pass  8 Test12= 1.23D-13 1.00D-09 XBig12= 7.66D-15 6.43D-09.
     43 vectors produced by pass  9 Test12= 1.23D-13 1.00D-09 XBig12= 1.67D-13 1.74D-08.
     42 vectors produced by pass 10 Test12= 1.23D-13 1.00D-09 XBig12= 4.06D-13 3.32D-08.
     38 vectors produced by pass 11 Test12= 1.23D-13 1.00D-09 XBig12= 2.97D-13 3.12D-08.
     25 vectors produced by pass 12 Test12= 1.23D-13 1.00D-09 XBig12= 2.27D-13 2.28D-08.
     23 vectors produced by pass 13 Test12= 1.23D-13 1.00D-09 XBig12= 2.81D-13 2.18D-08.
     20 vectors produced by pass 14 Test12= 1.23D-13 1.00D-09 XBig12= 1.72D-13 2.10D-08.
     20 vectors produced by pass 15 Test12= 1.23D-13 1.00D-09 XBig12= 3.05D-13 2.58D-08.
     19 vectors produced by pass 16 Test12= 1.23D-13 1.00D-09 XBig12= 3.08D-13 2.81D-08.
     13 vectors produced by pass 17 Test12= 1.23D-13 1.00D-09 XBig12= 4.95D-14 1.18D-08.
     13 vectors produced by pass 18 Test12= 1.23D-13 1.00D-09 XBig12= 2.88D-13 2.85D-08.
     11 vectors produced by pass 19 Test12= 1.23D-13 1.00D-09 XBig12= 6.83D-14 1.30D-08.
     11 vectors produced by pass 20 Test12= 1.23D-13 1.00D-09 XBig12= 3.64D-13 2.41D-08.
     11 vectors produced by pass 21 Test12= 1.23D-13 1.00D-09 XBig12= 2.36D-13 2.06D-08.
     11 vectors produced by pass 22 Test12= 1.23D-13 1.00D-09 XBig12= 1.10D-13 1.52D-08.
     11 vectors produced by pass 23 Test12= 1.23D-13 1.00D-09 XBig12= 1.26D-13 1.33D-08.
     11 vectors produced by pass 24 Test12= 1.23D-13 1.00D-09 XBig12= 3.15D-13 2.45D-08.
     11 vectors produced by pass 25 Test12= 1.23D-13 1.00D-09 XBig12= 2.07D-13 2.24D-08.
     11 vectors produced by pass 26 Test12= 1.23D-13 1.00D-09 XBig12= 2.47D-13 1.89D-08.
     11 vectors produced by pass 27 Test12= 1.23D-13 1.00D-09 XBig12= 3.21D-13 2.59D-08.
     11 vectors produced by pass 28 Test12= 1.23D-13 1.00D-09 XBig12= 2.50D-13 1.99D-08.
      8 vectors produced by pass 29 Test12= 1.23D-13 1.00D-09 XBig12= 5.57D-14 1.32D-08.
      8 vectors produced by pass 30 Test12= 1.23D-13 1.00D-09 XBig12= 1.60D-13 1.79D-08.
      8 vectors produced by pass 31 Test12= 1.23D-13 1.00D-09 XBig12= 2.26D-13 1.79D-08.
      8 vectors produced by pass 32 Test12= 1.23D-13 1.00D-09 XBig12= 1.38D-13 1.71D-08.
      8 vectors produced by pass 33 Test12= 1.23D-13 1.00D-09 XBig12= 3.75D-13 2.98D-08.
      8 vectors produced by pass 34 Test12= 1.23D-13 1.00D-09 XBig12= 1.73D-13 1.94D-08.
      8 vectors produced by pass 35 Test12= 1.23D-13 1.00D-09 XBig12= 2.29D-13 1.85D-08.
      8 vectors produced by pass 36 Test12= 1.23D-13 1.00D-09 XBig12= 1.01D-13 1.34D-08.
      8 vectors produced by pass 37 Test12= 1.23D-13 1.00D-09 XBig12= 2.90D-13 1.98D-08.
      8 vectors produced by pass 38 Test12= 1.23D-13 1.00D-09 XBig12= 1.35D-13 1.61D-08.
      6 vectors produced by pass 39 Test12= 1.23D-13 1.00D-09 XBig12= 3.53D-14 8.09D-09.
      6 vectors produced by pass 40 Test12= 1.23D-13 1.00D-09 XBig12= 1.30D-13 1.38D-08.
      6 vectors produced by pass 41 Test12= 1.23D-13 1.00D-09 XBig12= 1.37D-13 1.44D-08.
      6 vectors produced by pass 42 Test12= 1.23D-13 1.00D-09 XBig12= 2.10D-13 1.73D-08.
      6 vectors produced by pass 43 Test12= 1.23D-13 1.00D-09 XBig12= 1.51D-13 1.70D-08.
      6 vectors produced by pass 44 Test12= 1.23D-13 1.00D-09 XBig12= 1.79D-13 1.69D-08.
      6 vectors produced by pass 45 Test12= 1.23D-13 1.00D-09 XBig12= 1.78D-13 1.80D-08.
      6 vectors produced by pass 46 Test12= 1.23D-13 1.00D-09 XBig12= 2.27D-13 2.26D-08.
      6 vectors produced by pass 47 Test12= 1.23D-13 1.00D-09 XBig12= 1.81D-13 1.61D-08.
      6 vectors produced by pass 48 Test12= 1.23D-13 1.00D-09 XBig12= 1.35D-13 1.43D-08.
      6 vectors produced by pass 49 Test12= 1.23D-13 1.00D-09 XBig12= 1.31D-13 1.30D-08.
      6 vectors produced by pass 50 Test12= 1.23D-13 1.00D-09 XBig12= 1.64D-13 1.55D-08.
      6 vectors produced by pass 51 Test12= 1.23D-13 1.00D-09 XBig12= 2.04D-13 1.98D-08.
      6 vectors produced by pass 52 Test12= 1.23D-13 1.00D-09 XBig12= 8.50D-14 1.08D-08.
      6 vectors produced by pass 53 Test12= 1.23D-13 1.00D-09 XBig12= 1.59D-13 1.41D-08.
      6 vectors produced by pass 54 Test12= 1.23D-13 1.00D-09 XBig12= 1.23D-13 1.61D-08.
      6 vectors produced by pass 55 Test12= 1.23D-13 1.00D-09 XBig12= 1.36D-13 1.63D-08.
      6 vectors produced by pass 56 Test12= 1.23D-13 1.00D-09 XBig12= 3.97D-13 2.30D-08.
      6 vectors produced by pass 57 Test12= 1.23D-13 1.00D-09 XBig12= 2.54D-13 2.05D-08.
      6 vectors produced by pass 58 Test12= 1.23D-13 1.00D-09 XBig12= 1.47D-13 1.39D-08.
      6 vectors produced by pass 59 Test12= 1.23D-13 1.00D-09 XBig12= 1.96D-13 1.61D-08.
      6 vectors produced by pass 60 Test12= 1.23D-13 1.00D-09 XBig12= 2.63D-13 1.87D-08.
      6 vectors produced by pass 61 Test12= 1.23D-13 1.00D-09 XBig12= 1.99D-13 1.67D-08.
      6 vectors produced by pass 62 Test12= 1.23D-13 1.00D-09 XBig12= 8.20D-14 1.18D-08.
      6 vectors produced by pass 63 Test12= 1.23D-13 1.00D-09 XBig12= 1.69D-13 1.48D-08.
      6 vectors produced by pass 64 Test12= 1.23D-13 1.00D-09 XBig12= 1.51D-13 1.28D-08.
      6 vectors produced by pass 65 Test12= 1.23D-13 1.00D-09 XBig12= 5.41D-14 8.45D-09.
      6 vectors produced by pass 66 Test12= 1.23D-13 1.00D-09 XBig12= 1.16D-13 1.30D-08.
      6 vectors produced by pass 67 Test12= 1.23D-13 1.00D-09 XBig12= 3.06D-13 2.02D-08.
      6 vectors produced by pass 68 Test12= 1.23D-13 1.00D-09 XBig12= 8.11D-14 1.36D-08.
      6 vectors produced by pass 69 Test12= 1.23D-13 1.00D-09 XBig12= 1.88D-13 1.61D-08.
      5 vectors produced by pass 70 Test12= 1.23D-13 1.00D-09 XBig12= 4.96D-14 1.12D-08.
      5 vectors produced by pass 71 Test12= 1.23D-13 1.00D-09 XBig12= 1.22D-13 1.48D-08.
      5 vectors produced by pass 72 Test12= 1.23D-13 1.00D-09 XBig12= 1.04D-13 1.46D-08.
      5 vectors produced by pass 73 Test12= 1.23D-13 1.00D-09 XBig12= 8.19D-14 1.02D-08.
      5 vectors produced by pass 74 Test12= 1.23D-13 1.00D-09 XBig12= 7.60D-14 1.17D-08.
      5 vectors produced by pass 75 Test12= 1.23D-13 1.00D-09 XBig12= 1.23D-13 1.38D-08.
      5 vectors produced by pass 76 Test12= 1.23D-13 1.00D-09 XBig12= 2.42D-13 1.96D-08.
      5 vectors produced by pass 77 Test12= 1.23D-13 1.00D-09 XBig12= 1.00D-13 1.51D-08.
      5 vectors produced by pass 78 Test12= 1.23D-13 1.00D-09 XBig12= 6.60D-14 1.00D-08.
      5 vectors produced by pass 79 Test12= 1.23D-13 1.00D-09 XBig12= 1.60D-13 1.41D-08.
      5 vectors produced by pass 80 Test12= 1.23D-13 1.00D-09 XBig12= 1.75D-13 1.51D-08.
      5 vectors produced by pass 81 Test12= 1.23D-13 1.00D-09 XBig12= 2.17D-13 2.08D-08.
      5 vectors produced by pass 82 Test12= 1.23D-13 1.00D-09 XBig12= 6.58D-14 1.10D-08.
      5 vectors produced by pass 83 Test12= 1.23D-13 1.00D-09 XBig12= 1.80D-13 1.51D-08.
      5 vectors produced by pass 84 Test12= 1.23D-13 1.00D-09 XBig12= 9.24D-14 1.15D-08.
      5 vectors produced by pass 85 Test12= 1.23D-13 1.00D-09 XBig12= 7.14D-14 1.09D-08.
      5 vectors produced by pass 86 Test12= 1.23D-13 1.00D-09 XBig12= 1.64D-13 1.49D-08.
      5 vectors produced by pass 87 Test12= 1.23D-13 1.00D-09 XBig12= 2.03D-13 1.87D-08.
      5 vectors produced by pass 88 Test12= 1.23D-13 1.00D-09 XBig12= 1.16D-13 1.57D-08.
      5 vectors produced by pass 89 Test12= 1.23D-13 1.00D-09 XBig12= 8.87D-14 1.45D-08.
      5 vectors produced by pass 90 Test12= 1.23D-13 1.00D-09 XBig12= 2.15D-13 1.95D-08.
      5 vectors produced by pass 91 Test12= 1.23D-13 1.00D-09 XBig12= 1.69D-13 1.44D-08.
      5 vectors produced by pass 92 Test12= 1.23D-13 1.00D-09 XBig12= 1.39D-13 1.49D-08.
      5 vectors produced by pass 93 Test12= 1.23D-13 1.00D-09 XBig12= 9.50D-14 1.34D-08.
      5 vectors produced by pass 94 Test12= 1.23D-13 1.00D-09 XBig12= 1.88D-13 1.86D-08.
      5 vectors produced by pass 95 Test12= 1.23D-13 1.00D-09 XBig12= 1.19D-13 1.27D-08.
      5 vectors produced by pass 96 Test12= 1.23D-13 1.00D-09 XBig12= 1.22D-13 1.41D-08.
      5 vectors produced by pass 97 Test12= 1.23D-13 1.00D-09 XBig12= 1.85D-13 1.92D-08.
      5 vectors produced by pass 98 Test12= 1.23D-13 1.00D-09 XBig12= 8.98D-14 1.19D-08.
      5 vectors produced by pass 99 Test12= 1.23D-13 1.00D-09 XBig12= 2.38D-13 1.78D-08.
      5 vectors produced by pass100 Test12= 1.23D-13 1.00D-09 XBig12= 1.07D-13 1.18D-08.
      4 vectors produced by pass101 Test12= 1.23D-13 1.00D-09 XBig12= 8.00D-14 9.05D-09.
      4 vectors produced by pass102 Test12= 1.23D-13 1.00D-09 XBig12= 7.97D-14 1.06D-08.
      4 vectors produced by pass103 Test12= 1.23D-13 1.00D-09 XBig12= 1.33D-13 1.62D-08.
      4 vectors produced by pass104 Test12= 1.23D-13 1.00D-09 XBig12= 1.15D-13 1.43D-08.
      4 vectors produced by pass105 Test12= 1.23D-13 1.00D-09 XBig12= 1.02D-13 1.27D-08.
      4 vectors produced by pass106 Test12= 1.23D-13 1.00D-09 XBig12= 1.07D-13 1.11D-08.
      4 vectors produced by pass107 Test12= 1.23D-13 1.00D-09 XBig12= 1.89D-13 1.76D-08.
      4 vectors produced by pass108 Test12= 1.23D-13 1.00D-09 XBig12= 6.02D-14 8.58D-09.
      4 vectors produced by pass109 Test12= 1.23D-13 1.00D-09 XBig12= 1.43D-13 1.36D-08.
      4 vectors produced by pass110 Test12= 1.23D-13 1.00D-09 XBig12= 1.60D-13 1.34D-08.
      4 vectors produced by pass111 Test12= 1.23D-13 1.00D-09 XBig12= 2.05D-13 2.03D-08.
      4 vectors produced by pass112 Test12= 1.23D-13 1.00D-09 XBig12= 1.65D-13 1.38D-08.
      4 vectors produced by pass113 Test12= 1.23D-13 1.00D-09 XBig12= 1.09D-13 1.22D-08.
      4 vectors produced by pass114 Test12= 1.23D-13 1.00D-09 XBig12= 1.01D-13 1.24D-08.
      4 vectors produced by pass115 Test12= 1.23D-13 1.00D-09 XBig12= 1.79D-13 1.84D-08.
      3 vectors produced by pass116 Test12= 1.23D-13 1.00D-09 XBig12= 4.15D-14 6.91D-09.
      3 vectors produced by pass117 Test12= 1.23D-13 1.00D-09 XBig12= 1.88D-13 1.53D-08.
      3 vectors produced by pass118 Test12= 1.23D-13 1.00D-09 XBig12= 7.85D-14 1.01D-08.
      3 vectors produced by pass119 Test12= 1.23D-13 1.00D-09 XBig12= 1.24D-13 1.41D-08.
      3 vectors produced by pass120 Test12= 1.23D-13 1.00D-09 XBig12= 1.87D-13 1.62D-08.
      3 vectors produced by pass121 Test12= 1.23D-13 1.00D-09 XBig12= 1.29D-13 1.24D-08.
      3 vectors produced by pass122 Test12= 1.23D-13 1.00D-09 XBig12= 1.18D-13 1.23D-08.
      3 vectors produced by pass123 Test12= 1.23D-13 1.00D-09 XBig12= 1.48D-13 1.36D-08.
      3 vectors produced by pass124 Test12= 1.23D-13 1.00D-09 XBig12= 2.01D-13 1.49D-08.
      3 vectors produced by pass125 Test12= 1.23D-13 1.00D-09 XBig12= 4.40D-14 8.70D-09.
      3 vectors produced by pass126 Test12= 1.23D-13 1.00D-09 XBig12= 1.96D-13 1.83D-08.
      3 vectors produced by pass127 Test12= 1.23D-13 1.00D-09 XBig12= 1.22D-13 1.54D-08.
      3 vectors produced by pass128 Test12= 1.23D-13 1.00D-09 XBig12= 1.09D-13 1.20D-08.
      3 vectors produced by pass129 Test12= 1.23D-13 1.00D-09 XBig12= 5.54D-14 9.18D-09.
      3 vectors produced by pass130 Test12= 1.23D-13 1.00D-09 XBig12= 1.14D-13 1.16D-08.
      3 vectors produced by pass131 Test12= 1.23D-13 1.00D-09 XBig12= 1.93D-13 1.55D-08.
      3 vectors produced by pass132 Test12= 1.23D-13 1.00D-09 XBig12= 8.85D-14 1.06D-08.
      3 vectors produced by pass133 Test12= 1.23D-13 1.00D-09 XBig12= 1.01D-13 1.15D-08.
      3 vectors produced by pass134 Test12= 1.23D-13 1.00D-09 XBig12= 1.38D-13 1.49D-08.
      3 vectors produced by pass135 Test12= 1.23D-13 1.00D-09 XBig12= 1.92D-13 1.94D-08.
      3 vectors produced by pass136 Test12= 1.23D-13 1.00D-09 XBig12= 5.23D-14 1.04D-08.
      3 vectors produced by pass137 Test12= 1.23D-13 1.00D-09 XBig12= 1.04D-13 1.03D-08.
      3 vectors produced by pass138 Test12= 1.23D-13 1.00D-09 XBig12= 2.05D-13 1.90D-08.
      3 vectors produced by pass139 Test12= 1.23D-13 1.00D-09 XBig12= 1.60D-13 1.50D-08.
      3 vectors produced by pass140 Test12= 1.23D-13 1.00D-09 XBig12= 1.50D-13 1.36D-08.
      3 vectors produced by pass141 Test12= 1.23D-13 1.00D-09 XBig12= 1.50D-13 1.33D-08.
      3 vectors produced by pass142 Test12= 1.23D-13 1.00D-09 XBig12= 1.09D-13 1.13D-08.
      3 vectors produced by pass143 Test12= 1.23D-13 1.00D-09 XBig12= 1.12D-13 1.33D-08.
      3 vectors produced by pass144 Test12= 1.23D-13 1.00D-09 XBig12= 1.27D-13 1.37D-08.
      3 vectors produced by pass145 Test12= 1.23D-13 1.00D-09 XBig12= 1.45D-13 1.49D-08.
      3 vectors produced by pass146 Test12= 1.23D-13 1.00D-09 XBig12= 1.17D-13 1.23D-08.
      3 vectors produced by pass147 Test12= 1.23D-13 1.00D-09 XBig12= 9.90D-14 1.21D-08.
      3 vectors produced by pass148 Test12= 1.23D-13 1.00D-09 XBig12= 7.72D-14 9.80D-09.
      3 vectors produced by pass149 Test12= 1.23D-13 1.00D-09 XBig12= 7.08D-14 1.03D-08.
      3 vectors produced by pass150 Test12= 1.23D-13 1.00D-09 XBig12= 5.23D-14 8.29D-09.
      3 vectors produced by pass151 Test12= 1.23D-13 1.00D-09 XBig12= 1.23D-13 1.46D-08.
      3 vectors produced by pass152 Test12= 1.23D-13 1.00D-09 XBig12= 1.65D-13 1.56D-08.
      3 vectors produced by pass153 Test12= 1.23D-13 1.00D-09 XBig12= 9.82D-14 1.30D-08.
      3 vectors produced by pass154 Test12= 1.23D-13 1.00D-09 XBig12= 5.62D-14 9.56D-09.
      3 vectors produced by pass155 Test12= 1.23D-13 1.00D-09 XBig12= 2.22D-13 1.42D-08.
      3 vectors produced by pass156 Test12= 1.23D-13 1.00D-09 XBig12= 1.43D-13 1.38D-08.
      3 vectors produced by pass157 Test12= 1.23D-13 1.00D-09 XBig12= 1.60D-13 1.42D-08.
      3 vectors produced by pass158 Test12= 1.23D-13 1.00D-09 XBig12= 6.06D-14 9.74D-09.
      3 vectors produced by pass159 Test12= 1.23D-13 1.00D-09 XBig12= 7.39D-14 8.74D-09.
      3 vectors produced by pass160 Test12= 1.23D-13 1.00D-09 XBig12= 1.86D-13 1.60D-08.
      3 vectors produced by pass161 Test12= 1.23D-13 1.00D-09 XBig12= 9.83D-14 1.05D-08.
      3 vectors produced by pass162 Test12= 1.23D-13 1.00D-09 XBig12= 1.62D-13 1.57D-08.
      3 vectors produced by pass163 Test12= 1.23D-13 1.00D-09 XBig12= 1.22D-13 1.45D-08.
      3 vectors produced by pass164 Test12= 1.23D-13 1.00D-09 XBig12= 7.42D-14 1.02D-08.
      3 vectors produced by pass165 Test12= 1.23D-13 1.00D-09 XBig12= 1.18D-13 1.23D-08.
      3 vectors produced by pass166 Test12= 1.23D-13 1.00D-09 XBig12= 2.27D-13 1.68D-08.
      3 vectors produced by pass167 Test12= 1.23D-13 1.00D-09 XBig12= 1.12D-13 1.11D-08.
      3 vectors produced by pass168 Test12= 1.23D-13 1.00D-09 XBig12= 1.13D-13 1.17D-08.
      3 vectors produced by pass169 Test12= 1.23D-13 1.00D-09 XBig12= 6.25D-14 8.16D-09.
      3 vectors produced by pass170 Test12= 1.23D-13 1.00D-09 XBig12= 6.40D-14 1.02D-08.
      3 vectors produced by pass171 Test12= 1.23D-13 1.00D-09 XBig12= 9.39D-14 1.37D-08.
      3 vectors produced by pass172 Test12= 1.23D-13 1.00D-09 XBig12= 5.14D-14 8.24D-09.
      3 vectors produced by pass173 Test12= 1.23D-13 1.00D-09 XBig12= 9.90D-14 1.06D-08.
      3 vectors produced by pass174 Test12= 1.23D-13 1.00D-09 XBig12= 7.08D-14 1.10D-08.
      3 vectors produced by pass175 Test12= 1.23D-13 1.00D-09 XBig12= 1.62D-13 1.55D-08.
      3 vectors produced by pass176 Test12= 1.23D-13 1.00D-09 XBig12= 1.28D-13 1.21D-08.
      3 vectors produced by pass177 Test12= 1.23D-13 1.00D-09 XBig12= 1.27D-13 1.30D-08.
      3 vectors produced by pass178 Test12= 1.23D-13 1.00D-09 XBig12= 1.21D-13 1.29D-08.
      3 vectors produced by pass179 Test12= 1.23D-13 1.00D-09 XBig12= 4.18D-14 6.77D-09.
      3 vectors produced by pass180 Test12= 1.23D-13 1.00D-09 XBig12= 2.04D-13 1.42D-08.
      3 vectors produced by pass181 Test12= 1.23D-13 1.00D-09 XBig12= 4.86D-14 8.15D-09.
      3 vectors produced by pass182 Test12= 1.23D-13 1.00D-09 XBig12= 8.71D-14 1.04D-08.
      3 vectors produced by pass183 Test12= 1.23D-13 1.00D-09 XBig12= 2.28D-13 1.72D-08.
      3 vectors produced by pass184 Test12= 1.23D-13 1.00D-09 XBig12= 5.63D-14 8.27D-09.
      3 vectors produced by pass185 Test12= 1.23D-13 1.00D-09 XBig12= 1.50D-13 1.24D-08.
      3 vectors produced by pass186 Test12= 1.23D-13 1.00D-09 XBig12= 7.29D-14 1.01D-08.
      3 vectors produced by pass187 Test12= 1.23D-13 1.00D-09 XBig12= 6.10D-14 1.10D-08.
      3 vectors produced by pass188 Test12= 1.23D-13 1.00D-09 XBig12= 8.49D-14 1.05D-08.
      2 vectors produced by pass189 Test12= 1.23D-13 1.00D-09 XBig12= 4.20D-14 9.32D-09.
 InvSVY:  IOpt=1 It=  1 EMax= 1.44D-15
 Solved reduced A of dimension  2078 with   138 vectors.
 End of Minotr F.D. properties file   721 does not exist.
 End of Minotr F.D. properties file   722 does not exist.
 End of Minotr F.D. properties file   788 does not exist.

 **********************************************************************

            Population analysis using the SCF density.

 **********************************************************************

 Orbital symmetries:
 Alpha Orbitals:
       Occupied  (A) (A) (A) (A) (A) (A) (A) (A) (A) (A) (A) (A)
                 (A) (A) (A) (A) (A) (A) (A) (A) (A) (A) (A) (A)
                 (A) (A) (A) (A) (A) (A) (A) (A) (A) (A) (A) (A)
                 (A) (A) (A) (A) (A) (A) (A) (A) (A) (A) (A) (A)
                 (A) (A) (A) (A) (A) (A) (A) (A) (A) (A) (A) (A)
                 (A) (A) (A) (A) (A) (A) (A) (A) (A) (A) (A) (A)
                 (A) (A) (A) (A) (A) (A) (A) (A) (A) (A) (A) (A)
                 (A) (A) (A) (A) (A) (A) (A) (A) (A) (A) (A) (A)
                 (A) (A)
       Virtual   (A) (A) (A) (A) (A) (A) (A) (A) (A) (A) (A) (A)
                 (A) (A) (A) (A) (A) (A) (A) (A) (A) (A) (A) (A)
                 (A) (A) (A) (A) (A) (A) (A) (A) (A) (A) (A) (A)
                 (A) (A) (A) (A) (A) (A) (A) (A) (A) (A) (A) (A)
                 (A) (A) (A) (A) (A) (A) (A) (A) (A) (A) (A) (A)
                 (A) (A) (A) (A) (A) (A) (A) (A) (A) (A) (A) (A)
                 (A) (A) (A) (A) (A) (A) (A) (A) (A) (A) (A) (A)
                 (A) (A) (A) (A) (A) (A) (A) (A) (A) (A) (A) (A)
                 (A) (A) (A) (A) (A) (A) (A) (A) (A) (A) (A) (A)
                 (A) (A) (A) (A) (A) (A) (A) (A) (A) (A) (A) (A)
                 (A) (A) (A) (A) (A) (A) (A) (A) (A) (A) (A) (A)
                 (A) (A) (A) (A) (A) (A) (A) (A) (A) (A) (A) (A)
                 (A) (A) (A) (A) (A) (A) (A) (A) (A) (A) (A) (A)
                 (A) (A) (A) (A) (A) (A) (A) (A) (A) (A) (A) (A)
                 (A) (A) (A) (A) (A) (A) (A) (A) (A) (A) (A) (A)
                 (A) (A) (A) (A) (A) (A) (A) (A) (A) (A) (A) (A)
                 (A) (A) (A) (A) (A) (A) (A) (A) (A) (A) (A) (A)
                 (A) (A) (A) (A) (A) (A) (A) (A) (A) (A) (A) (A)
                 (A) (A) (A) (A) (A) (A) (A) (A) (A) (A) (A) (A)
                 (A) (A) (A) (A) (A) (A) (A) (A) (A) (A) (A) (A)
                 (A) (A) (A) (A) (A) (A) (A) (A) (A) (A) (A) (A)
                 (A) (A) (A) (A) (A) (A) (A) (A) (A) (A) (A) (A)
                 (A) (A) (A) (A) (A) (A) (A) (A) (A) (A) (A) (A)
                 (A) (A) (A) (A) (A) (A) (A) (A) (A) (A) (A) (A)
                 (A) (A) (A) (A) (A) (A) (A) (A) (A) (A) (A) (A)
                 (A) (A) (A) (A) (A) (A) (A) (A) (A) (A) (A) (A)
                 (A) (A) (A) (A) (A) (A) (A) (A) (A) (A) (A) (A)
                 (A) (A) (A) (A) (A) (A) (A) (A) (A) (A) (A) (A)
                 (A) (A) (A) (A) (A) (A) (A) (A) (A) (A) (A) (A)
                 (A) (A) (A) (A) (A) (A) (A) (A) (A) (A) (A) (A)
                 (A) (A) (A) (A) (A) (A) (A) (A) (A) (A) (A) (A)
                 (A) (A) (A) (A) (A) (A) (A) (A) (A) (A) (A) (A)
                 (A) (A) (A) (A) (A) (A) (A) (A) (A) (A) (A) (A)
                 (A) (A) (A) (A) (A) (A) (A) (A) (A) (A) (A) (A)
                 (A) (A) (A) (A) (A) (A) (A) (A) (A) (A) (A) (A)
                 (A) (A) (A) (A) (A) (A) (A) (A) (A) (A) (A) (A)
                 (A) (A) (A) (A) (A) (A) (A) (A) (A) (A) (A) (A)
                 (A) (A) (A) (A) (A) (A) (A) (A) (A) (A) (A) (A)
                 (A) (A) (A) (A) (A) (A) (A) (A) (A) (A) (A) (A)
                 (A) (A) (A) (A) (A) (A) (A) (A) (A) (A) (A) (A)
                 (A) (A) (A) (A) (A) (A) (A) (A) (A) (A) (A) (A)
                 (A) (A) (A) (A) (A) (A) (A) (A) (A) (A) (A) (A)
                 (A) (A) (A) (A) (A) (A) (A) (A) (A) (A) (A) (A)
                 (A) (A) (A) (A) (A) (A) (A) (A) (A) (A) (A) (A)
                 (A) (A) (A) (A) (A) (A) (A) (A) (A) (A) (A) (A)
                 (A) (A) (A) (A) (A) (A) (A) (A) (A) (A) (A) (A)
                 (A) (A) (A) (A) (A) (A) (A) (A) (A) (A) (A) (A)
                 (A) (A) (A) (A) (A) (A) (A) (A) (A) (A) (A) (A)
                 (A) (A) (A) (A) (A) (A) (A) (A) (A) (A) (A) (A)
                 (A) (A) (A) (A) (A) (A) (A) (A) (A) (A) (A) (A)
                 (A) (A) (A) (A) (A) (A) (A) (A) (A) (A) (A) (A)
                 (A) (A) (A) (A) (A) (A) (A) (A) (A) (A) (A) (A)
                 (A) (A) (A) (A) (A) (A)
 Beta  Orbitals:
       Occupied  (A) (A) (A) (A) (A) (A) (A) (A) (A) (A) (A) (A)
                 (A) (A) (A) (A) (A) (A) (A) (A) (A) (A) (A) (A)
                 (A) (A) (A) (A) (A) (A) (A) (A) (A) (A) (A) (A)
[...]
 8,0.00000908,0.00000140,-0.00000204,-0.00002658,0.00002432,0.00001310,
 -0.00000392,0.00000748,0.00000374,-0.00006850,0.00001766,-0.00001119,-
 0.00003419,-0.00003472,-0.00000858,0.00006393,0.00000558,0.00000598,-0
 .00058246,-0.00144751,-0.00003311,0.00008850,-0.00012970,0.00001993,0.
 00010117,0.00009592,0.00001830,-0.00249067,0.00375194,0.00180155,0.000
 18982,0.00054261,0.00002725,-0.01865537,-0.01851064,0.00094176,0.00058
 094,-0.00228511,-0.00117333,0.00006976,-0.00001038,-0.00026599,0.00002
 006,0.00000532,0.00000469,-0.00001807,-0.00001455,0.00000935,0.0000371
 3,-0.00000834,-0.00001818,-0.00013731,0.00071381,0.00004974,0.00196047
 ,0.00080152,0.00127162,-0.23168028,-0.13274606,0.01258031,0.00607940,0
 .00370186,0.00036734,-0.00000524,-0.00000046,0.00000037,-0.00000361,0.
 00000087,0.00000066,-0.00000551,0.00000718,0.00000181,-0.00002342,0.00
 002448,0.00000720,-0.00000358,-0.00000280,0.00000085,-0.00000237,-0.00
 000250,0.00000276,-0.00000295,-0.00000354,-0.00000047,-0.00000019,-0.0
 0000650,-0.00000034,-0.00000439,0.00000615,-0.00000273,0.00005615,0.00
 021259,0.00000920,0.00044933,-0.00022877,-0.00102503,0.24413300,-0.000
 00041,-0.00000989,-0.00000750,0.00000083,-0.00000200,0.00000160,-0.000
 01003,-0.00000081,-0.00000227,0.00000314,-0.00000210,0.00000161,-0.000
 01648,0.00002221,-0.00000020,0.00005736,-0.00005294,0.00001085,0.00005
 626,-0.00014120,-0.00000588,-0.00001456,-0.00000953,0.00000779,0.00006
 804,0.00001514,0.00001935,0.00000892,-0.00000436,-0.00000019,0.0000089
 5,-0.00001423,-0.00000944,0.00000299,0.00000691,-0.00000126,0.00005305
 ,0.00004542,0.00000684,0.00000720,0.00002809,0.00000603,-0.00003448,-0
 .00001399,0.00000130,0.00055110,0.00037086,0.00000834,0.00021149,0.000
 16720,0.00001184,-0.00011828,-0.00002644,-0.00001213,0.00211178,-0.000
 66771,-0.00146819,-0.00037792,0.00016015,0.00006241,0.01005524,0.00886
 054,-0.00089137,0.00210821,0.00056966,0.00037999,-0.00012120,0.0000266
 2,0.00028058,-0.00005256,-0.00001529,-0.00001815,0.00003879,0.00007941
 ,0.00001100,-0.00008113,-0.00007614,0.00012415,0.00064653,-0.00026739,
 -0.00004152,0.00174408,-0.00453550,-0.00312899,-0.13364609,-0.15786717
 ,0.00199817,-0.02639309,-0.01304993,0.00218224,-0.00000429,0.00000149,
 0.00000050,-0.00000467,0.00000123,-0.00000017,-0.00000091,0.00000417,0
 .00000143,0.00000787,0.00000154,-0.00000171,-0.00000297,-0.00000337,0.
 00000038,-0.00000383,-0.00000410,-0.00000112,-0.00000885,-0.00000297,-
 0.00000198,0.00000100,-0.00000899,0.00000229,-0.00003383,0.00002035,-0
 .00006561,-0.00114156,-0.00071258,0.00024792,0.00058595,0.00078904,0.0
 0095961,0.14384314,0.16636860,-0.00005933,0.00007637,0.00000347,0.0000
 1362,-0.00001271,-0.00000466,-0.00001989,0.00000571,-0.00000310,-0.000
 00486,0.00001030,-0.00000361,-0.00001173,-0.00007613,-0.00000615,-0.00
 015683,-0.00001940,0.00006143,0.00008180,-0.00017693,0.00004500,0.0000
 5725,-0.00000927,-0.00004608,-0.00000023,0.00001991,0.00003912,0.00002
 129,-0.00001275,-0.00000245,-0.00004043,0.00000997,0.00001440,0.000007
 83,0.00002442,0.00000796,-0.00002391,0.00001608,-0.00001473,-0.0000069
 9,-0.00002169,-0.00000787,0.00002464,0.00000200,-0.00000687,0.00042410
 ,0.00026104,0.00006436,-0.00003081,0.00010621,0.00006303,0.00000133,-0
 .00001754,0.00001657,0.00234945,-0.00002405,0.00511912,-0.00016663,-0.
 00003544,-0.00006684,0.00385550,0.00464653,0.00304344,-0.00015759,0.00
 121684,-0.00314381,-0.00011763,0.00020985,-0.00096365,0.00010469,-0.00
 001117,0.00002276,-0.00014127,-0.00007055,-0.00003788,0.00026305,0.000
 07132,-0.00007596,0.00030530,-0.00083964,-0.00091407,0.00205139,-0.002
 82135,0.00665239,0.01363339,0.00129023,-0.03838500,-0.00578783,-0.0037
 5995,0.00439318,0.00000150,0.00000136,0.00000048,0.00000080,-0.0000009
 6,0.00000248,0.00000188,-0.00000038,-0.00000222,0.00000506,-0.00000764
 ,0.00001012,0.00000083,0.00000016,0.00000151,-0.00000286,0.00000161,0.
 00000372,-0.00000387,-0.00000081,0.00000619,0.00000242,0.00000741,-0.0
 0000191,-0.00006037,0.00004965,0.00004318,-0.00039666,-0.00042091,0.00
 019713,-0.00102299,0.00115454,-0.00385423,-0.01494121,-0.00050298,0.02
 723780,-0.00000202,-0.00000145,0.00000563,-0.00002069,-0.00000460,-0.0
 0000540,0.00001962,-0.00002146,0.00000596,-0.00005253,-0.00001666,-0.0
 0000677,0.00002110,0.00004612,0.00001091,-0.00001636,-0.00002531,-0.00
 000242,0.00006698,-0.00005058,-0.00007480,0.00001766,-0.00001504,-0.00
 000719,0.00003264,0.00005663,0.00003583,-0.00001422,0.00000674,0.00000
 121,-0.00002125,0.00007366,0.00000694,0.00001098,-0.00001765,-0.000003
 37,-0.00044732,0.00031029,-0.00007989,-0.00008939,-0.00002898,0.000005
 16,0.00004814,-0.00012502,-0.00004077,0.00021450,0.00030644,0.00008686
 ,-0.00215822,0.00401721,0.00173460,-0.00058359,-0.00108963,-0.00025052
 ,0.00078953,0.00081988,0.00029120,-0.02034737,-0.01681184,-0.00103622,
 0.00265231,0.00250997,0.00056467,-0.25620420,-0.12360090,-0.00342086,0
 .00000518,0.00005042,-0.00004377,-0.00000140,0.00000416,-0.00000320,0.
 00000227,0.00000386,-0.00000297,0.00001222,0.00000707,0.00000292,-0.00
 005643,0.00027391,0.00003382,0.00021317,0.00013181,-0.00002202,0.00070
 948,0.00201995,0.00022793,0.00018944,-0.00033892,-0.00009203,-0.000008
 13,-0.00000006,0.00000143,-0.00001929,-0.00001118,0.00000301,-0.000004
 98,0.00001487,0.00000497,-0.00000619,0.00004876,0.00004903,-0.00000421
 ,-0.00000541,-0.00000011,-0.00000231,-0.00000496,0.00000174,-0.0000038
 7,-0.00000414,0.00000090,0.00000171,-0.00000576,0.00000318,0.00000372,
 0.00000281,-0.00000460,0.00001862,-0.00000663,-0.00000526,0.00000344,-
 0.00004789,-0.00000662,0.00037593,-0.00007686,-0.00005791,0.27377460,-
 0.00001786,0.00000174,-0.00000784,-0.00000870,-0.00000931,0.00000042,-
 0.00000856,-0.00001233,-0.00000176,-0.00000486,0.00004492,-0.00000641,
 0.00002600,0.00002894,0.00001131,0.00003899,-0.00001702,0.00001904,-0.
 00010350,0.00012041,0.00008561,-0.00001888,-0.00004107,-0.00000977,0.0
 0002696,-0.00006598,-0.00003848,0.00003648,-0.00000340,-0.00000261,-0.
 00001375,-0.00002031,0.00000976,-0.00000915,0.00003353,0.00000214,0.00
 018534,-0.00007624,0.00016738,0.00001993,0.00001758,-0.00001566,0.0000
 0253,0.00005570,0.00004100,0.00061831,-0.00024307,0.00003850,0.0027285
 3,-0.00073489,-0.00198238,0.00024173,0.00052173,0.00008167,0.00240011,
 -0.00437835,-0.00184229,0.01465694,0.01114169,0.00004053,-0.02627100,-
 0.01374659,-0.00063502,-0.12388081,-0.13187812,-0.00754426,0.00031374,
 -0.00026840,-0.00004931,-0.00000519,-0.00001085,-0.00000171,0.00003311
 ,-0.00000601,0.00003406,-0.00014896,-0.00010919,0.00003511,-0.00154029
 ,-0.00020119,0.00044849,0.00010831,0.00007564,-0.00002446,-0.00220256,
 0.00091170,0.00094366,0.00037195,-0.00000518,-0.00001625,-0.00000033,0
 .00000180,0.00000012,0.00000589,0.00000645,-0.00000461,-0.00000096,-0.
 00000114,-0.00000051,-0.00000227,-0.00001462,-0.00005455,-0.00000222,-
 0.00000064,0.00000196,-0.00000356,-0.00000013,0.00000220,-0.00000402,-
 0.00000173,-0.00000188,-0.00000775,-0.00001917,-0.00000389,0.00000939,
 0.00000655,-0.00001673,0.00007969,0.00002416,-0.00004003,0.00000256,-0
 .00002842,-0.00003183,0.00127777,-0.00005195,-0.00035280,0.13125655,0.
 13825445,-0.00001270,0.00000748,-0.00000147,0.00001471,-0.00002452,0.0
 0000976,-0.00001553,0.00005314,0.00000639,-0.00005645,0.00000374,-0.00
 000422,0.00002116,0.00007491,0.00001145,0.00002338,-0.00000635,0.00001
 404,-0.00044362,0.00003750,-0.00039679,-0.00009191,-0.00005704,-0.0000
 3428,0.00025229,-0.00029159,0.00009320,0.00002436,-0.00002889,-0.00000
 282,0.00006647,-0.00012716,-0.00002871,-0.00000519,0.00003133,0.000002
 98,0.00046918,0.00030294,-0.00078570,0.00007206,0.00010423,0.00007796,
 -0.00010513,0.00007264,-0.00007663,0.00084795,-0.00047041,-0.00071546,
 0.00169834,-0.00250930,0.00899889,-0.00028435,0.00046008,0.00037539,-0
 .00044337,-0.00131583,0.00306322,0.00313517,0.00317143,0.00487664,-0.0
 0435942,-0.00078364,0.00255127,-0.00221294,-0.00908534,-0.03723814,0.0
 0011022,-0.00010097,0.00000230,0.00001113,-0.00001840,0.00001009,-0.00
 001544,-0.00002448,-0.00001623,-0.00003192,-0.00000061,-0.00002328,-0.
 00024273,-0.00024427,0.00020883,-0.00017158,-0.00003553,0.00007419,-0.
 00078978,-0.00001903,-0.00185620,0.00012829,0.00027780,-0.00009691,-0.
 00000058,0.00000034,0.00000263,0.00000641,0.00000295,0.00001751,-0.000
 00317,-0.00000232,-0.00000407,-0.00003185,-0.00007003,0.00025468,-0.00
 000181,0.00000040,-0.00000404,-0.00000030,-0.00000129,-0.00000136,-0.0
 0000132,-0.00000002,0.00000233,-0.00000379,-0.00000319,0.00000455,-0.0
 0000577,0.00000387,0.00001121,0.00002251,-0.00000527,0.00002043,0.0000
 1985,-0.00001326,0.00006086,0.00028162,-0.00008538,0.00023722,0.002567
 44,0.00960048,0.02581112,0.00000866,-0.00001571,0.00000888,0.00000917,
 -0.00000142,-0.00000100,-0.00003281,0.00003490,0.00000357,0.00000142,-
 0.00018388,-0.00000094,-0.00032013,-0.00000067,-0.00010861,-0.00004311
 ,0.00004950,-0.00002080,0.00042623,-0.00138582,-0.00008079,-0.00000557
 ,0.00013853,0.00002920,0.00008000,-0.00010401,-0.00001925,-0.00001851,
 -0.00001786,0.00000267,-0.00003660,-0.00001726,-0.00001058,0.00000131,
 0.00000597,0.00000275,0.00004926,0.00038322,0.00009454,0.00001097,-0.0
 0003480,-0.00000098,0.00000022,-0.00001425,-0.00000073,-0.00455223,-0.
 00127324,-0.00031367,0.00385055,-0.02563522,-0.00439535,0.00124208,-0.
 00173821,-0.00029887,-0.00060484,0.00008476,0.00000192,-0.05788501,0.0
 0691477,0.00198388,-0.00448425,0.00091591,0.00120833,0.00303588,0.0293
 6469,0.00517137,-0.00004528,0.00002530,0.00002418,-0.00001024,0.000013
 34,-0.00000309,0.00001860,-0.00000180,0.00000254,0.00002995,-0.0000011
 1,-0.00002191,0.00020678,-0.00003666,-0.00004333,-0.00010878,-0.000074
 96,-0.00000072,0.00058524,0.00113639,0.00006074,-0.00036514,0.00020605
 ,0.00010740,-0.00000223,-0.00000254,0.00000014,0.00000276,0.00000660,-
 0.00000234,-0.00001922,0.00000054,0.00000024,-0.00051964,0.00066828,0.
 00013392,-0.00000388,0.00000176,-0.00000008,0.00000099,-0.00000153,-0.
 00000168,0.00000269,-0.00000216,0.00000105,0.00000099,0.00000385,0.000
 00171,0.00000377,-0.00000924,0.00001221,0.00000637,0.00000777,-0.00000
 836,-0.00001508,0.00013687,0.00005050,-0.00004810,-0.00003513,-0.00000
 112,0.00087846,-0.00018868,-0.00043769,0.05865997,0.00000470,-0.000018
 06,0.00000664,-0.00000560,0.00000593,-0.00000582,-0.00000643,0.0000109
 4,0.00000170,0.00000327,-0.00012585,-0.00000911,-0.00018208,0.00006082
 ,-0.00004272,-0.00002444,-0.00000583,0.00000122,0.00057398,-0.00084890
 ,-0.00003881,0.00000342,0.00013069,0.00003778,0.00002775,0.00024997,0.
 00004741,-0.00003991,0.00000243,0.00000436,-0.00006797,0.00008717,0.00
 000357,0.00001057,-0.00003078,-0.00000318,-0.00055596,0.00013178,0.000
 01978,-0.00006640,-0.00013282,-0.00002047,0.00015330,-0.00004475,-0.00
 002950,-0.00277861,0.00074342,-0.00084031,0.00276980,-0.01265336,-0.00
 259818,0.00210663,0.00050259,0.00056298,-0.00010714,0.00032156,0.00014
 170,0.00769446,-0.32359341,-0.05223202,0.00208388,0.00173530,-0.001637
 08,-0.00201637,-0.01064664,-0.00247736,0.00002099,0.00002687,-0.000021
 51,-0.00000998,0.00000167,-0.00000547,0.00001019,0.00000587,-0.0000002
 4,-0.00000326,-0.00002425,0.00002357,0.00001724,-0.00002554,0.00016819
 ,-0.00000585,0.00004837,-0.00000825,-0.00029847,-0.00069043,-0.0000742
 2,0.00033580,-0.00006252,0.00003682,-0.00001065,-0.00000209,-0.0000001
 6,-0.00001210,0.00000014,0.00000305,-0.00001800,0.00001977,0.00000553,
 -0.00065447,0.00070409,-0.00000396,-0.00000628,-0.00000408,0.00000052,
 -0.00000312,-0.00000523,0.00000179,-0.00000342,-0.00000520,0.00000146,
 0.00000221,-0.00000773,0.00000125,0.00000398,0.00000180,-0.00000103,0.
 00000082,-0.00001660,-0.00002223,0.00000273,-0.00007080,-0.00002107,0.
 00002484,0.00002197,-0.00002866,0.00035567,0.00071165,0.00111630,-0.00
 933199,0.34349932,-0.00000349,-0.00000833,-0.00000282,0.00000895,0.000
 00012,-0.00000563,-0.00000404,0.00000849,-0.00000466,0.00000992,-0.000
 01359,-0.00000953,-0.00003438,-0.00002751,0.00003386,-0.00000346,0.000
 00857,-0.00000586,0.00017172,-0.00011213,0.00019627,0.00000962,0.00001
 609,0.00003745,-0.00001332,0.00003477,-0.00004658,-0.00000278,-0.00000
 653,-0.00000695,-0.00001755,-0.00000989,-0.00001866,0.00000615,0.00000
 708,0.00000394,-0.00001650,0.00011429,-0.00012508,0.00000874,0.0000050
 7,0.00001767,-0.00002743,-0.00002826,0.00003271,-0.00073874,-0.0002057
 9,0.00375021,0.00071714,-0.00189014,0.00233519,0.00016134,0.00044187,-
 0.00177406,-0.00019827,-0.00006563,-0.00058934,0.00171056,-0.05151298,
 -0.04569392,0.00189046,-0.00108386,0.00926239,0.00034051,-0.00496758,0
 .00377550,-0.00000323,0.00002613,0.00000548,-0.00000402,-0.00000427,-0
 .00000084,0.00000623,0.00000938,-0.00000499,0.00001498,0.00000703,0.00
 000149,-0.00023201,0.00019719,-0.00071550,0.00023917,0.00001808,0.0001
 0098,-0.00020013,0.00010419,0.00016634,-0.00010583,-0.00005992,-0.0007
 0359,-0.00000075,-0.00000023,0.00000412,-0.00000324,0.00000051,-0.0000
 0745,0.00000028,-0.00000076,0.00001376,-0.00013462,-0.00000092,0.00023
 741,-0.00000005,-0.00000023,0.00000026,-0.00000019,0.00000038,0.000004
 29,-0.00000114,-0.00000046,0.00000225,0.00000015,0.00000023,0.00000069
 ,-0.00000039,-0.00000240,0.00000628,0.00001852,-0.00000707,0.00004596,
 -0.00000722,-0.00002907,-0.00001625,0.00004606,-0.00003599,0.00018695,
 -0.00048483,0.00113669,-0.00551343,-0.00312122,0.05793513,0.03502488,-
 0.00011199,0.00011653,-0.00031155,-0.00023847,0.00023609,0.00001204,-0
 .00014564,-0.00030153,0.00003919,0.00087873,-0.00017155,0.00024371,-0.
 00097964,0.00035990,-0.00148965,-0.00078518,-0.00061735,-0.00292455,-0
 .00013644,-0.00072583,-0.00013481,0.00005840,0.00029306,0.00002977,-0.
 00026178,-0.00002815,-0.00003105,0.00002568,0.00005141,0.00000176,0.00
 003821,-0.00002047,-0.00002179,-0.00013575,-0.00002856,0.00001144,-0.0
 0003568,0.00000690,-0.00000120,-0.00000864,-0.00008274,-0.00000946,0.0
 0009301,0.00002077,0.00000701,-0.00016361,0.00006221,0.00014333,-0.000
 04905,0.00000547,0.00003390,0.00003512,0.00005797,-0.00000344,-0.00021
 874,-0.00021942,0.00074308,0.00000788,-0.00004874,-0.00002506,0.000375
 72,0.00019291,-0.00003996,0.00005176,0.00008942,0.00005111,-0.00188037
 ,-0.00333325,-0.00460749,0.00113563,0.00035398,0.00026712,-0.00184670,
 -0.00096741,0.00027742,0.00013472,0.00565999,0.00167954,-0.00241839,-0
 .00110067,0.00437842,0.00092077,-0.00017802,0.00024608,-0.00032919,0.0
 0022163,0.00004594,-0.00019896,-0.00040346,-0.00026603,-0.00000007,0.0
 0000229,-0.00000273,-0.00000458,0.00000256,0.00000463,-0.00000028,0.00
 000696,0.00000124,0.00000553,0.00000479,0.00000139,-0.00001550,-0.0000
 0164,0.00000260,-0.00001323,-0.00000852,0.00001045,0.00001132,-0.00003
 388,-0.00001961,-0.00003158,-0.00007620,-0.00007148,0.00010085,-0.0001
 4500,-0.00019064,0.00002480,0.00003706,0.00004055,-0.00002294,-0.00000
 867,-0.00000894,0.00000192,0.00000720,0.00000586,0.00000226,0.00000306
 ,-0.00000421,0.00000831,0.00000229,-0.00000167,0.00612178,-0.00044559,
 0.00070701,-0.00021502,0.00101785,-0.00054652,-0.00007713,-0.00010591,
 0.00135892,-0.00009072,-0.00224289,0.00007177,0.00013134,0.00292671,-0
 .00193620,0.00073303,-0.00573371,0.00118378,-0.00479016,0.00026712,0.0
 0030200,-0.00009938,0.00012248,-0.00082041,-0.00013991,0.00029518,0.00
 011246,0.00005955,0.00034469,-0.00024135,-0.00006004,-0.00052872,-0.00
 027539,0.00001918,0.00018812,0.00055021,0.00001365,0.00021486,-0.00011
 999,0.00001021,0.00012996,0.00019098,0.00001398,-0.00033828,0.00000504
 ,0.00000613,-0.00015940,-0.00004995,0.00014079,0.00004706,-0.00004891,
 -0.00001898,-0.00003960,-0.00007427,-0.00001812,-0.00082764,-0.0009637
 1,0.00083736,-0.00002280,-0.00004749,-0.00003041,0.00024849,0.00008193
 ,0.00016912,0.00002517,0.00002909,-0.00001300,-0.00181749,0.00697009,0
 .01429170,-0.00177362,-0.00043870,0.00045185,0.00425612,0.00240582,-0.
 00067040,0.00371628,-0.01538404,-0.00614150,0.00058612,0.00112124,-0.0
 0013182,-0.00062304,-0.00018764,0.00028012,-0.00034350,-0.00015482,-0.
 00005478,0.00005882,-0.00000377,-0.00032874,0.00000311,0.00000938,0.00
 000794,0.00000642,0.00000293,-0.00000269,0.00000467,-0.00000880,-0.000
 00466,-0.00000277,-0.00000581,-0.00000029,0.00001509,-0.00000321,0.000
 01368,0.00005470,0.00000735,-0.00001386,0.00000203,0.00006288,-0.00002
 078,0.00007410,0.00020963,0.00020848,-0.00035158,0.00029021,0.00050872
 ,0.00006755,-0.00016375,0.00018726,-0.00003489,-0.00001194,0.00003303,
 0.00000885,-0.00002006,0.00004221,-0.00000587,-0.00001336,0.00000257,0
 .00000915,-0.00000922,0.00000225,0.00070660,0.00585659,-0.00099811,0.0
 0331513,-0.00169510,0.00244662,-0.00119078,0.00022354,-0.00073336,0.00
 319590,-0.00031349,-0.00464148,-0.00023984,0.00042659,0.00570830,-0.00
 551075,0.00004914,-0.01918008,0.00034441,-0.01430029,0.00022269,0.0002
 8554,0.00007992,0.00040135,-0.00165288,-0.00025966,0.00045461,0.000044
 19,0.00013890,0.00093285,-0.00061052,-0.00011563,-0.00136412,-0.000731
 32,0.00000554,0.00027714,0.00136794,0.00006129,0.00049700,-0.00005168,
 0.00004446,0.00022012,0.00034958,0.00003815,-0.00058207,-0.00008431,-0
 .00001050,-0.00008943,-0.00033717,0.00066535,0.00021286,0.00007644,0.0
 0014097,-0.00020921,-0.00019714,-0.00009813,0.00083823,-0.00059973,-0.
 00107772,-0.00019008,0.00000407,0.00002224,-0.00106843,-0.00042604,0.0
 0012733,0.00000061,-0.00022858,-0.00009771,-0.00480469,0.02967681,0.04
 437202,-0.00498393,-0.00242838,0.00028078,0.00983925,0.00663693,-0.000
 36992,0.00712239,-0.03039714,-0.00400001,0.00977905,0.00362905,-0.0124
 6720,-0.00387179,0.00035002,-0.00002263,0.00077477,-0.00137160,-0.0004
 5291,0.00119062,0.00178117,-0.00006042,0.00000268,0.00002792,0.0000026
 1,0.00000287,0.00000327,-0.00000647,0.00000552,-0.00000194,-0.00001046
 ,-0.00000276,-0.00000162,-0.00001084,0.00000582,-0.00002004,0.00002106
 ,0.00008646,-0.00003515,-0.00005361,-0.00001546,0.00011699,-0.00001935
 ,0.00022725,0.00023758,0.00015681,-0.00056654,0.00036093,0.00079586,0.
 00006703,-0.00038835,0.00041786,0.00006236,0.00000150,0.00017633,0.000
 03777,-0.00004419,0.00006809,0.00000618,-0.00001507,0.00000058,-0.0000
 0863,0.00000061,-0.00000115,0.00188772,-0.00524177,-0.01287222\\0.0000
 0019,0.00000030,0.00000010,0.00000089,-0.00000057,0.00000011,0.0000001
 8,0.,-0.00000038,-0.00000046,-0.00000044,-0.00000032,0.00000087,-0.000
 00088,-0.00000004,-0.00000184,0.00000027,-0.00000073,-0.00000007,-0.00
 000007,-0.00000017,0.00000006,-0.00000069,-0.00000069,-0.00000015,-0.0
 0000023,-0.00000061,0.00000045,-0.00000082,-0.00000072,-0.00000034,-0.
 00000079,-0.00000103,0.00000010,-0.00000053,-0.00000100,-0.00000032,-0
 .00000027,-0.00000088,-0.00000032,-0.00000052,-0.00000133,-0.00000065,
 -0.00000041,-0.00000124,-0.00000025,0.00000018,-0.00000003,-0.00000046
 ,0.00000016,-0.00000032,-0.00000066,-0.00000004,-0.00000074,0.00000006
 ,0.00000018,0.00000028,-0.00000063,0.00000037,-0.00000020,-0.00000025,
 0.00000045,0.00000048,-0.00000046,0.00000049,0.00000016,-0.00000052,0.
 00000449,0.00000650,-0.00000004,-0.00000042,0.00000071,0.00000179,0.00
 000106,0.00000097,0.00000113,-0.00000299,0.00000146,0.00000106,0.00000
 061,-0.00000060,0.,0.00000055,0.00000098,0.00000005,0.00000048,0.00000
 076,0.00000033,0.00000075,0.00000110,0.,-0.00000090,-0.00000129,-0.000
 00047,-0.00000073,-0.00000162,-0.00000074,-0.00000042,-0.00000150,-0.0
 0000080,0.00000003,-0.00000092,0.00000038,-0.00000082,-0.00000070,0.00
 000061,-0.00000045,0.00000008,0.00000070,-0.00000005,0.00000077,0.0000
 0062,0.00000042,0.00000130,0.00000027,0.00000057,0.00000128,0.00000052
 ,0.00000037,0.00000126,0.00000036,0.00000067,0.00000139,-0.00000013,0.
 00000074,0.00000089,-0.00000055,0.00000066,0.00000026,-0.00000081,0.00
 000040,-0.00000041,0.00000030,-0.00000116,-0.00000336\\\@


 KINETICS       FACT
 ---------  =  -------
 MECHANISM     FICTION
 Job cpu time:       1 days 19 hours 11 minutes 18.5 seconds.
 Elapsed time:       0 days  2 hours  9 minutes 31.1 seconds.
 File lengths (MBytes):  RWF=   8085 Int=      0 D2E=      0 Chk=     63 Scr=      1
 Normal termination of Gaussian 16 at Fri May  3 07:13:57 2019.
