 Entering Gaussian System, Link 0=/share/apps/gaussian16/g16/g16
 Initial command:
 /share/apps/gaussian16/g16/l1.exe "/home/amen01//scratch/999/Gau-40814.inp" -scrdir="/home/amen01//scratch/999/"
 Entering Link 1 = /share/apps/gaussian16/g16/l1.exe PID=     40815.
  
 Copyright (c) 1988-2017, Gaussian, Inc.  All Rights Reserved.
  
 This is part of the Gaussian(R) 16 program.  It is based on
 the Gaussian(R) 09 system (copyright 2009, Gaussian, Inc.),
 the Gaussian(R) 03 system (copyright 2003, Gaussian, Inc.),
 the Gaussian(R) 98 system (copyright 1998, Gaussian, Inc.),
 the Gaussian(R) 94 system (copyright 1995, Gaussian, Inc.),
 the Gaussian 92(TM) system (copyright 1992, Gaussian, Inc.),
 the Gaussian 90(TM) system (copyright 1990, Gaussian, Inc.),
 the Gaussian 88(TM) system (copyright 1988, Gaussian, Inc.),
 the Gaussian 86(TM) system (copyright 1986, Carnegie Mellon
 University), and the Gaussian 82(TM) system (copyright 1983,
 Carnegie Mellon University). Gaussian is a federally registered
 trademark of Gaussian, Inc.
  
 This software contains proprietary and confidential information,
 including trade secrets, belonging to Gaussian, Inc.
  
 This software is provided under written license and may be
 used, copied, transmitted, or stored only in accord with that
 written license.
  
 The following legend is applicable only to US Government
 contracts under FAR:
  
                    RESTRICTED RIGHTS LEGEND
  
 Use, reproduction and disclosure by the US Government is
 subject to restrictions as set forth in subparagraphs (a)
 and (c) of the Commercial Computer Software - Restricted
 Rights clause in FAR 52.227-19.
  
 Gaussian, Inc.
 340 Quinnipiac St., Bldg. 40, Wallingford CT 06492
  
  
 ---------------------------------------------------------------
 Warning -- This program may not be used in any manner that
 competes with the business of Gaussian, Inc. or will provide
 assistance to any competitor of Gaussian, Inc.  The licensee
 of this program is prohibited from giving any competitor of
 Gaussian, Inc. access to this program.  By using this program,
 the user acknowledges that Gaussian, Inc. is engaged in the
 business of creating and licensing software in the field of
 computational chemistry and represents and warrants to the
 licensee that it is not a competitor of Gaussian, Inc. and that
 it will not use this program in any manner prohibited above.
 ---------------------------------------------------------------
  

 Cite this work as:
 Gaussian 16, Revision B.01,
 M. J. Frisch, G. W. Trucks, H. B. Schlegel, G. E. Scuseria, 
 M. A. Robb, J. R. Cheeseman, G. Scalmani, V. Barone, 
 G. A. Petersson, H. Nakatsuji, X. Li, M. Caricato, A. V. Marenich, 
 J. Bloino, B. G. Janesko, R. Gomperts, B. Mennucci, H. P. Hratchian, 
 J. V. Ortiz, A. F. Izmaylov, J. L. Sonnenberg, D. Williams-Young, 
 F. Ding, F. Lipparini, F. Egidi, J. Goings, B. Peng, A. Petrone, 
 T. Henderson, D. Ranasinghe, V. G. Zakrzewski, J. Gao, N. Rega, 
 G. Zheng, W. Liang, M. Hada, M. Ehara, K. Toyota, R. Fukuda, 
 J. Hasegawa, M. Ishida, T. Nakajima, Y. Honda, O. Kitao, H. Nakai, 
 T. Vreven, K. Throssell, J. A. Montgomery, Jr., J. E. Peralta, 
 F. Ogliaro, M. J. Bearpark, J. J. Heyd, E. N. Brothers, K. N. Kudin, 
 V. N. Staroverov, T. A. Keith, R. Kobayashi, J. Normand, 
 K. Raghavachari, A. P. Rendell, J. C. Burant, S. S. Iyengar, 
 J. Tomasi, M. Cossi, J. M. Millam, M. Klene, C. Adamo, R. Cammi, 
 J. W. Ochterski, R. L. Martin, K. Morokuma, O. Farkas, 
 J. B. Foresman, and D. J. Fox, Gaussian, Inc., Wallingford CT, 2016.
 
 ******************************************
 Gaussian 16:  ES64L-G16RevB.01 20-Dec-2017
                 6-Sep-2019 
 ******************************************
 %nprocshared=20
 Will use up to   20 processors via shared memory.
 %mem=180GB
 %chk=7-memb-dirTSguess-3bcis2.chk
 ---------------------------------------------------------------
 # opt=(ts,calcfc,noeigen) freq b3lyp/6-311+g(d,p) int=grid=fine
 ---------------------------------------------------------------
 1/5=1,10=4,11=1,18=20,26=3,38=1/1,3;
 2/9=110,12=2,17=6,18=5,40=1/2;
 3/5=4,6=6,7=111,11=2,25=1,30=1,71=2,74=-5,75=-4,140=1/1,2,3;
 4//1;
 5/5=2,38=5/2;
 8/6=4,10=90,11=11/1;
 11/6=1,8=1,9=11,15=111,16=1/1,2,10;
 10/6=1,13=1/2;
 6/7=2,8=2,9=2,10=2,28=1/1;
 7/10=1,18=20,25=1/1,2,3,16;
 1/5=1,10=4,11=1,18=20,26=3/3(2);
 2/9=110/2;
 99//99;
 2/9=110/2;
 3/5=4,6=6,7=111,11=2,25=1,30=1,71=1,74=-5,75=-4/1,2,3;
 4/5=5,16=3,69=1/1;
 5/5=2,38=5/2;
 7//1,2,3,16;
 1/5=1,11=1,18=20,26=3/3(-5);
 2/9=110/2;
 6/7=2,8=2,9=2,10=2,19=2,28=1/1;
 99/9=1/99;
 ------------------------
 7-memb-dirTSguess-3bcis2
 ------------------------
 Symbolic Z-matrix:
 Charge =  0 Multiplicity = 1
 C                    -1.6268   -2.7132    0.0268 
 C                    -1.4759   -1.4231   -0.4438 
 C                    -2.5649   -0.5544   -0.5627 
 C                    -3.8617   -0.8752   -0.1797 
 C                    -2.9874   -3.1344    0.2531 
 C                    -4.058    -2.2574    0.1619 
 C                    -2.0489    0.7501   -0.6418 
 C                    -2.8196    1.8319   -0.2409 
 C                    -4.2089    1.5511    0.004 
 C                    -4.7185    0.258     0.0207 
 C                    -0.6136    0.6796   -0.6277 
 C                     0.1231    1.9734   -0.5365 
 C                    -0.7163    3.0423    0.1924 
 C                    -2.0882    3.0105    0.1805 
 C                    -0.4058   -3.386     0.3736 
 C                     0.8223   -2.7422    0.3051 
 C                     0.9708   -1.3435   -0.14 
 C                    -0.2502   -0.6583   -0.4723 
 C                     0.0224    4.0589    0.8925 
 C                     1.555     1.8225   -0.0941 
 C                     2.1083    2.7686    0.6884 
 C                     1.3473    3.9133    1.1529 
 C                     2.0242   -3.4241    0.7151 
 C                     3.234    -2.8206    0.6704 
 C                     3.3925   -1.4724    0.1764 
 C                     2.2125   -0.7362   -0.1987 
 C                     2.3568    0.6896   -0.7621 
 C                     3.7857    1.1106   -0.9719 
 C                     4.6499   -0.9239    0.0187 
 C                     4.8376    0.3588   -0.5862 
 H                     5.8483    0.7152   -0.7551 
 H                     3.9402    2.0698   -1.4529 
 H                     1.9013    0.6236   -1.7676 
 H                     5.5186   -1.5017    0.315 
 H                     4.1266   -3.3552    0.9782 
 H                     1.9366   -4.4471    1.0661 
 H                    -0.4353   -4.4056    0.7452 
 H                    -3.1756   -4.1546    0.5725 
 H                    -5.0503   -2.6143    0.419 
 H                    -5.7626    0.1105    0.2778 
 H                    -4.8693    2.3718    0.2659 
 H                    -2.6305    3.8287    0.6457 
 H                    -0.523     4.9065    1.2955 
 H                     1.8591    4.6572    1.7536 
 H                     3.1538    2.6969    0.9697 
 H                    -0.24625   3.05053  -1.03281 
 

 GradGradGradGradGradGradGradGradGradGradGradGradGradGradGradGradGradGrad
 Berny optimization.
 Initialization pass.
                           ----------------------------
                           !    Initial Parameters    !
                           ! (Angstroms and Degrees)  !
 --------------------------                            --------------------------
 ! Name  Definition              Value          Derivative Info.                !
 --------------------------------------------------------------------------------
 ! R1    R(1,2)                  1.3815         calculate D2E/DX2 analytically  !
 ! R2    R(1,5)                  1.4422         calculate D2E/DX2 analytically  !
 ! R3    R(1,15)                 1.4366         calculate D2E/DX2 analytically  !
 ! R4    R(2,3)                  1.3981         calculate D2E/DX2 analytically  !
 ! R5    R(2,18)                 1.445          calculate D2E/DX2 analytically  !
 ! R6    R(3,4)                  1.3897         calculate D2E/DX2 analytically  !
 ! R7    R(3,7)                  1.4051         calculate D2E/DX2 analytically  !
 ! R8    R(4,6)                  1.4373         calculate D2E/DX2 analytically  !
 ! R9    R(4,10)                 1.4347         calculate D2E/DX2 analytically  !
 ! R10   R(5,6)                  1.387          calculate D2E/DX2 analytically  !
 ! R11   R(5,38)                 1.0855         calculate D2E/DX2 analytically  !
 ! R12   R(6,39)                 1.0854         calculate D2E/DX2 analytically  !
 ! R13   R(7,8)                  1.3874         calculate D2E/DX2 analytically  !
 ! R14   R(7,11)                 1.4371         calculate D2E/DX2 analytically  !
 ! R15   R(8,9)                  1.4384         calculate D2E/DX2 analytically  !
 ! R16   R(8,14)                 1.4497         calculate D2E/DX2 analytically  !
 ! R17   R(9,10)                 1.39           calculate D2E/DX2 analytically  !
 ! R18   R(9,41)                 1.0855         calculate D2E/DX2 analytically  !
 ! R19   R(10,40)                1.0854         calculate D2E/DX2 analytically  !
 ! R20   R(11,12)                1.4916         calculate D2E/DX2 analytically  !
 ! R21   R(11,18)                1.3951         calculate D2E/DX2 analytically  !
 ! R22   R(12,13)                1.5422         calculate D2E/DX2 analytically  !
 ! R23   R(12,20)                1.5063         calculate D2E/DX2 analytically  !
 ! R24   R(12,46)                1.2422         calculate D2E/DX2 analytically  !
 ! R25   R(13,14)                1.3723         calculate D2E/DX2 analytically  !
 ! R26   R(13,19)                1.4385         calculate D2E/DX2 analytically  !
 ! R27   R(14,42)                1.0863         calculate D2E/DX2 analytically  !
 ! R28   R(15,16)                1.3883         calculate D2E/DX2 analytically  !
 ! R29   R(15,37)                1.0856         calculate D2E/DX2 analytically  !
 ! R30   R(16,17)                1.4753         calculate D2E/DX2 analytically  !
 ! R31   R(16,23)                1.4414         calculate D2E/DX2 analytically  !
 ! R32   R(17,18)                1.439          calculate D2E/DX2 analytically  !
 ! R33   R(17,26)                1.3835         calculate D2E/DX2 analytically  !
 ! R34   R(19,22)                1.3581         calculate D2E/DX2 analytically  !
 ! R35   R(19,43)                1.0855         calculate D2E/DX2 analytically  !
 ! R36   R(20,21)                1.3467         calculate D2E/DX2 analytically  !
 ! R37   R(20,27)                1.5403         calculate D2E/DX2 analytically  !
 ! R38   R(21,22)                1.4509         calculate D2E/DX2 analytically  !
 ! R39   R(21,45)                1.0851         calculate D2E/DX2 analytically  !
 ! R40   R(22,44)                1.0845         calculate D2E/DX2 analytically  !
 ! R41   R(23,24)                1.3527         calculate D2E/DX2 analytically  !
 ! R42   R(23,36)                1.0851         calculate D2E/DX2 analytically  !
 ! R43   R(24,25)                1.4446         calculate D2E/DX2 analytically  !
 ! R44   R(24,35)                1.085          calculate D2E/DX2 analytically  !
 ! R45   R(25,26)                1.4405         calculate D2E/DX2 analytically  !
 ! R46   R(25,29)                1.3809         calculate D2E/DX2 analytically  !
 ! R47   R(26,27)                1.5399         calculate D2E/DX2 analytically  !
 ! R48   R(27,28)                1.5043         calculate D2E/DX2 analytically  !
 ! R49   R(27,33)                1.1058         calculate D2E/DX2 analytically  !
 ! R50   R(28,30)                1.3492         calculate D2E/DX2 analytically  !
 ! R51   R(28,32)                1.0841         calculate D2E/DX2 analytically  !
 ! R52   R(29,30)                1.4305         calculate D2E/DX2 analytically  !
 ! R53   R(29,34)                1.0846         calculate D2E/DX2 analytically  !
 ! R54   R(30,31)                1.0849         calculate D2E/DX2 analytically  !
 ! A1    A(2,1,5)              115.419          calculate D2E/DX2 analytically  !
 ! A2    A(2,1,15)             115.2608         calculate D2E/DX2 analytically  !
 ! A3    A(5,1,15)             128.8438         calculate D2E/DX2 analytically  !
 ! A4    A(1,2,3)              121.6087         calculate D2E/DX2 analytically  !
 ! A5    A(1,2,18)             126.4138         calculate D2E/DX2 analytically  !
 ! A6    A(3,2,18)             109.2785         calculate D2E/DX2 analytically  !
 ! A7    A(2,3,4)              124.0537         calculate D2E/DX2 analytically  !
 ! A8    A(2,3,7)              107.1939         calculate D2E/DX2 analytically  !
 ! A9    A(4,3,7)              124.9261         calculate D2E/DX2 analytically  !
 ! A10   A(3,4,6)              114.5161         calculate D2E/DX2 analytically  !
 ! A11   A(3,4,10)             114.4208         calculate D2E/DX2 analytically  !
 ! A12   A(6,4,10)             130.1526         calculate D2E/DX2 analytically  !
 ! A13   A(1,5,6)              122.2257         calculate D2E/DX2 analytically  !
 ! A14   A(1,5,38)             118.9631         calculate D2E/DX2 analytically  !
 ! A15   A(6,5,38)             118.6733         calculate D2E/DX2 analytically  !
 ! A16   A(4,6,5)              121.2185         calculate D2E/DX2 analytically  !
 ! A17   A(4,6,39)             119.8266         calculate D2E/DX2 analytically  !
 ! A18   A(5,6,39)             118.8288         calculate D2E/DX2 analytically  !
 ! A19   A(3,7,8)              120.2408         calculate D2E/DX2 analytically  !
 ! A20   A(3,7,11)             108.7042         calculate D2E/DX2 analytically  !
 ! A21   A(8,7,11)             126.1714         calculate D2E/DX2 analytically  !
 ! A22   A(7,8,9)              115.6903         calculate D2E/DX2 analytically  !
 ! A23   A(7,8,14)             115.9535         calculate D2E/DX2 analytically  !
 ! A24   A(9,8,14)             126.621          calculate D2E/DX2 analytically  !
 ! A25   A(8,9,10)             122.5315         calculate D2E/DX2 analytically  !
 ! A26   A(8,9,41)             118.7579         calculate D2E/DX2 analytically  !
 ! A27   A(10,9,41)            118.5169         calculate D2E/DX2 analytically  !
 ! A28   A(4,10,9)             120.9416         calculate D2E/DX2 analytically  !
 ! A29   A(4,10,40)            120.0158         calculate D2E/DX2 analytically  !
 ! A30   A(9,10,40)            118.8133         calculate D2E/DX2 analytically  !
 ! A31   A(7,11,12)            116.8284         calculate D2E/DX2 analytically  !
 ! A32   A(7,11,18)            107.9571         calculate D2E/DX2 analytically  !
 ! A33   A(12,11,18)           134.1366         calculate D2E/DX2 analytically  !
 ! A34   A(11,12,13)           111.1771         calculate D2E/DX2 analytically  !
 ! A35   A(11,12,20)           113.6137         calculate D2E/DX2 analytically  !
 ! A36   A(11,12,46)           125.5106         calculate D2E/DX2 analytically  !
 ! A37   A(13,12,20)           116.6174         calculate D2E/DX2 analytically  !
 ! A38   A(13,12,46)            54.9697         calculate D2E/DX2 analytically  !
 ! A39   A(20,12,46)           119.1364         calculate D2E/DX2 analytically  !
 ! A40   A(12,13,14)           121.598          calculate D2E/DX2 analytically  !
 ! A41   A(12,13,19)           116.1254         calculate D2E/DX2 analytically  !
 ! A42   A(14,13,19)           122.2733         calculate D2E/DX2 analytically  !
 ! A43   A(8,14,13)            121.717          calculate D2E/DX2 analytically  !
 ! A44   A(8,14,42)            119.0115         calculate D2E/DX2 analytically  !
 ! A45   A(13,14,42)           118.5495         calculate D2E/DX2 analytically  !
 ! A46   A(1,15,16)            121.5177         calculate D2E/DX2 analytically  !
 ! A47   A(1,15,37)            119.96           calculate D2E/DX2 analytically  !
 ! A48   A(16,15,37)           118.4546         calculate D2E/DX2 analytically  !
 ! A49   A(15,16,17)           122.9275         calculate D2E/DX2 analytically  !
 ! A50   A(15,16,23)           120.2782         calculate D2E/DX2 analytically  !
 ! A51   A(17,16,23)           116.7694         calculate D2E/DX2 analytically  !
 ! A52   A(16,17,18)           115.8296         calculate D2E/DX2 analytically  !
 ! A53   A(16,17,26)           121.2857         calculate D2E/DX2 analytically  !
 ! A54   A(18,17,26)           122.8689         calculate D2E/DX2 analytically  !
 ! A55   A(2,18,11)            106.7876         calculate D2E/DX2 analytically  !
 ! A56   A(2,18,17)            117.5904         calculate D2E/DX2 analytically  !
 ! A57   A(11,18,17)           134.7004         calculate D2E/DX2 analytically  !
 ! A58   A(13,19,22)           121.2335         calculate D2E/DX2 analytically  !
 ! A59   A(13,19,43)           118.3267         calculate D2E/DX2 analytically  !
 ! A60   A(22,19,43)           120.1787         calculate D2E/DX2 analytically  !
 ! A61   A(12,20,21)           119.3969         calculate D2E/DX2 analytically  !
 ! A62   A(12,20,27)           116.1775         calculate D2E/DX2 analytically  !
 ! A63   A(21,20,27)           123.6996         calculate D2E/DX2 analytically  !
 ! A64   A(20,21,22)           121.654          calculate D2E/DX2 analytically  !
 ! A65   A(20,21,45)           120.0066         calculate D2E/DX2 analytically  !
 ! A66   A(22,21,45)           118.3272         calculate D2E/DX2 analytically  !
 ! A67   A(19,22,21)           122.3354         calculate D2E/DX2 analytically  !
 ! A68   A(19,22,44)           119.5415         calculate D2E/DX2 analytically  !
 ! A69   A(21,22,44)           118.0968         calculate D2E/DX2 analytically  !
 ! A70   A(16,23,24)           121.6875         calculate D2E/DX2 analytically  !
 ! A71   A(16,23,36)           118.0802         calculate D2E/DX2 analytically  !
 ! A72   A(24,23,36)           120.2323         calculate D2E/DX2 analytically  !
 ! A73   A(23,24,25)           121.7225         calculate D2E/DX2 analytically  !
 ! A74   A(23,24,35)           120.4345         calculate D2E/DX2 analytically  !
 ! A75   A(25,24,35)           117.8128         calculate D2E/DX2 analytically  !
 ! A76   A(24,25,26)           118.4335         calculate D2E/DX2 analytically  !
 ! A77   A(24,25,29)           120.6425         calculate D2E/DX2 analytically  !
 ! A78   A(26,25,29)           120.8752         calculate D2E/DX2 analytically  !
 ! A79   A(17,26,25)           119.9872         calculate D2E/DX2 analytically  !
 ! A80   A(17,26,27)           120.4027         calculate D2E/DX2 analytically  !
 ! A81   A(25,26,27)           119.4539         calculate D2E/DX2 analytically  !
 ! A82   A(20,27,26)           118.2662         calculate D2E/DX2 analytically  !
 ! A83   A(20,27,28)           110.4316         calculate D2E/DX2 analytically  !
 ! A84   A(20,27,33)           102.933          calculate D2E/DX2 analytically  !
 ! A85   A(26,27,28)           113.5262         calculate D2E/DX2 analytically  !
 ! A86   A(26,27,33)           103.8169         calculate D2E/DX2 analytically  !
 ! A87   A(28,27,33)           106.3286         calculate D2E/DX2 analytically  !
 ! A88   A(27,28,30)           123.0058         calculate D2E/DX2 analytically  !
 ! A89   A(27,28,32)           116.4143         calculate D2E/DX2 analytically  !
 ! A90   A(30,28,32)           120.579          calculate D2E/DX2 analytically  !
 ! A91   A(25,29,30)           121.5964         calculate D2E/DX2 analytically  !
 ! A92   A(25,29,34)           119.1131         calculate D2E/DX2 analytically  !
 ! A93   A(30,29,34)           119.2168         calculate D2E/DX2 analytically  !
 ! A94   A(28,30,29)           121.2115         calculate D2E/DX2 analytically  !
 ! A95   A(28,30,31)           119.9166         calculate D2E/DX2 analytically  !
 ! A96   A(29,30,31)           118.8562         calculate D2E/DX2 analytically  !
 ! D1    D(5,1,2,3)              5.983          calculate D2E/DX2 analytically  !
 ! D2    D(5,1,2,18)           165.3215         calculate D2E/DX2 analytically  !
 ! D3    D(15,1,2,3)          -166.8093         calculate D2E/DX2 analytically  !
 ! D4    D(15,1,2,18)           -7.4709         calculate D2E/DX2 analytically  !
 ! D5    D(2,1,5,6)             -7.5374         calculate D2E/DX2 analytically  !
 ! D6    D(2,1,5,38)           176.7903         calculate D2E/DX2 analytically  !
 ! D7    D(15,1,5,6)           164.0856         calculate D2E/DX2 analytically  !
 ! D8    D(15,1,5,38)          -11.5866         calculate D2E/DX2 analytically  !
 ! D9    D(2,1,15,16)            3.4584         calculate D2E/DX2 analytically  !
 ! D10   D(2,1,15,37)         -179.5829         calculate D2E/DX2 analytically  !
 ! D11   D(5,1,15,16)         -168.1757         calculate D2E/DX2 analytically  !
 ! D12   D(5,1,15,37)            8.783          calculate D2E/DX2 analytically  !
 ! D13   D(1,2,3,4)              2.6299         calculate D2E/DX2 analytically  !
 ! D14   D(1,2,3,7)            161.4555         calculate D2E/DX2 analytically  !
 ! D15   D(18,2,3,4)          -159.8631         calculate D2E/DX2 analytically  !
 ! D16   D(18,2,3,7)            -1.0375         calculate D2E/DX2 analytically  !
 ! D17   D(1,2,18,11)         -162.2092         calculate D2E/DX2 analytically  !
 ! D18   D(1,2,18,17)            8.4121         calculate D2E/DX2 analytically  !
 ! D19   D(3,2,18,11)           -0.7725         calculate D2E/DX2 analytically  !
 ! D20   D(3,2,18,17)          169.8487         calculate D2E/DX2 analytically  !
 ! D21   D(2,3,4,6)             -9.3854         calculate D2E/DX2 analytically  !
 ! D22   D(2,3,4,10)           160.8241         calculate D2E/DX2 analytically  !
 ! D23   D(7,3,4,6)           -164.496          calculate D2E/DX2 analytically  !
 ! D24   D(7,3,4,10)             5.7135         calculate D2E/DX2 analytically  !
 ! D25   D(2,3,7,8)           -154.3033         calculate D2E/DX2 analytically  !
 ! D26   D(2,3,7,11)             2.4241         calculate D2E/DX2 analytically  !
 ! D27   D(4,3,7,8)              4.2886         calculate D2E/DX2 analytically  !
 ! D28   D(4,3,7,11)           161.0161         calculate D2E/DX2 analytically  !
 ! D29   D(3,4,6,5)              7.587          calculate D2E/DX2 analytically  !
 ! D30   D(3,4,6,39)          -176.5429         calculate D2E/DX2 analytically  !
 ! D31   D(10,4,6,5)          -160.7254         calculate D2E/DX2 analytically  !
 ! D32   D(10,4,6,39)           15.1446         calculate D2E/DX2 analytically  !
 ! D33   D(3,4,10,9)            -8.3175         calculate D2E/DX2 analytically  !
 ! D34   D(3,4,10,40)          177.2498         calculate D2E/DX2 analytically  !
 ! D35   D(6,4,10,9)           160.004          calculate D2E/DX2 analytically  !
 ! D36   D(6,4,10,40)          -14.4288         calculate D2E/DX2 analytically  !
 ! D37   D(1,5,6,4)              0.657          calculate D2E/DX2 analytically  !
 ! D38   D(1,5,6,39)          -175.2534         calculate D2E/DX2 analytically  !
 ! D39   D(38,5,6,4)           176.3413         calculate D2E/DX2 analytically  !
 ! D40   D(38,5,6,39)            0.431          calculate D2E/DX2 analytically  !
 ! D41   D(3,7,8,9)            -11.1342         calculate D2E/DX2 analytically  !
 ! D42   D(3,7,8,14)           154.8775         calculate D2E/DX2 analytically  !
 ! D43   D(11,7,8,9)          -163.5149         calculate D2E/DX2 analytically  !
 ! D44   D(11,7,8,14)            2.4969         calculate D2E/DX2 analytically  !
 ! D45   D(3,7,11,12)         -172.7578         calculate D2E/DX2 analytically  !
 ! D46   D(3,7,11,18)           -2.9433         calculate D2E/DX2 analytically  !
 ! D47   D(8,7,11,12)          -17.7717         calculate D2E/DX2 analytically  !
 ! D48   D(8,7,11,18)          152.0428         calculate D2E/DX2 analytically  !
 ! D49   D(7,8,9,10)             8.5267         calculate D2E/DX2 analytically  !
 ! D50   D(7,8,9,41)          -176.6096         calculate D2E/DX2 analytically  !
 ! D51   D(14,8,9,10)         -155.7612         calculate D2E/DX2 analytically  !
 ! D52   D(14,8,9,41)           19.1024         calculate D2E/DX2 analytically  !
 ! D53   D(7,8,14,13)           -0.6347         calculate D2E/DX2 analytically  !
 ! D54   D(7,8,14,42)         -170.7559         calculate D2E/DX2 analytically  !
 ! D55   D(9,8,14,13)          163.6174         calculate D2E/DX2 analytically  !
 ! D56   D(9,8,14,42)           -6.5038         calculate D2E/DX2 analytically  !
 ! D57   D(8,9,10,4)             1.4117         calculate D2E/DX2 analytically  !
 ! D58   D(8,9,10,40)          175.9102         calculate D2E/DX2 analytically  !
 ! D59   D(41,9,10,4)         -173.4637         calculate D2E/DX2 analytically  !
 ! D60   D(41,9,10,40)           1.0348         calculate D2E/DX2 analytically  !
 ! D61   D(7,11,12,13)          27.8082         calculate D2E/DX2 analytically  !
 ! D62   D(7,11,12,20)         161.7363         calculate D2E/DX2 analytically  !
 ! D63   D(7,11,12,46)         -33.5204         calculate D2E/DX2 analytically  !
 ! D64   D(18,11,12,13)       -138.6358         calculate D2E/DX2 analytically  !
 ! D65   D(18,11,12,20)         -4.7077         calculate D2E/DX2 analytically  !
 ! D66   D(18,11,12,46)        160.0356         calculate D2E/DX2 analytically  !
 ! D67   D(7,11,18,2)            2.2367         calculate D2E/DX2 analytically  !
 ! D68   D(7,11,18,17)        -166.0395         calculate D2E/DX2 analytically  !
 ! D69   D(12,11,18,2)         169.5349         calculate D2E/DX2 analytically  !
 ! D70   D(12,11,18,17)          1.2587         calculate D2E/DX2 analytically  !
 ! D71   D(11,12,13,14)        -27.6308         calculate D2E/DX2 analytically  !
 ! D72   D(11,12,13,19)        151.7213         calculate D2E/DX2 analytically  !
 ! D73   D(20,12,13,14)       -160.0582         calculate D2E/DX2 analytically  !
 ! D74   D(20,12,13,19)         19.294          calculate D2E/DX2 analytically  !
 ! D75   D(46,12,13,14)         91.6539         calculate D2E/DX2 analytically  !
 ! D76   D(46,12,13,19)        -88.994          calculate D2E/DX2 analytically  !
 ! D77   D(11,12,20,21)       -144.6599         calculate D2E/DX2 analytically  !
 ! D78   D(11,12,20,27)         44.7388         calculate D2E/DX2 analytically  !
 ! D79   D(13,12,20,21)        -13.353          calculate D2E/DX2 analytically  !
 ! D80   D(13,12,20,27)        176.0456         calculate D2E/DX2 analytically  !
 ! D81   D(46,12,20,21)         49.5357         calculate D2E/DX2 analytically  !
 ! D82   D(46,12,20,27)       -121.0656         calculate D2E/DX2 analytically  !
 ! D83   D(12,13,14,8)          14.4175         calculate D2E/DX2 analytically  !
 ! D84   D(12,13,14,42)       -175.4173         calculate D2E/DX2 analytically  !
 ! D85   D(19,13,14,8)        -164.8946         calculate D2E/DX2 analytically  !
 ! D86   D(19,13,14,42)          5.2707         calculate D2E/DX2 analytically  !
 ! D87   D(12,13,19,22)        -14.5751         calculate D2E/DX2 analytically  !
 ! D88   D(12,13,19,43)        171.2848         calculate D2E/DX2 analytically  !
 ! D89   D(14,13,19,22)        164.7723         calculate D2E/DX2 analytically  !
 ! D90   D(14,13,19,43)         -9.3679         calculate D2E/DX2 analytically  !
 ! D91   D(1,15,16,17)          -0.851          calculate D2E/DX2 analytically  !
 ! D92   D(1,15,16,23)         177.2742         calculate D2E/DX2 analytically  !
 ! D93   D(37,15,16,17)       -177.854          calculate D2E/DX2 analytically  !
 ! D94   D(37,15,16,23)          0.2712         calculate D2E/DX2 analytically  !
 ! D95   D(15,16,17,18)          1.5811         calculate D2E/DX2 analytically  !
 ! D96   D(15,16,17,26)       -179.823          calculate D2E/DX2 analytically  !
 ! D97   D(23,16,17,18)       -176.6054         calculate D2E/DX2 analytically  !
 ! D98   D(23,16,17,26)          1.9904         calculate D2E/DX2 analytically  !
 ! D99   D(15,16,23,24)       -179.461          calculate D2E/DX2 analytically  !
 ! D100  D(15,16,23,36)          0.511          calculate D2E/DX2 analytically  !
 ! D101  D(17,16,23,24)         -1.2235         calculate D2E/DX2 analytically  !
 ! D102  D(17,16,23,36)        178.7485         calculate D2E/DX2 analytically  !
 ! D103  D(16,17,18,2)          -4.8272         calculate D2E/DX2 analytically  !
 ! D104  D(16,17,18,11)        162.4935         calculate D2E/DX2 analytically  !
 ! D105  D(26,17,18,2)         176.6015         calculate D2E/DX2 analytically  !
 ! D106  D(26,17,18,11)        -16.0778         calculate D2E/DX2 analytically  !
 ! D107  D(16,17,26,25)          0.1294         calculate D2E/DX2 analytically  !
 ! D108  D(16,17,26,27)        175.562          calculate D2E/DX2 analytically  !
 ! D109  D(18,17,26,25)        178.6246         calculate D2E/DX2 analytically  !
 ! D110  D(18,17,26,27)         -5.9428         calculate D2E/DX2 analytically  !
 ! D111  D(13,19,22,21)          3.1639         calculate D2E/DX2 analytically  !
 ! D112  D(13,19,22,44)       -174.9363         calculate D2E/DX2 analytically  !
 ! D113  D(43,19,22,21)        177.1966         calculate D2E/DX2 analytically  !
 ! D114  D(43,19,22,44)         -0.9036         calculate D2E/DX2 analytically  !
 ! D115  D(12,20,21,22)          1.9438         calculate D2E/DX2 analytically  !
 ! D116  D(12,20,21,45)       -176.7655         calculate D2E/DX2 analytically  !
 ! D117  D(27,20,21,22)        171.7979         calculate D2E/DX2 analytically  !
 ! D118  D(27,20,21,45)         -6.9113         calculate D2E/DX2 analytically  !
 ! D119  D(12,20,27,26)        -82.8941         calculate D2E/DX2 analytically  !
 ! D120  D(12,20,27,28)        143.9539         calculate D2E/DX2 analytically  !
 ! D121  D(12,20,27,33)         30.7893         calculate D2E/DX2 analytically  !
 ! D122  D(21,20,27,26)        106.9526         calculate D2E/DX2 analytically  !
 ! D123  D(21,20,27,28)        -26.1994         calculate D2E/DX2 analytically  !
 ! D124  D(21,20,27,33)       -139.364          calculate D2E/DX2 analytically  !
 ! D125  D(20,21,22,19)          3.8446         calculate D2E/DX2 analytically  !
 ! D126  D(20,21,22,44)       -178.029          calculate D2E/DX2 analytically  !
 ! D127  D(45,21,22,19)       -177.4252         calculate D2E/DX2 analytically  !
 ! D128  D(45,21,22,44)          0.7012         calculate D2E/DX2 analytically  !
 ! D129  D(16,23,24,25)         -1.6605         calculate D2E/DX2 analytically  !
 ! D130  D(16,23,24,35)       -179.6175         calculate D2E/DX2 analytically  !
 ! D131  D(36,23,24,25)        178.3681         calculate D2E/DX2 analytically  !
 ! D132  D(36,23,24,35)          0.4111         calculate D2E/DX2 analytically  !
 ! D133  D(23,24,25,26)          3.7994         calculate D2E/DX2 analytically  !
 ! D134  D(23,24,25,29)       -173.6822         calculate D2E/DX2 analytically  !
 ! D135  D(35,24,25,26)       -178.1921         calculate D2E/DX2 analytically  !
 ! D136  D(35,24,25,29)          4.3262         calculate D2E/DX2 analytically  !
 ! D137  D(24,25,26,17)         -2.9676         calculate D2E/DX2 analytically  !
 ! D138  D(24,25,26,27)       -178.4437         calculate D2E/DX2 analytically  !
 ! D139  D(29,25,26,17)        174.5079         calculate D2E/DX2 analytically  !
 ! D140  D(29,25,26,27)         -0.9681         calculate D2E/DX2 analytically  !
 ! D141  D(24,25,29,30)        173.9856         calculate D2E/DX2 analytically  !
 ! D142  D(24,25,29,34)         -2.8688         calculate D2E/DX2 analytically  !
 ! D143  D(26,25,29,30)         -3.4342         calculate D2E/DX2 analytically  !
 ! D144  D(26,25,29,34)        179.7115         calculate D2E/DX2 analytically  !
 ! D145  D(17,26,27,20)         58.0135         calculate D2E/DX2 analytically  !
 ! D146  D(17,26,27,28)       -170.1992         calculate D2E/DX2 analytically  !
 ! D147  D(17,26,27,33)        -55.1852         calculate D2E/DX2 analytically  !
 ! D148  D(25,26,27,20)       -126.5296         calculate D2E/DX2 analytically  !
 ! D149  D(25,26,27,28)          5.2576         calculate D2E/DX2 analytically  !
 ! D150  D(25,26,27,33)        120.2717         calculate D2E/DX2 analytically  !
 ! D151  D(20,27,28,30)        129.6561         calculate D2E/DX2 analytically  !
 ! D152  D(20,27,28,32)        -50.0013         calculate D2E/DX2 analytically  !
 ! D153  D(26,27,28,30)         -5.8526         calculate D2E/DX2 analytically  !
 ! D154  D(26,27,28,32)        174.4901         calculate D2E/DX2 analytically  !
 ! D155  D(33,27,28,30)       -119.3658         calculate D2E/DX2 analytically  !
 ! D156  D(33,27,28,32)         60.9768         calculate D2E/DX2 analytically  !
 ! D157  D(27,28,30,29)          1.9659         calculate D2E/DX2 analytically  !
 ! D158  D(27,28,30,31)       -179.494          calculate D2E/DX2 analytically  !
 ! D159  D(32,28,30,29)       -178.3905         calculate D2E/DX2 analytically  !
 ! D160  D(32,28,30,31)          0.1496         calculate D2E/DX2 analytically  !
 ! D161  D(25,29,30,28)          3.0533         calculate D2E/DX2 analytically  !
 ! D162  D(25,29,30,31)       -175.5019         calculate D2E/DX2 analytically  !
 ! D163  D(34,29,30,28)        179.9045         calculate D2E/DX2 analytically  !
 ! D164  D(34,29,30,31)          1.3493         calculate D2E/DX2 analytically  !
 --------------------------------------------------------------------------------
 Trust Radius=3.00D-01 FncErr=1.00D-07 GrdErr=1.00D-06 EigMax=2.50D+02 EigMin=1.00D-04
 Number of steps in this run=    276 maximum allowed number of steps=    276.
 Search for a saddle point of order  1.
 GradGradGradGradGradGradGradGradGradGradGradGradGradGradGradGradGradGrad

                          Input orientation:                          
 ---------------------------------------------------------------------
 Center     Atomic      Atomic             Coordinates (Angstroms)
 Number     Number       Type             X           Y           Z
 ---------------------------------------------------------------------
      1          6           0       -1.626800   -2.713200    0.026800
      2          6           0       -1.475900   -1.423100   -0.443800
      3          6           0       -2.564900   -0.554400   -0.562700
      4          6           0       -3.861700   -0.875200   -0.179700
      5          6           0       -2.987400   -3.134400    0.253100
      6          6           0       -4.058000   -2.257400    0.161900
      7          6           0       -2.048900    0.750100   -0.641800
      8          6           0       -2.819600    1.831900   -0.240900
      9          6           0       -4.208900    1.551100    0.004000
     10          6           0       -4.718500    0.258000    0.020700
     11          6           0       -0.613600    0.679600   -0.627700
     12          6           0        0.123100    1.973400   -0.536500
     13          6           0       -0.716300    3.042300    0.192400
     14          6           0       -2.088200    3.010500    0.180500
     15          6           0       -0.405800   -3.386000    0.373600
     16          6           0        0.822300   -2.742200    0.305100
     17          6           0        0.970800   -1.343500   -0.140000
     18          6           0       -0.250200   -0.658300   -0.472300
     19          6           0        0.022400    4.058900    0.892500
     20          6           0        1.555000    1.822500   -0.094100
     21          6           0        2.108300    2.768600    0.688400
     22          6           0        1.347300    3.913300    1.152900
     23          6           0        2.024200   -3.424100    0.715100
     24          6           0        3.234000   -2.820600    0.670400
     25          6           0        3.392500   -1.472400    0.176400
     26          6           0        2.212500   -0.736200   -0.198700
     27          6           0        2.356800    0.689600   -0.762100
     28          6           0        3.785700    1.110600   -0.971900
     29          6           0        4.649900   -0.923900    0.018700
     30          6           0        4.837600    0.358800   -0.586200
     31          1           0        5.848300    0.715200   -0.755100
     32          1           0        3.940200    2.069800   -1.452900
     33          1           0        1.901300    0.623600   -1.767600
     34          1           0        5.518600   -1.501700    0.315000
     35          1           0        4.126600   -3.355200    0.978200
     36          1           0        1.936600   -4.447100    1.066100
     37          1           0       -0.435300   -4.405600    0.745200
     38          1           0       -3.175600   -4.154600    0.572500
     39          1           0       -5.050300   -2.614300    0.419000
     40          1           0       -5.762600    0.110500    0.277800
     41          1           0       -4.869300    2.371800    0.265900
     42          1           0       -2.630500    3.828700    0.645700
     43          1           0       -0.523000    4.906500    1.295500
     44          1           0        1.859100    4.657200    1.753600
     45          1           0        3.153800    2.696900    0.969700
     46          1           0       -0.246250    3.050530   -1.032810
 ---------------------------------------------------------------------
                    Distance matrix (angstroms):
                    1          2          3          4          5
     1  C    0.000000
     2  C    1.381518   0.000000
     3  C    2.426512   1.398105   0.000000
     4  C    2.900976   2.462110   1.389709   0.000000
     5  C    1.442170   2.387226   2.738692   2.460833   0.000000
     6  C    2.477244   2.780318   2.377941   1.437255   1.386950
     7  C    3.552413   2.256176   1.405074   2.478181   4.095237
     8  C    4.706630   3.527283   2.421333   2.901398   4.993629
     9  C    4.985180   4.063949   2.730754   2.457890   4.848507
    10  C    4.287969   3.681890   2.374519   1.434716   3.815638
    11  C    3.600838   2.280072   2.309665   3.628810   4.577918
    12  C    5.034250   3.755211   3.689960   4.911258   6.032271
    13  C    5.829427   4.574007   4.113848   5.037738   6.581277
    14  C    5.744324   4.519012   3.672615   4.286457   6.210767
    15  C    1.436583   2.380385   3.681892   4.307378   2.596629
    16  C    2.465032   2.753652   4.124642   5.065627   3.830188
    17  C    2.941331   2.466773   3.647263   4.855300   4.362247
    18  C    2.523240   1.445016   2.318794   3.629820   3.761587
    19  C    7.023577   5.838058   5.485824   6.370337   7.823765
    20  C    5.541754   4.454499   4.779416   6.051905   6.732370
    21  C    6.666245   5.630161   5.869104   7.047821   7.810317
    22  C    7.350093   6.244764   6.181338   7.199947   8.322820
    23  C    3.782716   4.194967   5.561276   6.476216   5.041181
    24  C    4.904399   5.037619   6.346924   7.406498   6.243271
    25  C    5.172556   4.907993   6.072858   7.287446   6.593273
    26  C    4.324304   3.759814   4.794695   6.075820   5.744079
    27  C    5.298158   4.387984   5.080396   6.438752   6.649367
    28  C    6.701791   5.863698   6.577978   7.940637   8.086750
    29  C    6.526762   6.163484   7.247613   8.514051   7.954219
    30  C    7.183413   6.561686   7.458652   8.795784   8.610313
    31  H    8.260897   7.636304   8.510631   9.856194   9.690484
    32  H    7.487195   6.523249   7.070729   8.435858   8.830956
    33  H    5.177026   4.164962   4.773511   6.162791   6.488850
    34  H    7.253105   7.035978   8.186007   9.414205   8.661500
    35  H    5.866766   6.094514   7.415863   8.444174   7.154266
    36  H    4.096874   4.803075   6.170057   6.923205   5.160419
    37  H    2.190888   3.375185   4.591028   5.005935   2.893324
    38  H    2.184995   3.373861   3.824013   3.433803   1.085469
    39  H    3.447311   3.865193   3.374039   2.189904   2.133913
    40  H    5.014093   4.609602   3.372509   2.189596   4.269862
    41  H    6.035578   5.140049   3.815689   3.428823   5.818930
    42  H    6.647323   5.486485   4.547098   4.931918   6.983285
    43  H    7.803064   6.633025   6.119125   6.837484   8.474428
    44  H    8.334035   7.274671   7.217880   8.189789   9.297800
    45  H    7.280960   6.356611   6.754460   7.956020   8.498936
    46  H    6.020737   4.676787   4.311921   5.404686   6.886278
                    6          7          8          9         10
     6  C    0.000000
     7  C    3.705060   0.000000
     8  C    4.291650   1.387440   0.000000
     9  C    3.814758   2.392542   1.438395   0.000000
    10  C    2.604503   2.794250   2.480205   1.389992   0.000000
    11  C    4.594924   1.437100   2.518699   3.752964   4.177125
    12  C    5.989076   2.495022   2.960893   4.385966   5.166639
    13  C    6.265358   2.779549   2.465094   3.802292   4.878464
    14  C    5.624165   2.405645   1.449697   2.580382   3.810547
    15  C    3.828462   4.564881   5.781913   6.243007   5.657089
    16  C    4.906411   4.619152   5.872303   6.620881   6.307341
    17  C    5.120077   3.708578   4.945754   5.935380   5.912593
    18  C    4.178357   2.290773   3.585590   4.558466   4.587849
    19  C    7.555070   4.194344   3.784321   4.998239   6.138649
    20  C    6.943838   3.799752   4.377073   5.771120   6.466656
    21  C    7.972524   4.808959   5.101490   6.469755   7.304391
    22  C    8.262983   4.976038   4.861889   6.145837   7.171961
    23  C    6.217747   5.987927   7.211232   8.006860   7.713887
    24  C    7.331373   6.510054   7.689102   8.657518   8.552318
    25  C    7.491755   5.934458   7.048597   8.182454   8.294989
    26  C    6.462449   4.534860   5.649686   6.819619   7.005379
    27  C    7.119568   4.407757   5.326501   6.666146   7.131544
    28  C    8.611188   5.855039   6.684656   8.065981   8.604278
    29  C    8.810576   6.936314   7.965881   9.198053   9.442659
    30  C    9.302465   6.897832   7.805253   9.143800   9.575883
    31  H   10.383257   7.898090   8.754651  10.120387  10.605101
    32  H    9.235986   6.186179   6.871713   8.294543   8.968121
    33  H    6.894664   4.109441   5.106633   6.429103   6.866836
    34  H    9.607590   7.953183   8.997082  10.200028  10.391409
    35  H    8.298144   7.590434   8.754536   9.721183   9.602490
    36  H    6.445742   6.768458   7.984706   8.652955   8.217127
    37  H    4.251936   5.577519   6.750088   7.090255   6.373372
    38  H    2.132273   5.176877   6.051986   5.826312   4.707023
    39  H    1.085420   4.631726   5.017986   4.269747   2.918705
    40  H    2.919939   3.878959   3.448698   2.136417   1.085358
    41  H    4.700906   3.377645   2.179360   1.085481   2.133311
    42  H    6.269963   3.387284   2.192950   2.844396   4.183332
    43  H    8.068627   4.832925   4.133771   5.149033   6.390296
    44  H    9.238900   6.022942   5.818125   7.037726   8.100662
    45  H    8.786791   5.784034   6.155915   7.513640   8.295899
    46  H    6.643109   2.948629   2.955387   4.361864   5.376721
                   11         12         13         14         15
    11  C    0.000000
    12  C    1.491631   0.000000
    13  C    2.503091   1.542217   0.000000
    14  C    2.874148   2.545489   1.372320   0.000000
    15  C    4.192241   5.461793   6.438345   6.616870   0.000000
    16  C    3.826309   4.840873   5.986688   6.448263   1.388308
    17  C    2.615551   3.446394   4.710843   5.330808   2.516072
    18  C    1.395057   2.658819   3.788603   4.155055   2.860088
    19  C    3.759677   2.530117   1.438504   2.461853   7.475236
    20  C    2.508740   1.506262   2.593993   3.841830   5.584976
    21  C    3.674885   2.464496   2.880849   4.234039   6.655742
    22  C    4.180010   2.848851   2.437139   3.682834   7.547215
    23  C    5.059788   5.857789   7.042577   7.655175   2.454175
    24  C    5.361016   5.840954   7.085686   7.909965   3.695391
    25  C    4.618064   4.803201   6.104507   7.080571   4.257680
    26  C    3.189886   3.438260   4.796654   5.716430   3.768881
    27  C    2.973456   2.586204   3.986253   5.102264   5.052949
    28  C    4.433743   3.787959   5.035381   6.280155   6.292730
    29  C    5.540169   5.403195   6.675104   7.804337   5.634536
    30  C    5.460789   4.983564   6.217169   7.455605   6.514444
    31  H    6.463254   5.865899   7.029020   8.314552   7.563569
    32  H    4.832257   3.926746   5.033464   6.316211   7.210379
    33  H    2.761744   2.549424   4.067375   5.040684   5.097484
    34  H    6.576521   6.474009   7.716019   8.845419   6.217116
    35  H    6.428687   6.834933   8.062206   8.932088   4.572651
    36  H    5.971225   6.861482   7.993269   8.520511   2.663142
    37  H    5.270285   6.530406   7.473671   7.619022   1.085606
    38  H    5.601233   7.047247   7.614985   7.257738   2.881336
    39  H    5.624026   6.980261   7.129658   6.361548   4.708393
    40  H    5.258898   6.226953   5.836770   4.681953   6.397656
    41  H    4.666159   5.072142   4.207420   2.854776   7.286062
    42  H    3.950476   3.524493   2.118506   1.086256   7.554815
    43  H    4.644738   3.518060   2.174727   2.699610   8.344411
    44  H    5.254154   3.932052   3.417299   4.557131   8.469193
    45  H    4.562290   3.460814   3.962470   5.310343   7.073030
    46  H    2.433181   1.242156   1.312309   2.206015   6.590323
                   16         17         18         19         20
    16  C    0.000000
    17  C    1.475306   0.000000
    18  C    2.469260   1.439015   0.000000
    19  C    6.873124   5.581348   4.918228   0.000000
    20  C    4.640334   3.219775   3.091302   2.885087   0.000000
    21  C    5.671828   4.346207   4.318957   2.461201   1.346682
    22  C    6.729790   5.426536   5.108112   1.358075   2.443275
    23  C    1.441406   2.483897   3.772594   7.748159   5.329331
    24  C    2.440469   2.821462   4.256871   7.595474   4.996186
    25  C    2.869649   2.445681   3.788513   6.516568   3.782320
    26  C    2.492089   1.383502   2.479076   5.383330   2.643897
    27  C    3.907794   2.538011   2.949113   4.420329   1.540315
    28  C    5.025588   3.826007   4.434760   5.131363   2.500671
    29  C    4.247206   3.706350   4.931795   6.856061   4.139305
    30  C    5.151044   4.248419   5.189718   6.250076   3.627677
    31  H    6.191794   5.329784   6.257650   6.916359   4.482796
    32  H    5.997267   4.710802   5.095445   4.980620   2.756206
    33  H    4.097430   2.717424   2.819578   4.733675   2.087555
    34  H    4.857383   4.573241   5.883045   7.839770   5.189200
    35  H    3.427423   3.905942   5.341685   8.474708   5.879756
    36  H    2.174274   3.466955   4.637216   8.720455   6.387454
    37  H    2.131231   3.483842   3.944468   8.478145   6.592037
    38  H    4.248480   5.059898   4.676931   8.819931   7.651709
    39  H    5.875097   6.179082   5.259402   8.395718   7.973610
    40  H    7.176319   6.901257   5.616071   7.030928   7.524395
    41  H    7.651722   6.933612   5.573377   5.212261   6.457783
    42  H    7.430650   6.351247   5.200858   2.674281   4.700059
    43  H    7.829006   6.584421   5.845215   1.085493   3.969903
    44  H    7.610797   6.354778   6.136637   2.114929   3.397351
    45  H    5.954947   4.724590   4.992389   3.415651   2.110073
    46  H    6.040490   4.646054   3.750947   2.189932   2.373549
                   21         22         23         24         25
    21  C    0.000000
    22  C    1.450937   0.000000
    23  C    6.193329   7.381551   0.000000
    24  C    5.701463   7.009840   1.352711   0.000000
    25  C    4.460650   5.843129   2.443681   1.444577   0.000000
    26  C    3.616826   4.918663   2.845223   2.478613   1.440517
    27  C    2.547144   3.883112   4.383523   3.891406   2.574432
    28  C    2.884308   4.279684   5.149015   4.296028   2.853960
    29  C    4.532415   5.965910   3.691920   2.454986   1.380861
    30  C    3.857567   5.276470   4.890699   3.776130   2.454214
    31  H    4.504192   5.841858   5.824005   4.622607   3.418222
    32  H    2.903333   4.112398   6.209204   5.378023   3.937229
    33  H    3.267386   4.433775   4.750029   4.425206   3.224287
    34  H    5.477685   6.886512   4.008308   2.661805   2.130814
    35  H    6.454335   7.783709   2.119919   1.085022   2.174103
    36  H    7.227618   8.381593   1.085082   2.117859   3.429293
    37  H    7.611982   8.517510   2.648280   3.997697   4.855847
    38  H    8.709979   9.267389   5.252798   6.547680   7.105704
    39  H    8.960678   9.169376   7.126851   8.290681   8.523125
    40  H    8.317761   8.110349   8.562645   9.470179   9.291486
    41  H    7.001633   6.465996   9.017460   9.632658   9.112805
    42  H    4.856116   4.010898   8.618246   8.866012   8.037315
    43  H    3.444260   2.122452   8.730635   8.614747   7.567952
    44  H    2.182559   1.084512   8.149426   7.679920   6.512363
    45  H    1.085053   2.185551   6.229563   5.526194   4.250808
    46  H    2.930180   2.839208   7.080322   7.034432   5.929552
                   26         27         28         29         30
    26  C    0.000000
    27  C    1.539853   0.000000
    28  C    2.546265   1.504331   0.000000
    29  C    2.454264   2.910556   2.422255   0.000000
    30  C    2.870598   2.508932   1.349245   1.430543   0.000000
    31  H    3.954135   3.491601   2.111318   2.172919   1.084925
    32  H    3.525848   2.211179   1.084111   3.410501   2.117550
    33  H    2.099369   1.105833   2.102682   3.624973   3.176111
    34  H    3.432226   3.994862   3.388682   1.084567   2.176553
    35  H    3.450802   4.745655   4.884923   2.665652   4.092269
    36  H    3.930219   5.468507   6.201665   4.568586   5.851715
    37  H    4.622368   6.002403   7.154980   6.205586   7.230187
    38  H    6.427428   7.473612   8.863814   8.484254   9.269560
    39  H    7.527090   8.196089   9.689395   9.854520  10.374021
    40  H    8.034063   8.206181   9.681528  10.466961  10.638251
    41  H    7.747736   7.490200   8.833561  10.076602   9.949982
    42  H    6.708649   6.058796   7.153483   8.716912   8.326482
    43  H    6.446368   5.505380   6.173723   7.898270   7.277252
    44  H    5.746750   4.724225   4.870165   6.476660   5.729081
    45  H    3.746649   2.768320   2.585625   4.031490   3.274556
    46  H    4.591352   3.524648   4.474780   6.393282   5.769784
                   31         32         33         34         35
    31  H    0.000000
    32  H    2.441866   0.000000
    33  H    4.075826   2.519453   0.000000
    34  H    2.483639   4.286307   4.683907   0.000000
    35  H    4.747287   5.947741   5.321863   2.411008   0.000000
    36  H    6.728113   7.268408   5.808881   4.697899   2.448688
    37  H    8.243611   8.118340   6.088244   6.638270   4.687063
    38  H   10.339644   9.668506   7.354059   9.093586   7.357021
    39  H   11.456158  10.308923   7.974331  10.627810   9.223727
    40  H   11.672427  10.048806   7.948729  11.395878  10.502281
    41  H   10.892829   8.980689   7.282331  11.086698  10.687943
    42  H    9.140360   7.118423   6.052594   9.743221   9.867998
    43  H    7.897178   5.959926   5.796813   8.861565   9.485523
    44  H    6.143831   4.615979   5.354490   7.307090   8.363095
    45  H    3.763296   2.623103   3.655153   4.863039   6.129790
    46  H    6.532567   4.320263   3.322932   7.468125   8.012450
                   36         37         38         39         40
    36  H    0.000000
    37  H    2.393869   0.000000
    38  H    5.144296   2.757185   0.000000
    39  H    7.252218   4.961188   2.431170   0.000000
    40  H    8.981693   6.999553   4.997049   2.819901   0.000000
    41  H    9.667367   8.113152   6.749557   4.991733   2.431379
    42  H    9.461713   8.522470   8.002223   6.886151   4.875491
    43  H    9.674300   9.328758   9.469031   8.821969   7.175705
    44  H    9.130550   9.402951  10.217192  10.119075   8.996709
    45  H    7.247593   7.961002   9.336066   9.788737   9.309693
    46  H    8.086081   7.667525   7.941789   7.568154   6.386830
                   41         42         43         44         45
    41  H    0.000000
    42  H    2.697968   0.000000
    43  H    5.135670   2.454679   0.000000
    44  H    7.260005   4.697910   2.438525   0.000000
    45  H    8.060469   5.902887   4.302015   2.476595   0.000000
    46  H    4.849733   3.017879   2.990358   3.844212   3.961747
                   46
    46  H    0.000000
 Stoichiometry    C30H16
 Framework group  C1[X(C30H16)]
 Deg. of freedom   132
 Full point group                 C1      NOp   1
 Largest Abelian subgroup         C1      NOp   1
 Largest concise Abelian subgroup C1      NOp   1
                         Standard orientation:                         
 ---------------------------------------------------------------------
 Center     Atomic      Atomic             Coordinates (Angstroms)
 Number     Number       Type             X           Y           Z
 ---------------------------------------------------------------------
      1          6           0       -1.618119   -2.720528    0.026674
      2          6           0       -1.470494   -1.430417   -0.444935
      3          6           0       -2.561619   -0.564419   -0.564054
      4          6           0       -3.857498   -0.888044   -0.180316
      5          6           0       -2.977618   -3.144821    0.253811
      6          6           0       -4.050352   -2.270458    0.162379
      7          6           0       -2.048779    0.741256   -0.644315
      8          6           0       -2.821916    1.821501   -0.243915
      9          6           0       -4.210444    1.537552    0.001730
     10          6           0       -4.716936    0.243247    0.019580
     11          6           0       -0.613308    0.674207   -0.630719
     12          6           0        0.120323    1.969837   -0.540758
     13          6           0       -0.721357    3.037259    0.187679
     14          6           0       -2.093181    3.002162    0.176333
     15          6           0       -0.395376   -3.390143    0.373498
     16          6           0        0.831151   -2.743451    0.304048
     17          6           0        0.976125   -1.344728   -0.142141
     18          6           0       -0.246642   -0.662703   -0.474473
     19          6           0        0.015173    4.056144    0.886743
     20          6           0        1.552751    1.822696   -0.098801
     21          6           0        2.104082    2.770697    0.682787
     22          6           0        1.340519    3.913912    1.146738
     23          6           0        2.034840   -3.422165    0.714085
     24          6           0        3.243172   -2.815800    0.668472
     25          6           0        3.398249   -1.467589    0.173417
     26          6           0        2.216343   -0.734497   -0.201769
     27          6           0        2.357007    0.691229   -0.766276
     28          6           0        3.784813    1.115498   -0.976939
     29          6           0        4.654270   -0.916192    0.014826
     30          6           0        4.838661    0.366507   -0.591092
     31          1           0        5.848438    0.725204   -0.760646
     32          1           0        3.936827    2.074711   -1.458705
     33          1           0        1.901279    0.623395   -1.771550
     34          1           0        5.524467   -1.491689    0.311216
     35          1           0        4.137170   -3.348031    0.976321
     36          1           0        1.949828   -4.445113    1.065873
     37          1           0       -0.422288   -4.409536    0.745861
     38          1           0       -3.163248   -4.165233    0.574036
     39          1           0       -5.041695   -2.629546    0.420126
     40          1           0       -5.760580    0.093434    0.277193
     41          1           0       -4.872709    2.356859    0.263280
     42          1           0       -2.637262    3.819402    0.641140
     43          1           0       -0.532102    4.902731    1.289329
     44          1           0        1.850765    4.659480    1.746691
     45          1           0        3.149859    2.701712    0.963736
     46          1           0       -0.251800    3.045712   -1.037719
 ---------------------------------------------------------------------
 Rotational constants (GHZ):           0.2528500           0.1733068           0.1076716
 Standard basis: 6-311+G(d,p) (5D, 7F)
 There are   786 symmetry adapted cartesian basis functions of A   symmetry.
 There are   756 symmetry adapted basis functions of A   symmetry.
   756 basis functions,  1208 primitive gaussians,   786 cartesian basis functions
    98 alpha electrons       98 beta electrons
       nuclear repulsion energy      2644.7272813284 Hartrees.
 NAtoms=   46 NActive=   46 NUniq=   46 SFac= 1.00D+00 NAtFMM=   60 NAOKFM=F Big=F
 Integral buffers will be    131072 words long.
 Raffenetti 2 integral format.
 Two-electron integral symmetry is turned on.
 One-electron integrals computed using PRISM.
 NBasis=   756 RedAO= T EigKep=  1.01D-06  NBF=   756
 NBsUse=   738 1.00D-06 EigRej=  9.81D-07 NBFU=   738
 ExpMin= 4.38D-02 ExpMax= 4.56D+03 ExpMxC= 6.82D+02 IAcc=2 IRadAn=         4 AccDes= 0.00D+00
 Harris functional with IExCor=  402 and IRadAn=       4 diagonalized for initial guess.
 HarFok:  IExCor=  402 AccDes= 0.00D+00 IRadAn=         4 IDoV= 1 UseB2=F ITyADJ=14
 ICtDFT=  3500011 ScaDFX=  1.000000  1.000000  1.000000  1.000000
 FoFCou: FMM=F IPFlag=           0 FMFlag=      100000 FMFlg1=           0
         NFxFlg=           0 DoJE=T BraDBF=F KetDBF=T FulRan=T
         wScrn=  0.000000 ICntrl=       500 IOpCl=  0 I1Cent=   200000004 NGrid=           0
         NMat0=    1 NMatS0=      1 NMatT0=    0 NMatD0=    1 NMtDS0=    0 NMtDT0=    0
 Petite list used in FoFCou.
 Requested convergence on RMS density matrix=1.00D-08 within 128 cycles.
 Requested convergence on MAX density matrix=1.00D-06.
 Requested convergence on             energy=1.00D-06.
 No special actions if energy rises.
 SCF Done:  E(RB3LYP) =  -1152.95997878     A.U. after   19 cycles
            NFock= 19  Conv=0.36D-08     -V/T= 2.0045
 DoSCS=F DFT=T ScalE2(SS,OS)=  1.000000  1.000000
 Range of M.O.s used for correlation:     1   738
 NBasis=   756 NAE=    98 NBE=    98 NFC=     0 NFV=     0
 NROrb=    738 NOA=    98 NOB=    98 NVA=   640 NVB=   640

 **** Warning!!: The largest alpha MO coefficient is  0.21665265D+03


 **** Warning!!: The smallest alpha delta epsilon is  0.66362826D-01

 Symmetrizing basis deriv contribution to polar:
 IMax=3 JMax=2 DiffMx= 0.00D+00
 G2DrvN: will do    47 centers at a time, making    1 passes.
 Calling FoFCou, ICntrl=  3107 FMM=F I1Cent=   0 AccDes= 0.00D+00.
 End of G2Drv F.D. properties file   721 does not exist.
 End of G2Drv F.D. properties file   722 does not exist.
 End of G2Drv F.D. properties file   788 does not exist.
          IDoAtm=1111111111111111111111111111111111111111111111
          Differentiating once with respect to nuclear coordinates.
 CalDSu exits because no D1Ps are significant.
          There are   141 degrees of freedom in the 1st order CPHF.  IDoFFX=6 NUNeed=     0.
    135 vectors produced by pass  0 Test12= 6.27D-14 1.00D-09 XBig12= 3.61D-01 1.56D-01.
 AX will form   135 AO Fock derivatives at one time.
    135 vectors produced by pass  1 Test12= 6.27D-14 1.00D-09 XBig12= 8.69D-02 8.38D-02.
    135 vectors produced by pass  2 Test12= 6.27D-14 1.00D-09 XBig12= 1.28D-03 5.65D-03.
    135 vectors produced by pass  3 Test12= 6.27D-14 1.00D-09 XBig12= 6.93D-06 2.59D-04.
    135 vectors produced by pass  4 Test12= 6.27D-14 1.00D-09 XBig12= 1.89D-08 1.09D-05.
    135 vectors produced by pass  5 Test12= 6.27D-14 1.00D-09 XBig12= 1.22D-10 1.15D-06.
    118 vectors produced by pass  6 Test12= 6.27D-14 1.00D-09 XBig12= 2.02D-11 3.85D-07.
     87 vectors produced by pass  7 Test12= 6.27D-14 1.00D-09 XBig12= 3.27D-12 1.15D-07.
     61 vectors produced by pass  8 Test12= 6.27D-14 1.00D-09 XBig12= 3.51D-13 3.32D-08.
      8 vectors produced by pass  9 Test12= 6.27D-14 1.00D-09 XBig12= 3.69D-15 4.12D-09.
      3 vectors produced by pass 10 Test12= 6.27D-14 1.00D-09 XBig12= 3.93D-16 1.34D-09.
      2 vectors produced by pass 11 Test12= 6.27D-14 1.00D-09 XBig12= 3.83D-16 1.17D-09.
      2 vectors produced by pass 12 Test12= 6.27D-14 1.00D-09 XBig12= 3.84D-16 1.08D-09.
      2 vectors produced by pass 13 Test12= 6.27D-14 1.00D-09 XBig12= 5.64D-16 1.44D-09.
      1 vectors produced by pass 14 Test12= 6.27D-14 1.00D-09 XBig12= 3.92D-16 1.01D-09.
 InvSVY:  IOpt=1 It=  1 EMax= 6.66D-16
 Solved reduced A of dimension  1094 with   141 vectors.
 End of Minotr F.D. properties file   721 does not exist.
 End of Minotr F.D. properties file   722 does not exist.
 End of Minotr F.D. properties file   788 does not exist.

 **********************************************************************

            Population analysis using the SCF Density.

 **********************************************************************

 Orbital symmetries:
       Occupied  (A) (A) (A) (A) (A) (A) (A) (A) (A) (A) (A) (A)
                 (A) (A) (A) (A) (A) (A) (A) (A) (A) (A) (A) (A)
                 (A) (A) (A) (A) (A) (A) (A) (A) (A) (A) (A) (A)
                 (A) (A) (A) (A) (A) (A) (A) (A) (A) (A) (A) (A)
                 (A) (A) (A) (A) (A) (A) (A) (A) (A) (A) (A) (A)
                 (A) (A) (A) (A) (A) (A) (A) (A) (A) (A) (A) (A)
                 (A) (A) (A) (A) (A) (A) (A) (A) (A) (A) (A) (A)
                 (A) (A) (A) (A) (A) (A) (A) (A) (A) (A) (A) (A)
                 (A) (A)
       Virtual   (A) (A) (A) (A) (A) (A) (A) (A) (A) (A) (A) (A)
                 (A) (A) (A) (A) (A) (A) (A) (A) (A) (A) (A) (A)
                 (A) (A) (A) (A) (A) (A) (A) (A) (A) (A) (A) (A)
                 (A) (A) (A) (A) (A) (A) (A) (A) (A) (A) (A) (A)
                 (A) (A) (A) (A) (A) (A) (A) (A) (A) (A) (A) (A)
                 (A) (A) (A) (A) (A) (A) (A) (A) (A) (A) (A) (A)
                 (A) (A) (A) (A) (A) (A) (A) (A) (A) (A) (A) (A)
                 (A) (A) (A) (A) (A) (A) (A) (A) (A) (A) (A) (A)
                 (A) (A) (A) (A) (A) (A) (A) (A) (A) (A) (A) (A)
                 (A) (A) (A) (A) (A) (A) (A) (A) (A) (A) (A) (A)
                 (A) (A) (A) (A) (A) (A) (A) (A) (A) (A) (A) (A)
                 (A) (A) (A) (A) (A) (A) (A) (A) (A) (A) (A) (A)
                 (A) (A) (A) (A) (A) (A) (A) (A) (A) (A) (A) (A)
                 (A) (A) (A) (A) (A) (A) (A) (A) (A) (A) (A) (A)
                 (A) (A) (A) (A) (A) (A) (A) (A) (A) (A) (A) (A)
                 (A) (A) (A) (A) (A) (A) (A) (A) (A) (A) (A) (A)
                 (A) (A) (A) (A) (A) (A) (A) (A) (A) (A) (A) (A)
                 (A) (A) (A) (A) (A) (A) (A) (A) (A) (A) (A) (A)
                 (A) (A) (A) (A) (A) (A) (A) (A) (A) (A) (A) (A)
                 (A) (A) (A) (A) (A) (A) (A) (A) (A) (A) (A) (A)
                 (A) (A) (A) (A) (A) (A) (A) (A) (A) (A) (A) (A)
                 (A) (A) (A) (A) (A) (A) (A) (A) (A) (A) (A) (A)
                 (A) (A) (A) (A) (A) (A) (A) (A) (A) (A) (A) (A)
                 (A) (A) (A) (A) (A) (A) (A) (A) (A) (A) (A) (A)
                 (A) (A) (A) (A) (A) (A) (A) (A) (A) (A) (A) (A)
                 (A) (A) (A) (A) (A) (A) (A) (A) (A) (A) (A) (A)
                 (A) (A) (A) (A) (A) (A) (A) (A) (A) (A) (A) (A)
                 (A) (A) (A) (A) (A) (A) (A) (A) (A) (A) (A) (A)
                 (A) (A) (A) (A) (A) (A) (A) (A) (A) (A) (A) (A)
                 (A) (A) (A) (A) (A) (A) (A) (A) (A) (A) (A) (A)
                 (A) (A) (A) (A) (A) (A) (A) (A) (A) (A) (A) (A)
                 (A) (A) (A) (A) (A) (A) (A) (A) (A) (A) (A) (A)
                 (A) (A) (A) (A) (A) (A) (A) (A) (A) (A) (A) (A)
                 (A) (A) (A) (A) (A) (A) (A) (A) (A) (A) (A) (A)
                 (A) (A) (A) (A) (A) (A) (A) (A) (A) (A) (A) (A)
                 (A) (A) (A) (A) (A) (A) (A) (A) (A) (A) (A) (A)
                 (A) (A) (A) (A) (A) (A) (A) (A) (A) (A) (A) (A)
                 (A) (A) (A) (A) (A) (A) (A) (A) (A) (A) (A) (A)
                 (A) (A) (A) (A) (A) (A) (A) (A) (A) (A) (A) (A)
                 (A) (A) (A) (A) (A) (A) (A) (A) (A) (A) (A) (A)
                 (A) (A) (A) (A) (A) (A) (A) (A) (A) (A) (A) (A)
                 (A) (A) (A) (A) (A) (A) (A) (A) (A) (A) (A) (A)
                 (A) (A) (A) (A) (A) (A) (A) (A) (A) (A) (A) (A)
                 (A) (A) (A) (A) (A) (A) (A) (A) (A) (A) (A) (A)
                 (A) (A) (A) (A) (A) (A) (A) (A) (A) (A) (A) (A)
                 (A) (A) (A) (A) (A) (A) (A) (A) (A) (A) (A) (A)
                 (A) (A) (A) (A) (A) (A) (A) (A) (A) (A) (A) (A)
                 (A) (A) (A) (A) (A) (A) (A) (A) (A) (A) (A) (A)
                 (A) (A) (A) (A) (A) (A) (A) (A) (A) (A) (A) (A)
                 (A) (A) (A) (A) (A) (A) (A) (A) (A) (A) (A) (A)
                 (A) (A) (A) (A) (A) (A) (A) (A) (A) (A) (A) (A)
                 (A) (A) (A) (A) (A) (A) (A) (A) (A) (A) (A) (A)
                 (A) (A) (A) (A) (A) (A) (A) (A) (A) (A) (A) (A)
                 (A) (A) (A) (A)
 The electronic state is 1-A.
 Alpha  occ. eigenvalues --  -10.23575 -10.23446 -10.21607 -10.20583 -10.20566
 Alpha  occ. eigenvalues --  -10.20507 -10.20043 -10.19509 -10.19372 -10.19014
 Alpha  occ. eigenvalues --  -10.18916 -10.18757 -10.18650 -10.18629 -10.18604
 Alpha  occ. eigenvalues --  -10.18570 -10.18550 -10.18480 -10.18262 -10.18190
 Alpha  occ. eigenvalues --  -10.17920 -10.17820 -10.17730 -10.17627 -10.17551
 Alpha  occ. eigenvalues --  -10.17451 -10.17296 -10.17115 -10.16359 -10.15797
 Alpha  occ. eigenvalues --   -0.92406  -0.89782  -0.88042  -0.84746  -0.84009
 Alpha  occ. eigenvalues --   -0.83458  -0.80964  -0.79719  -0.78786  -0.77289
 Alpha  occ. eigenvalues --   -0.75627  -0.74355  -0.72664  -0.71226  -0.70738
 Alpha  occ. eigenvalues --   -0.67811  -0.65543  -0.64287  -0.62829  -0.62630
 Alpha  occ. eigenvalues --   -0.60533  -0.59296  -0.58798  -0.56476  -0.56066
 Alpha  occ. eigenvalues --   -0.52880  -0.51961  -0.51891  -0.51046  -0.50868
 Alpha  occ. eigenvalues --   -0.49418  -0.48139  -0.47449  -0.46699  -0.46034
 Alpha  occ. eigenvalues --   -0.45162  -0.45087  -0.43834  -0.43473  -0.42884
 Alpha  occ. eigenvalues --   -0.42811  -0.42032  -0.41400  -0.40798  -0.40451
 Alpha  occ. eigenvalues --   -0.40041  -0.39950  -0.39162  -0.38059  -0.37538
 Alpha  occ. eigenvalues --   -0.36365  -0.35686  -0.35249  -0.34845  -0.34110
 Alpha  occ. eigenvalues --   -0.33789  -0.33468  -0.32530  -0.32174  -0.31314
 Alpha  occ. eigenvalues --   -0.30343  -0.28159  -0.27070  -0.26277  -0.23252
 Alpha  occ. eigenvalues --   -0.22061  -0.20153  -0.16565
 Alpha virt. eigenvalues --   -0.09929  -0.07653  -0.05595  -0.03834  -0.02165
 Alpha virt. eigenvalues --   -0.00764  -0.00221   0.00546   0.00769   0.00900
 Alpha virt. eigenvalues --    0.01304   0.01661   0.01806   0.02899   0.03092
 Alpha virt. eigenvalues --    0.03173   0.03384   0.03625   0.03969   0.04717
 Alpha virt. eigenvalues --    0.04947   0.05098   0.05418   0.05982   0.06204
 Alpha virt. eigenvalues --    0.06552   0.06705   0.07333   0.07424   0.07769
 Alpha virt. eigenvalues --    0.08105   0.08630   0.08876   0.09052   0.09577
 Alpha virt. eigenvalues --    0.09711   0.10114   0.10307   0.10542   0.11033
 Alpha virt. eigenvalues --    0.11131   0.11842   0.12143   0.12485   0.12928
 Alpha virt. eigenvalues --    0.13337   0.13609   0.13918   0.14209   0.14389
 Alpha virt. eigenvalues --    0.14592   0.14752   0.14878   0.14935   0.15279
 Alpha virt. eigenvalues --    0.15471   0.16008   0.16282   0.16479   0.16659
 Alpha virt. eigenvalues --    0.16885   0.17023   0.17238   0.17585   0.17957
 Alpha virt. eigenvalues --    0.17998   0.18039   0.18377   0.18515   0.18823
 Alpha virt. eigenvalues --    0.18882   0.19252   0.19467   0.19498   0.19602
 Alpha virt. eigenvalues --    0.20057   0.20275   0.20653   0.20900   0.20940
 Alpha virt. eigenvalues --    0.21071   0.21326   0.21533   0.21693   0.21938
 Alpha virt. eigenvalues --    0.22251   0.22467   0.22733   0.23048   0.23186
 Alpha virt. eigenvalues --    0.23414   0.23554   0.23966   0.24342   0.24462
 Alpha virt. eigenvalues --    0.24543   0.24846   0.25099   0.25298   0.25476
 Alpha virt. eigenvalues --    0.25874   0.25965   0.26090   0.26194   0.26527
 Alpha virt. eigenvalues --    0.26561   0.26864   0.27036   0.27318   0.27618
 Alpha virt. eigenvalues --    0.27630   0.28161   0.28419   0.28455   0.29104
 Alpha virt. eigenvalues --    0.29302   0.29495   0.29924   0.30057   0.30311
 Alpha virt. eigenvalues --    0.30812   0.30873   0.31409   0.31647   0.31904
 Alpha virt. eigenvalues --    0.32018   0.32462   0.32648   0.32886   0.33207
 Alpha virt. eigenvalues --    0.33535   0.33678   0.33898   0.34209   0.34721
 Alpha virt. eigenvalues --    0.34870   0.35153   0.35863   0.36330   0.36873
 Alpha virt. eigenvalues --    0.37302   0.37417   0.37626   0.38025   0.38511
 Alpha virt. eigenvalues --    0.38784   0.39115   0.39849   0.40491   0.40776
 Alpha virt. eigenvalues --    0.40938   0.41582   0.42512   0.43297   0.43825
 Alpha virt. eigenvalues --    0.44099   0.44960   0.45592   0.45981   0.46898
 Alpha virt. eigenvalues --    0.47169   0.48164   0.48583   0.49555   0.50284
 Alpha virt. eigenvalues --    0.50935   0.51280   0.51691   0.52713   0.52890
 Alpha virt. eigenvalues --    0.53198   0.53464   0.53916   0.54292   0.54798
 Alpha virt. eigenvalues --    0.55176   0.55637   0.55876   0.56623   0.57233
 Alpha virt. eigenvalues --    0.57513   0.57864   0.58165   0.58512   0.58700
 Alpha virt. eigenvalues --    0.59343   0.59605   0.59932   0.60186   0.60730
 Alpha virt. eigenvalues --    0.60971   0.61094   0.61769   0.62109   0.62363
 Alpha virt. eigenvalues --    0.62506   0.63287   0.64031   0.64195   0.64324
 Alpha virt. eigenvalues --    0.65308   0.65878   0.65988   0.66385   0.66723
 Alpha virt. eigenvalues --    0.67155   0.67464   0.68275   0.68830   0.69326
 Alpha virt. eigenvalues --    0.69814   0.69909   0.70450   0.70787   0.70857
 Alpha virt. eigenvalues --    0.71122   0.71636   0.72105   0.72253   0.72753
 Alpha virt. eigenvalues --    0.73124   0.73168   0.73437   0.73843   0.74031
 Alpha virt. eigenvalues --    0.74413   0.74479   0.74981   0.75324   0.75794
 Alpha virt. eigenvalues --    0.75912   0.76286   0.76842   0.76881   0.77462
 Alpha virt. eigenvalues --    0.77879   0.78547   0.79289   0.79937   0.80630
 Alpha virt. eigenvalues --    0.81280   0.81431   0.81835   0.82719   0.83267
 Alpha virt. eigenvalues --    0.83632   0.84024   0.84661   0.85238   0.85648
 Alpha virt. eigenvalues --    0.85767   0.86277   0.87475   0.87599   0.88074
 Alpha virt. eigenvalues --    0.88422   0.88755   0.89567   0.90059   0.90496
 Alpha virt. eigenvalues --    0.91374   0.91495   0.92213   0.92971   0.93200
 Alpha virt. eigenvalues --    0.93618   0.93708   0.94049   0.94850   0.95544
 Alpha virt. eigenvalues --    0.95680   0.96164   0.96401   0.96847   0.97703
 Alpha virt. eigenvalues --    0.98229   0.98649   0.99612   0.99737   1.00566
 Alpha virt. eigenvalues --    1.00708   1.01169   1.02224   1.02447   1.03229
 Alpha virt. eigenvalues --    1.04183   1.04489   1.05056   1.05745   1.06465
 Alpha virt. eigenvalues --    1.06736   1.07071   1.07857   1.08507   1.08776
 Alpha virt. eigenvalues --    1.09529   1.10076   1.11114   1.11872   1.12210
 Alpha virt. eigenvalues --    1.13167   1.13246   1.13965   1.15868   1.16707
 Alpha virt. eigenvalues --    1.17677   1.18418   1.19637   1.20531   1.21355
 Alpha virt. eigenvalues --    1.21641   1.23950   1.24683   1.25057   1.26668
 Alpha virt. eigenvalues --    1.28659   1.29873   1.30594   1.31546   1.32180
 Alpha virt. eigenvalues --    1.34500   1.35272   1.36611   1.37497   1.38463
 Alpha virt. eigenvalues --    1.39817   1.40384   1.41510   1.43772   1.43857
 Alpha virt. eigenvalues --    1.44516   1.45676   1.45894   1.46609   1.47372
 Alpha virt. eigenvalues --    1.48054   1.48738   1.49575   1.50074   1.50929
 Alpha virt. eigenvalues --    1.51587   1.51710   1.52130   1.53078   1.53783
 Alpha virt. eigenvalues --    1.53814   1.54163   1.54691   1.55183   1.55840
 Alpha virt. eigenvalues --    1.56617   1.57546   1.58019   1.58579   1.59378
 Alpha virt. eigenvalues --    1.59480   1.60878   1.61307   1.61636   1.62290
 Alpha virt. eigenvalues --    1.63689   1.64027   1.64831   1.65920   1.66596
 Alpha virt. eigenvalues --    1.67170   1.67446   1.67879   1.68912   1.69737
 Alpha virt. eigenvalues --    1.70470   1.71479   1.72044   1.72499   1.72925
 Alpha virt. eigenvalues --    1.74352   1.74667   1.75668   1.75981   1.76255
 Alpha virt. eigenvalues --    1.76348   1.76855   1.78014   1.78427   1.80671
 Alpha virt. eigenvalues --    1.80796   1.81226   1.81414   1.81671   1.83404
 Alpha virt. eigenvalues --    1.84343   1.84571   1.85672   1.86108   1.86535
 Alpha virt. eigenvalues --    1.87658   1.88023   1.88581   1.88844   1.89775
 Alpha virt. eigenvalues --    1.90224   1.90951   1.91388   1.91654   1.92828
 Alpha virt. eigenvalues --    1.93831   1.93927   1.94369   1.95305   1.95466
 Alpha virt. eigenvalues --    1.95803   1.96254   1.97683   1.97966   1.98869
 Alpha virt. eigenvalues --    1.98947   1.99575   2.00204   2.00711   2.01406
 Alpha virt. eigenvalues --    2.02265   2.03151   2.04450   2.05039   2.05494
 Alpha virt. eigenvalues --    2.05982   2.06502   2.07559   2.08830   2.10132
 Alpha virt. eigenvalues --    2.10642   2.10803   2.12063   2.13134   2.14086
 Alpha virt. eigenvalues --    2.15408   2.16662   2.18082   2.18916   2.19163
 Alpha virt. eigenvalues --    2.19670   2.20259   2.20568   2.21681   2.22290
 Alpha virt. eigenvalues --    2.23250   2.25106   2.25964   2.26509   2.27247
 Alpha virt. eigenvalues --    2.27824   2.28428   2.29803   2.32063   2.33192
 Alpha virt. eigenvalues --    2.34812   2.35451   2.36565   2.37277   2.39216
 Alpha virt. eigenvalues --    2.39776   2.40472   2.42001   2.42307   2.43510
 Alpha virt. eigenvalues --    2.44142   2.45471   2.46141   2.48134   2.48850
 Alpha virt. eigenvalues --    2.50214   2.52336   2.53574   2.54483   2.54914
 Alpha virt. eigenvalues --    2.56759   2.57127   2.57848   2.59466   2.60739
 Alpha virt. eigenvalues --    2.61778   2.62896   2.64277   2.65275   2.68337
 Alpha virt. eigenvalues --    2.69683   2.70248   2.70795   2.71233   2.71623
 Alpha virt. eigenvalues --    2.72235   2.72653   2.73058   2.73499   2.73881
 Alpha virt. eigenvalues --    2.74194   2.74352   2.75840   2.76277   2.76612
 Alpha virt. eigenvalues --    2.76720   2.77023   2.77377   2.77855   2.77971
 Alpha virt. eigenvalues --    2.78589   2.79197   2.79605   2.80563   2.81116
 Alpha virt. eigenvalues --    2.81946   2.82095   2.82951   2.83670   2.85061
 Alpha virt. eigenvalues --    2.86312   2.86462   2.87259   2.87889   2.88893
 Alpha virt. eigenvalues --    2.89684   2.90029   2.91493   2.92404   2.93017
 Alpha virt. eigenvalues --    2.94117   2.95164   2.96317   2.97386   2.98439
 Alpha virt. eigenvalues --    3.00440   3.02197   3.03841   3.04957   3.06621
 Alpha virt. eigenvalues --    3.07490   3.08405   3.11802   3.12244   3.14533
 Alpha virt. eigenvalues --    3.15795   3.17673   3.17843   3.19302   3.20240
 Alpha virt. eigenvalues --    3.20840   3.21031   3.21903   3.23009   3.24318
 Alpha virt. eigenvalues --    3.26313   3.27007   3.27419   3.29985   3.31270
 Alpha virt. eigenvalues --    3.33604   3.34519   3.36195   3.38406   3.38892
 Alpha virt. eigenvalues --    3.39439   3.41281   3.41912   3.43630   3.44539
 Alpha virt. eigenvalues --    3.45882   3.47018   3.48958   3.49793   3.51376
 Alpha virt. eigenvalues --    3.53065   3.54725   3.55516   3.57019   3.60158
 Alpha virt. eigenvalues --    3.62042   3.62822   3.65798   3.69401   3.71570
 Alpha virt. eigenvalues --    3.73033   3.78927   3.84437   3.85280   3.91531
 Alpha virt. eigenvalues --    3.92996   3.98869   4.01434   4.04156   4.06470
 Alpha virt. eigenvalues --    4.06665   4.08573   4.10317   4.12038   4.16097
 Alpha virt. eigenvalues --    4.20935   4.24513   4.27720   4.32093   4.34608
 Alpha virt. eigenvalues --    4.40716   4.60101   4.66173   4.71048   4.73461
 Alpha virt. eigenvalues --    4.74752   4.76495   4.79426   4.82767   4.89675
 Alpha virt. eigenvalues --   23.43355  23.62907  23.66088  23.77492  23.78853
 Alpha virt. eigenvalues --   23.79419  23.81401  23.83713  23.86839  23.87949
 Alpha virt. eigenvalues --   23.89743  23.90153  23.93470  23.94557  23.96306
 Alpha virt. eigenvalues --   24.01490  24.07390  24.08957  24.09921  24.10246
 Alpha virt. eigenvalues --   24.11919  24.12336  24.12408  24.13722  24.14166
 Alpha virt. eigenvalues --   24.16880  24.19036  24.20302  24.23021  24.23699
          Condensed to atoms (all electrons):
               1          2          3          4          5          6
     1  C   13.948945   0.509468  -1.867438   1.952263  -2.764601  -0.220008
     2  C    0.509468  10.597866   2.048387  -2.602877  -0.983260   1.472934
     3  C   -1.867438   2.048387  12.435299  -1.054135   1.819731  -1.472657
     4  C    1.952263  -2.602877  -1.054135  16.159589  -0.514895  -1.997670
     5  C   -2.764601  -0.983260   1.819731  -0.514895  11.203491   0.194019
     6  C   -0.220008   1.472934  -1.472657  -1.997670   0.194019  10.465273
     7  C   -1.511115  -0.661234   2.336444  -1.905163   0.540103  -1.499723
     8  C    0.197617  -2.741950  -3.250312   4.119657   0.874028  -0.279278
     9  C    0.029870   1.128669   2.786098  -2.038329  -0.382605  -0.012621
    10  C    0.358152  -1.948894  -2.441178  -1.769046  -0.434825  -0.669579
    11  C   -1.587955   0.828053  -0.713693  -1.765779  -0.219870   0.253601
    12  C    0.391949  -1.284265  -0.559813  -0.218999  -0.278728   0.129738
    13  C    0.074680  -0.279007  -0.892546   0.859854   0.121468   0.093978
    14  C   -0.020465   0.215346  -0.278127   0.054460  -0.002906  -0.026973
    15  C    0.874454  -0.365647  -0.484627   0.199547  -0.719881  -0.545044
    16  C    0.077092  -0.410902  -0.556954  -0.292824  -0.382105   0.094137
    17  C   -0.939090   0.705804  -0.203141  -0.174828  -0.459317  -0.041037
    18  C   -0.144776   1.673683  -0.288710  -2.365897  -1.376366   0.008256
    19  C    0.070440   0.069253  -0.143849   0.272300   0.001499   0.027613
    20  C   -0.086183  -1.020096  -0.601551  -0.582206  -0.030851   0.020223
    21  C    0.095088  -0.059254   0.067128  -0.015482   0.013559  -0.008667
    22  C   -0.033793   0.011529  -0.082298  -0.035265   0.002567   0.004712
    23  C   -1.529232  -0.563125  -0.030076  -0.088511  -0.192418  -0.125481
    24  C    0.366412  -0.261076  -0.156173  -0.031927  -0.265028   0.032709
    25  C    0.012183  -0.235058   0.159425   0.029025   0.072756  -0.003580
    26  C   -1.153065   0.004213  -0.337184  -0.171509  -0.057870  -0.092679
    27  C   -1.113851  -0.074021  -0.112519   0.180896  -0.046886  -0.197566
    28  C   -0.175864   0.074827  -0.004819   0.032346  -0.010709  -0.018457
    29  C   -0.133872  -0.123877   0.014788  -0.011795   0.023622  -0.005740
    30  C    0.004573  -0.023928  -0.008954   0.003308  -0.007369   0.001224
    31  H    0.000038   0.000057   0.000012  -0.000000   0.000002  -0.000000
    32  H    0.000023  -0.000079   0.000042   0.000025  -0.000006   0.000001
    33  H    0.003489  -0.017862  -0.003570  -0.002929  -0.000027   0.000337
    34  H    0.000392  -0.000094   0.000068   0.000001   0.000023   0.000002
    35  H    0.001828   0.001149   0.000333   0.000023   0.000312  -0.000016
    36  H    0.048193   0.009321   0.000739   0.000393   0.003377   0.000377
    37  H   -0.045082   0.008752   0.000809   0.006259   0.040644   0.011755
    38  H   -0.064720   0.024460  -0.037742  -0.040341   0.338116   0.041961
[...]
 0.00016396,0.00001084,0.00015456,0.00010283,0.00005447,0.00002658,-0.0
 0002319,0.00003995,-0.00008639,0.00007097,-0.00000359,-0.00000083,-0.0
 0000185,0.00000681,-0.00000227,-0.00004564,-0.00004532,0.00004727,0.00
 005288,-0.00000275,0.00000792,-0.00000383,-0.00000350,0.00000359,-0.00
 000083,0.00000284,0.00000228,-0.00000121,0.00000243,0.00000070,-0.0000
 0131,-0.00000517,0.00000092,-0.00000394,0.00000226,-0.00000365,-0.0000
 0261,0.00000311,0.00000649,0.00000263,-0.00001232,-0.00000855,-0.00000
 115,-0.00018407,0.00027982,0.00013832,0.13203751,-0.00002983,0.0001525
 9,-0.00002223,-0.00011275,-0.00020096,0.00007694,-0.00015232,-0.000091
 41,-0.00000499,0.00004189,0.00007693,-0.00003218,-0.00010601,-0.000010
 61,0.00001956,0.00003921,-0.00010609,0.00002479,0.00008847,0.00030716,
 -0.00000266,-0.00040371,-0.00025327,0.00022944,0.00008914,0.00002171,-
 0.00004883,0.00001410,-0.00010502,-0.00000340,0.00088071,-0.00064498,-
 0.00050208,-0.00306470,-0.00031117,-0.00264260,0.01157985,-0.01427181,
 -0.00561622,0.00184541,0.00080372,0.00056494,0.00005030,0.00000092,0.0
 0000354,-0.00000506,-0.00001162,0.00001510,0.00000939,0.00001661,-0.00
 000508,-0.00015926,0.00019797,-0.00014219,0.11560129,-0.24018529,-0.07
 613833,-0.00058620,0.00007285,0.00037168,0.00042749,0.00364352,-0.0029
 1128,-0.00050048,0.00247457,-0.00142785,0.00002028,-0.00000595,0.00000
 563,-0.00000394,-0.00001585,0.00001414,0.00009857,-0.00001052,0.000046
 03,-0.00000768,-0.00004855,-0.00002597,0.00003668,-0.00024852,0.000344
 88,0.00014134,-0.00008647,0.00005967,-0.00008063,-0.00008591,0.0000217
 1,-0.00004477,0.00010144,-0.00007971,0.00000117,-0.00000054,-0.0000040
 8,-0.00000136,0.00000251,0.00001605,-0.00005399,0.00006073,0.00005479,
 0.00000104,-0.00000337,0.00000308,0.00000216,-0.00000171,0.00000179,0.
 00000125,-0.00000250,0.00000212,0.00000306,-0.00000506,-0.00000248,-0.
 00000699,-0.00000487,-0.00000423,-0.00000517,-0.00000775,-0.00000408,-
 0.00000653,-0.00000098,0.00000435,-0.00002142,0.00000442,0.00000040,-0
 .00095373,0.00032940,0.00003955,-0.12424353,0.25025145,-0.00004313,-0.
 00007331,-0.00006060,0.00020932,-0.00014523,0.00006366,-0.00011137,0.0
 0001019,0.00011471,0.00012915,-0.00004574,-0.00003393,0.00002211,-0.00
 002840,-0.00000054,-0.00000461,-0.00001268,-0.00000733,0.00037488,0.00
 012513,-0.00012494,-0.00002831,0.00039073,-0.00021601,-0.00009819,-0.0
 0010220,0.00004132,-0.00001998,0.00014968,0.00003117,0.00073402,-0.000
 93213,0.00025220,-0.00396107,-0.00135912,0.00219742,0.00805942,-0.0125
 2996,-0.00210321,0.00029293,0.00068215,-0.00073954,-0.00005094,0.00001
 956,0.00000845,0.00004967,-0.00000381,-0.00001981,-0.00015333,-0.00004
 692,-0.00003420,-0.00040564,-0.00018598,0.00019340,0.03899637,-0.07466
 512,-0.06362664,0.00048723,0.00019047,-0.00092271,-0.00234216,-0.00418
 720,0.00727786,-0.00442866,0.00372101,0.00655966,-0.00004203,0.0000030
 9,-0.00000298,-0.00000642,0.00000467,-0.00003790,-0.00014275,0.0001027
 1,-0.00009996,-0.00000683,0.00004783,0.00010738,0.00030779,0.00062508,
 -0.00057871,-0.00023934,0.00004895,-0.00011637,0.00021087,0.00014182,-
 0.00000871,0.00007943,-0.00019802,0.00015334,0.00001261,-0.00000275,0.
 00000337,0.00001841,0.00001355,-0.00002038,-0.00003978,-0.00003585,-0.
 00003281,0.00000142,0.00000540,-0.00000754,0.00000322,0.00000674,-0.00
 000462,0.00000244,-0.00000453,0.00000471,0.00000033,-0.00000628,0.0000
 0469,-0.00000547,-0.00000224,0.00001262,-0.00000187,-0.00000266,0.0000
 0634,-0.00000520,0.00000276,-0.00000669,-0.00001784,-0.00000443,0.0000
 0664,-0.00040528,-0.00001501,0.00036729,-0.03908685,0.08455378,0.05598
 833,-0.00000514,0.00000258,-0.00001356,0.00001081,-0.00002535,0.000000
 47,-0.00005202,-0.00009463,-0.00003121,0.00006739,0.00002896,-0.000002
 63,-0.00000346,0.00003633,0.00000030,-0.00002388,-0.00004534,0.0000129
 0,0.00011002,0.00014824,0.00004174,-0.00047214,0.00008088,0.00011130,0
 .00001009,-0.00013864,-0.00000030,-0.00006180,0.00004514,0.00001098,0.
 00011031,-0.00012319,0.00014696,-0.00061116,0.00067311,0.00000754,-0.0
 0473119,0.00214268,-0.00111721,0.00025213,-0.00115949,-0.00072844,-0.0
 0000137,0.00000850,0.00000387,-0.00000667,-0.00002619,0.00000412,0.000
 00782,0.00004868,-0.00005305,-0.00004272,-0.00005510,-0.00002073,-0.01
 219664,-0.02528597,-0.01450124,-0.00145878,0.00310381,0.00092019,0.011
 14431,0.01402061,0.00761515,-0.12489848,-0.10130994,-0.06181863,-0.000
 00636,-0.00000386,0.00000291,-0.00001499,0.00002027,-0.00001259,0.0000
 0707,0.00006662,-0.00002914,-0.00001872,-0.00007144,0.00011331,0.00042
 682,0.00038879,0.00025539,0.00010374,-0.00001295,-0.00009406,0.0000580
 8,-0.00001374,0.00002745,-0.00006192,-0.00003022,0.00000263,-0.0000079
 3,0.00001093,0.00000460,-0.00001178,-0.00000601,0.00001222,-0.00006220
 ,0.00010145,0.00011117,0.00000045,0.00000021,-0.00000032,0.00000312,0.
 00000200,-0.00000176,-0.00000172,-0.00000386,0.00000054,0.00000080,-0.
 00000346,0.00000084,-0.00000265,-0.00000441,0.00000098,-0.00000204,0.0
 0000026,-0.00000326,-0.00000673,-0.00001468,0.00000156,-0.00000950,0.0
 0000705,-0.00000254,-0.00004224,0.00004967,-0.00001019,0.00078365,-0.0
 0026267,0.00103385,0.13111305,-0.00002126,0.00004774,-0.00002676,-0.00
 012768,-0.00002366,0.00000501,-0.00004958,-0.00015526,-0.00001173,0.00
 003067,0.00001227,-0.00000313,0.00001702,0.00001414,-0.00000408,-0.000
 03036,-0.00000031,0.00000908,0.00018489,0.00004402,-0.00001445,0.00011
 272,-0.00005215,0.00015433,0.00000650,0.00003489,0.00001304,-0.0000105
 2,-0.00001014,-0.00001087,-0.00029398,-0.00039065,-0.00005031,0.000835
 74,0.00059442,0.00025289,0.00183349,0.00220263,-0.00302537,-0.00002867
 ,0.00053672,0.00024163,0.00004861,-0.00006389,0.00002409,-0.00003285,0
 .00003048,0.00001761,0.00025559,-0.00008544,0.00007453,-0.00009741,0.0
 0036741,0.00001099,0.00330483,0.00555587,0.00110809,0.00376318,-0.0021
 1525,-0.00259030,-0.01371854,-0.01426418,-0.01003708,-0.10287239,-0.21
 330670,-0.09799648,-0.00000971,-0.00001070,0.00000438,0.00002388,-0.00
 000038,0.00000713,-0.00008614,-0.00006942,-0.00003755,-0.00003669,-0.0
 0017465,-0.00016238,-0.00098051,-0.00013500,0.00014131,-0.00010757,-0.
 00002299,0.00003689,-0.00000699,-0.00002475,0.00004638,0.00004184,0.00
 012541,-0.00003587,0.00003176,-0.00001105,-0.00000641,0.00000586,0.000
 01923,-0.00000468,0.00010250,-0.00020603,-0.00019421,0.00001115,-0.000
 01399,-0.00000250,0.00000749,-0.00001418,0.00000348,-0.00000022,-0.000
 00932,0.00000034,-0.00000215,-0.00000876,-0.00000179,-0.00000192,-0.00
 000593,0.00000433,-0.00000648,-0.00000257,-0.00000132,-0.00000443,0.00
 000329,0.00000095,-0.00000839,0.00000317,0.00000211,-0.00002288,0.0000
 0065,-0.00004930,-0.00060483,-0.00039189,0.00257237,0.10850407,0.22206
 642,-0.00003575,-0.00017870,0.00009657,0.00034373,0.00013877,0.0000094
 5,0.00014302,0.00049321,0.00002103,-0.00022325,-0.00014771,0.00003241,
 0.00010239,-0.00008946,-0.00001751,0.00000690,0.00017772,-0.00004177,-
 0.00046558,-0.00030765,-0.00006367,-0.00010827,0.00048448,-0.00035041,
 -0.00002829,-0.00008784,-0.00008431,0.00002242,0.00000321,0.00004764,0
 .00043359,0.00092619,-0.00016146,0.00003604,-0.00106448,0.00025759,-0.
 00125837,-0.00167065,0.00839465,-0.00045004,-0.00102183,-0.00035422,-0
 .00006064,0.00005881,-0.00003974,0.00002913,0.00003086,-0.00003633,-0.
 00015849,0.00000931,0.00002680,0.00010119,-0.00053484,-0.00004631,-0.0
 0249566,-0.00456335,0.00196291,0.00146025,-0.00223703,0.00253376,-0.00
 446812,-0.00651904,-0.00043440,-0.06190326,-0.09765300,-0.09408310,0.0
 0000885,0.00000803,-0.00000351,0.00000841,-0.00001127,0.00001163,0.000
 01634,-0.00002882,0.00005470,0.00008691,0.00012468,0.00003614,-0.00052
 253,0.00012015,-0.00040167,0.00009852,-0.00012284,0.00012692,-0.000048
 02,-0.00003818,-0.00001797,-0.00001056,0.00009172,-0.00007988,0.000012
 58,-0.00000776,0.00000213,0.00002301,0.00000515,-0.00000492,0.00007024
 ,-0.00013142,-0.00009920,-0.00000063,0.00000255,0.00000582,-0.00000011
 ,-0.00000114,0.00000393,0.00000014,0.00000074,0.00000160,-0.00000195,0
 .00000126,0.00000708,0.00000664,0.00000032,-0.00000112,-0.00000259,0.0
 0000206,0.00001056,-0.00000282,-0.00001188,0.00000658,0.00000282,0.000
 00383,0.00000074,0.00001946,-0.00003750,0.00015652,0.00090853,0.002692
 48,-0.00465688,0.06796837,0.10877136,0.08746654,-0.00010635,0.00004324
 ,-0.00000056,0.00005466,-0.00005387,0.00002340,-0.00004227,0.00017926,
 -0.00015249,-0.00010616,-0.00005086,0.00005643,0.00002523,-0.00003468,
 -0.00000145,-0.00001019,0.00005886,0.00002524,-0.00024917,-0.00022673,
 -0.00015992,0.00000856,-0.00013767,0.00004654,0.00005153,0.00001618,-0
 .00001067,0.00002096,-0.00008468,-0.00001388,-0.00025006,0.00021427,0.
 00003771,-0.00006231,-0.00154159,-0.00135267,0.00028021,-0.00006671,0.
 00030465,0.00010699,0.00007761,-0.00012355,0.00009909,0.00000561,0.000
 00548,-0.00007443,0.00001627,0.00000154,0.00017691,0.00002081,0.000065
 46,-0.00005334,0.00010087,-0.00004455,0.00053054,0.00236044,0.00091735
 ,-0.01113082,-0.00161405,-0.00254759,-0.33146961,-0.00219302,-0.032128
 72,-0.01000340,-0.00200626,-0.00227358,0.00002540,0.00005793,-0.000003
 09,0.00001174,-0.00007554,0.00002613,0.00029509,0.00001544,-0.00011690
 ,-0.00029586,-0.00035983,0.00006542,-0.00115788,0.00121421,0.00158640,
 0.00062970,0.00040377,0.00098533,-0.00016182,-0.00055935,0.00013938,-0
 .00041296,0.00103366,0.00000456,-0.00006789,0.00008374,0.00015095,-0.0
 0001589,0.00076201,0.00029869,-0.00021096,-0.00001504,-0.00014441,-0.0
 0000729,-0.00000384,-0.00001037,0.00000268,0.00000545,-0.00000148,0.00
 000545,-0.00000553,-0.00000263,0.00000245,-0.00000749,-0.00000569,0.00
 000074,-0.00000370,-0.00000028,-0.00000508,-0.00000335,-0.00000410,-0.
 00000579,-0.00000367,-0.00000077,-0.00000184,0.00000530,-0.00000214,0.
 00000320,0.00002041,-0.00002287,-0.00045125,-0.00017044,-0.00011029,0.
 00069312,0.00002564,0.00015348,0.35335487,0.00006221,-0.00009154,-0.00
 005789,0.00023685,0.00000045,0.00003857,-0.00035735,-0.00022762,-0.000
 00422,0.00050036,-0.00006321,-0.00010902,-0.00002600,0.00000293,0.0000
 4497,-0.00000885,-0.00015020,0.00003125,0.00074902,-0.00030800,0.00029
 452,0.00029683,0.00066913,0.00017027,-0.00027217,-0.00018253,-0.000001
 13,-0.00006848,0.00041439,0.00003821,-0.00164067,0.00106382,0.00009886
 ,-0.00114272,-0.00177927,-0.00561026,0.00056769,-0.00034246,-0.0005939
 1,-0.00071547,-0.00035476,0.00025364,-0.00017731,0.00004147,0.00002444
 ,0.00012084,0.00001663,0.00003066,-0.00033800,0.00000105,-0.00010212,0
 .00006144,-0.00063730,-0.00007277,0.00124432,-0.00343103,-0.00313381,-
 0.02598391,0.00388633,-0.00343614,-0.00212211,-0.05242608,-0.00690202,
 0.02603879,0.00231197,0.00223562,-0.00009115,-0.00002968,-0.00002039,-
 0.00000435,0.00002610,0.00007885,-0.00093485,0.00006124,-0.00027154,0.
 00080320,-0.00062006,-0.00009874,-0.00054802,-0.00037701,0.00221905,-0
 .00036355,0.00086442,-0.00021017,0.00093676,0.00062489,-0.00013642,0.0
 0076550,-0.00155311,0.00076935,0.00002880,-0.00003737,-0.00007979,0.00
 008257,-0.00026351,-0.00046698,-0.00021472,0.00040036,0.00025331,0.000
 00750,0.00005205,-0.00002515,-0.00000763,-0.00000700,0.00000106,0.0000
 0445,-0.00000492,-0.00000903,0.00000040,-0.00000720,0.00000173,-0.0000
 0958,-0.00000069,-0.00000404,0.00000620,-0.00000476,-0.00000619,0.0000
 0509,0.00000699,0.00000403,-0.00001385,-0.00000773,-0.00001224,-0.0000
 9086,0.00000102,0.00002062,0.00111704,-0.00011845,0.00035484,-0.000627
 16,0.00045310,0.00101059,0.00255689,0.05222381,0.00006034,0.00016467,-
 0.00004614,0.00002825,-0.00014894,-0.00000565,-0.00046565,-0.00007310,
 0.00016141,0.00032602,0.00012882,0.00000456,-0.00017925,0.00007928,0.0
 0003474,0.00000116,-0.00025253,0.00001678,-0.00016215,-0.00013169,-0.0
 0050466,-0.00005611,-0.00047287,-0.00035141,0.00000285,-0.00000263,0.0
 0011537,-0.00006132,0.00006825,0.00001478,-0.00126235,0.00070897,-0.00
 018724,-0.00040270,-0.00633815,0.00604071,-0.00055193,-0.00053678,-0.0
 0004084,0.00084064,0.00040741,-0.00023595,0.00003406,0.00000803,0.0000
 2415,0.00004167,0.00010634,-0.00006842,-0.00022930,-0.00003696,-0.0000
 1839,0.00018568,0.00026999,0.00007602,0.00137581,-0.00260932,0.0026691
 6,-0.01391923,0.00053413,0.00476634,-0.03099225,-0.00915615,-0.0468745
 4,0.00914186,0.00120352,0.00452482,-0.00000673,-0.00000834,0.00001150,
 0.00000888,-0.00009899,-0.00006342,-0.00019437,0.00020481,-0.00009440,
 -0.00017510,0.00087938,0.00047092,0.00016100,0.00287762,-0.00399346,-0
 .00051967,-0.00069385,-0.00069316,0.00030910,0.00028013,-0.00006957,0.
 00038321,-0.00033784,0.00025027,0.00006288,-0.00005506,0.00004586,0.00
 042567,-0.00049209,-0.00105531,0.00039825,-0.00055199,-0.00018942,-0.0
 0000751,0.00005861,-0.00001373,-0.00001171,0.00001535,0.00000041,0.000
 00735,0.00000355,0.00001553,-0.00000043,-0.00000643,-0.00000713,-0.000
 01005,0.00000137,-0.00000502,0.00000937,-0.00000885,-0.00000238,0.0000
 0323,0.00000613,-0.00001618,-0.00000837,-0.00000667,-0.00000036,-0.000
 03283,-0.00002226,0.00005015,0.00041547,0.00002804,-0.00004983,0.00004
 787,0.00112823,-0.00117696,0.03419732,0.01333330,0.03648522,-0.0006196
 9,-0.00306756,0.00108670,0.00514626,0.00278871,0.00009807,0.00086269,0
 .00364399,-0.00049405,-0.00137478,-0.00211727,0.00057821,0.00220325,-0
 .00004747,-0.00037876,-0.00099238,0.00197745,-0.00035415,-0.00334302,-
 0.00237925,0.00155325,0.00223729,0.00733430,0.00098122,-0.00255950,-0.
 00110647,-0.00041265,0.00035206,0.00198460,0.00000766,0.00927429,0.012
 78961,0.00729687,-0.00462708,-0.03777031,0.02294404,0.00845999,-0.0083
 1081,-0.02924743,-0.02782712,-0.00875677,0.01243832,-0.00099583,0.0004
 1601,-0.00029548,0.00000598,0.00059138,-0.00020543,-0.00181921,0.00042
 843,-0.00042296,0.00091242,-0.00920195,-0.00275932,0.01042679,0.006744
 54,0.00150133,-0.01026707,0.00482005,-0.01043489,-0.00036404,-0.002777
 52,-0.00262301,-0.00882836,0.00432743,-0.00030247,-0.00002236,-0.00008
 664,0.00004923,-0.00007762,0.00021383,-0.00012329,-0.00029301,0.000457
 34,0.00005721,0.00183574,0.00113573,0.00072046,0.00016806,-0.00267790,
 -0.00201246,-0.00041761,-0.00022270,0.00079260,0.00098769,-0.00007631,
 0.00001753,-0.00005634,-0.00072177,0.00054491,0.00007661,0.00000368,-0
 .00004753,-0.00002865,0.00014279,-0.00009636,-0.00024124,0.00052698,-0
 .00006446,0.00002116,0.00000546,-0.00002350,0.00002126,-0.00002927,0.0
 0001512,-0.00002513,-0.00003265,0.00000825,-0.00005558,-0.00000427,0.0
 0000138,0.00003817,0.00000086,0.00002746,0.00001935,0.00011907,0.00007
 229,0.00005421,0.00004089,0.00006317,-0.00004171,-0.00001169,-0.000059
 11,-0.00087682,-0.00053426,0.00072740,0.00028535,0.00001038,0.00073189
 ,-0.00008856,0.00001472,0.00018194,-0.00002651,-0.00043399,0.00078107,
 0.02248060,0.00129834,0.00542291,-0.00211933,-0.00815629,-0.00483046,-
 0.00071959,-0.00279807,-0.00762363,0.00005908,0.00261275,0.00483235,-0
 .00065430,-0.00493983,0.00175105,0.00069990,0.00125063,-0.00553236,0.0
 0095362,0.00114496,0.00721363,-0.00082631,-0.00571829,-0.01492717,-0.0
 0344834,0.00369050,0.00290688,0.00012877,0.00029486,-0.00350731,-0.000
 28979,-0.01185485,-0.03557576,0.00110152,-0.00212029,0.02989426,-0.020
 38239,-0.04390359,0.00612245,0.07836425,0.03043940,0.00951217,-0.00229
 098,0.00150785,-0.00014251,0.00033933,-0.00038684,-0.00057562,0.000231
 25,0.00328481,0.00060901,0.00072543,-0.00128856,0.01453801,0.00224266,
 -0.00902387,-0.00788294,-0.02134001,0.01517801,0.00410159,0.00655018,0
 .00091210,-0.00424989,-0.00319216,0.00105095,-0.00148262,-0.00117025,0
 .00012785,-0.00000775,0.00001235,-0.00017346,0.00006171,-0.00000342,0.
 00091744,0.00028105,-0.00025466,-0.00194117,-0.00166668,-0.00050956,-0
 .00018191,0.00124739,0.00193152,0.00013712,0.00095179,-0.00085017,-0.0
 0020423,-0.00015142,0.00027837,-0.00032236,-0.00007656,0.00043272,-0.0
 0002916,0.00003457,-0.00002633,-0.00004738,-0.00034074,-0.00032281,-0.
 00075710,-0.00002292,-0.00038324,0.00000094,-0.00004660,-0.00007291,0.
 00000557,0.00002105,-0.00000165,-0.00001331,-0.00000539,-0.00000535,0.
 00005503,-0.00002946,-0.00001899,-0.00011569,-0.00002368,-0.00006146,0
 .00000024,-0.00010581,-0.00025914,-0.00000287,0.00001779,0.00003585,0.
 00003417,0.00004300,0.00006882,0.00119216,0.00087488,-0.00146068,-0.00
 077261,-0.00128737,0.00081706,-0.00017259,-0.00054258,0.00130891,-0.00
 005996,-0.00009666,-0.00045446,0.02984859,0.00029632,0.00031738,0.0014
 7125,-0.00076942,-0.00258075,-0.00242595,-0.00049789,-0.00071766,-0.00
 238868,0.00053296,0.00118692,0.00119773,-0.00044872,-0.00126085,-0.000
 17484,0.00032615,0.00086645,-0.00126824,0.00011321,0.00241525,0.002645
 49,-0.00157257,-0.00085420,-0.00458702,0.00012133,0.00115290,0.0002745
 7,-0.00029591,-0.00022412,-0.00055266,-0.00001263,-0.00095516,-0.01318
 637,0.00470897,-0.02385483,0.05884052,-0.05812236,0.01335571,-0.009058
 90,-0.07859527,0.01258402,0.00676270,0.00651278,0.00042514,-0.00023851
 ,0.00017893,0.00012521,-0.00039875,0.00027351,0.00098452,-0.00075070,0
 .00004723,-0.00175382,0.00436010,0.00282099,-0.00441040,0.00071730,-0.
 00841818,0.01080409,-0.00031544,0.00296491,-0.00112361,-0.00641941,-0.
 00292522,-0.00350096,0.00046044,0.00106170,-0.00013787,0.00006450,-0.0
 0009583,0.00009057,-0.00012115,0.00006705,-0.00054261,-0.00048199,-0.0
 0039092,-0.00053391,-0.00101679,-0.00123797,0.00124526,0.00129657,0.00
 259724,-0.00072967,-0.00041065,-0.00081618,-0.00019178,0.00073101,-0.0
 0025952,0.00049105,-0.00018780,-0.00017855,-0.00001505,-0.00001111,0.0
 0008365,-0.00002789,0.00015326,0.00029134,0.00042386,-0.00023321,0.000
 78677,-0.00000973,0.00003509,0.00006980,-0.00001093,0.00001631,-0.0000
 1116,0.00002115,0.00001667,-0.00000033,0.00003739,-0.00001309,-0.00001
 257,-0.00001884,0.00000547,0.00002782,-0.00002136,-0.00008576,-0.00002
 102,-0.00003723,-0.00004005,0.00000049,0.00001672,0.00001774,0.0001159
 5,-0.00047319,0.00034548,-0.00043830,0.00023820,0.00042597,0.00011830,
 -0.00001832,-0.00036398,0.00088163,0.00014322,0.00005622,-0.00001514,-
 0.00292026,-0.03516335,0.13043296\\0.00000176,0.00000214,-0.00000705,-
 0.00000278,-0.00000106,0.00000079,-0.00000012,-0.00000622,0.00000490,0
 .00000273,0.00000099,-0.00000158,-0.00000044,-0.00000120,-0.00000519,0
 .00000106,-0.00000598,-0.00000612,0.00000167,0.00000277,0.00000992,-0.
 00000355,-0.00000471,-0.00000632,-0.00000037,-0.00000205,-0.00000111,-
 0.00000019,-0.00000421,-0.00000506,0.00002713,0.00006341,0.00001510,-0
 .00003359,-0.00006528,-0.00002986,-0.00001727,-0.00000295,0.00000014,-
 0.00000291,-0.00000044,0.00001057,0.00000342,-0.00000156,-0.00000258,0
 .00000218,0.00000069,-0.00000301,-0.00000088,-0.00000030,-0.00000202,0
 .00000344,0.00000651,0.00000339,-0.00000252,-0.00000267,-0.00000154,0.
 00000444,-0.00001831,0.00000586,-0.00000396,0.00000432,0.00000207,-0.0
 0000679,-0.00000343,-0.00000038,0.00000194,0.00000049,-0.00000385,0.00
 000218,0.00000145,-0.00000121,0.00000231,0.00000174,-0.00000265,-0.000
 00142,0.00000309,0.00000576,0.00000978,0.00001157,0.00000503,0.0000007
 8,0.00000245,0.00000135,0.00000094,0.00000270,0.00000129,0.00000015,0.
 00000159,-0.00000082,-0.00000004,0.00000500,0.00000392,-0.00000041,0.0
 0000602,0.00000628,0.00000399,0.00000436,-0.00000026,0.00000089,0.0000
 0289,0.00000015,0.00000175,0.00000205,-0.00000077,0.00000237,0.0000004
 9,-0.00000314,0.00000286,-0.00000107,-0.00000490,0.00000286,-0.0000024
 6,-0.00000522,0.00000189,-0.00000366,-0.00000414,-0.00000006,-0.000004
 00,-0.00000236,-0.00000165,-0.00000399,0.00000145,-0.00000342,-0.00000
 194,-0.00000076,-0.00000400,-0.00000263,0.00000678,-0.00000439,-0.0000
 0065,0.00000741,-0.00000156,0.00000293,0.00000389,0.00000979,0.0000111
 2,0.00000587\\\@


 I FIND THAT THE THREE TRULY GREAT TIMES FOR THINKING THOUGHTS
 ARE WHEN I AM STANDING IN THE SHOWER, SITTING ON THE JOHN, OR WALKING.

                                    -- COLIN FLETCHER
 Job cpu time:       1 days  1 hours  7 minutes 42.6 seconds.
 Elapsed time:       0 days  1 hours 15 minutes 35.7 seconds.
 File lengths (MBytes):  RWF=   2283 Int=      0 D2E=      0 Chk=     45 Scr=      1
 Normal termination of Gaussian 16 at Fri Sep  6 19:05:20 2019.
