 Entering Gaussian System, Link 0=/share/apps/gaussian16/g16/g16
 Initial command:
 /share/apps/gaussian16/g16/l1.exe "/home/amen01//scratch/525/Gau-22579.inp" -scrdir="/home/amen01//scratch/525/"
 Entering Link 1 = /share/apps/gaussian16/g16/l1.exe PID=     22580.
  
 Copyright (c) 1988-2017, Gaussian, Inc.  All Rights Reserved.
  
 This is part of the Gaussian(R) 16 program.  It is based on
 the Gaussian(R) 09 system (copyright 2009, Gaussian, Inc.),
 the Gaussian(R) 03 system (copyright 2003, Gaussian, Inc.),
 the Gaussian(R) 98 system (copyright 1998, Gaussian, Inc.),
 the Gaussian(R) 94 system (copyright 1995, Gaussian, Inc.),
 the Gaussian 92(TM) system (copyright 1992, Gaussian, Inc.),
 the Gaussian 90(TM) system (copyright 1990, Gaussian, Inc.),
 the Gaussian 88(TM) system (copyright 1988, Gaussian, Inc.),
 the Gaussian 86(TM) system (copyright 1986, Carnegie Mellon
 University), and the Gaussian 82(TM) system (copyright 1983,
 Carnegie Mellon University). Gaussian is a federally registered
 trademark of Gaussian, Inc.
  
 This software contains proprietary and confidential information,
 including trade secrets, belonging to Gaussian, Inc.
  
 This software is provided under written license and may be
 used, copied, transmitted, or stored only in accord with that
 written license.
  
 The following legend is applicable only to US Government
 contracts under FAR:
  
                    RESTRICTED RIGHTS LEGEND
  
 Use, reproduction and disclosure by the US Government is
 subject to restrictions as set forth in subparagraphs (a)
 and (c) of the Commercial Computer Software - Restricted
 Rights clause in FAR 52.227-19.
  
 Gaussian, Inc.
 340 Quinnipiac St., Bldg. 40, Wallingford CT 06492
  
  
 ---------------------------------------------------------------
 Warning -- This program may not be used in any manner that
 competes with the business of Gaussian, Inc. or will provide
 assistance to any competitor of Gaussian, Inc.  The licensee
 of this program is prohibited from giving any competitor of
 Gaussian, Inc. access to this program.  By using this program,
 the user acknowledges that Gaussian, Inc. is engaged in the
 business of creating and licensing software in the field of
 computational chemistry and represents and warrants to the
 licensee that it is not a competitor of Gaussian, Inc. and that
 it will not use this program in any manner prohibited above.
 ---------------------------------------------------------------
  

 Cite this work as:
 Gaussian 16, Revision B.01,
 M. J. Frisch, G. W. Trucks, H. B. Schlegel, G. E. Scuseria, 
 M. A. Robb, J. R. Cheeseman, G. Scalmani, V. Barone, 
 G. A. Petersson, H. Nakatsuji, X. Li, M. Caricato, A. V. Marenich, 
 J. Bloino, B. G. Janesko, R. Gomperts, B. Mennucci, H. P. Hratchian, 
 J. V. Ortiz, A. F. Izmaylov, J. L. Sonnenberg, D. Williams-Young, 
 F. Ding, F. Lipparini, F. Egidi, J. Goings, B. Peng, A. Petrone, 
 T. Henderson, D. Ranasinghe, V. G. Zakrzewski, J. Gao, N. Rega, 
 G. Zheng, W. Liang, M. Hada, M. Ehara, K. Toyota, R. Fukuda, 
 J. Hasegawa, M. Ishida, T. Nakajima, Y. Honda, O. Kitao, H. Nakai, 
 T. Vreven, K. Throssell, J. A. Montgomery, Jr., J. E. Peralta, 
 F. Ogliaro, M. J. Bearpark, J. J. Heyd, E. N. Brothers, K. N. Kudin, 
 V. N. Staroverov, T. A. Keith, R. Kobayashi, J. Normand, 
 K. Raghavachari, A. P. Rendell, J. C. Burant, S. S. Iyengar, 
 J. Tomasi, M. Cossi, J. M. Millam, M. Klene, C. Adamo, R. Cammi, 
 J. W. Ochterski, R. L. Martin, K. Morokuma, O. Farkas, 
 J. B. Foresman, and D. J. Fox, Gaussian, Inc., Wallingford CT, 2016.
 
 ******************************************
 Gaussian 16:  ES64L-G16RevB.01 20-Dec-2017
                18-Jun-2019 
 ******************************************
 %nprocshared=20
 Will use up to   20 processors via shared memory.
 %mem=100GB
 %chk=7-memb-carbTguess-3a.chk
 ---------------------------------------------------------------
 # opt=(ts,calcfc,noeigen) freq b3lyp/6-311+g(d,p) int=grid=fine
 ---------------------------------------------------------------
 1/5=1,10=4,11=1,18=20,26=3,38=1/1,3;
 2/9=110,12=2,17=6,18=5,40=1/2;
 3/5=4,6=6,7=111,11=2,25=1,30=1,71=2,74=-5,75=-4,140=1/1,2,3;
 4//1;
 5/5=2,38=5/2;
 8/6=4,10=90,11=11/1;
 11/6=1,8=1,9=11,15=111,16=1/1,2,10;
 10/6=1,13=1/2;
 6/7=2,8=2,9=2,10=2,28=1/1;
 7/10=1,18=20,25=1/1,2,3,16;
 1/5=1,10=4,11=1,18=20,26=3/3(2);
 2/9=110/2;
 99//99;
 2/9=110/2;
 3/5=4,6=6,7=111,11=2,25=1,30=1,71=1,74=-5,75=-4/1,2,3;
 4/5=5,16=3,69=1/1;
 5/5=2,38=5/2;
 7//1,2,3,16;
 1/5=1,11=1,18=20,26=3/3(-5);
 2/9=110/2;
 6/7=2,8=2,9=2,10=2,19=2,28=1/1;
 99/9=1/99;
 ---------------------
 7-memb-carbTSguess-3a
 ---------------------
 Symbolic Z-matrix:
 Charge =  0 Multiplicity = 1
 C                     1.71993  -2.6897   -0.02157 
 C                     1.51284  -1.4046    0.45978 
 C                     2.56183  -0.48075   0.59888 
 C                     3.87781  -0.75227   0.25283 
 C                     3.10662  -3.05165  -0.20928 
 C                     4.1338   -2.13074  -0.08318 
 C                     1.99589   0.80429   0.63438 
 C                     2.72931   1.91364   0.24549 
 C                     4.13725   1.68782   0.05305 
 C                     4.69314   0.41415   0.0632 
 C                     0.56536   0.68498   0.57161 
 C                    -0.18441   1.80096   0.09456 
 C                     0.58335   3.00701  -0.2713 
 C                     1.95522   3.06891  -0.14726 
 C                     0.53838  -3.38708  -0.42541 
 C                    -0.71238  -2.76649  -0.40794 
 C                    -0.88522  -1.3797    0.02089 
 C                     0.27535  -0.70358   0.44301 
 C                    -0.18406   4.12674  -0.7918 
 C                    -1.55157   1.7412    0.02148 
 C                    -2.3234    2.83955  -0.65072 
 C                    -1.50878   4.05135  -0.98973 
 C                    -1.90262  -3.46506  -0.82594 
 C                    -3.12798  -2.89618  -0.72374 
 C                    -3.31073  -1.56894  -0.17933 
 C                    -2.14673  -0.77203   0.10593 
 C                    -2.30408   0.59946   0.67655 
 C                    -3.66624   0.94299   1.09105 
 C                    -4.56691  -1.10757   0.17586 
 C                    -4.72914   0.12526   0.86239 
 H                    -5.71803   0.41738   1.19824 
 H                    -3.81297   1.88194   1.61102 
 H                    -1.33041   0.42786   2.06229 
 H                    -5.43571  -1.72546  -0.02504 
 H                    -4.01537  -3.45401  -1.0043 
 H                    -1.80134  -4.47825  -1.20085 
 H                     0.60648  -4.40506  -0.79641 
 H                     3.34905  -4.0595   -0.53094 
 H                     5.14635  -2.44633  -0.31444 
 H                     5.74897   0.30489  -0.16383 
 H                     4.77653   2.53066  -0.18981 
 H                     2.46487   3.98154  -0.44093 
 H                     0.35456   5.03367  -1.04854 
 H                    -2.04275   4.89343  -1.41867 
 H                    -2.79568   2.45481  -1.56912 
 H                    -3.1855    3.13069  -0.03107 
 
 Add virtual bond connecting atoms H33        and C27        Dist= 3.22D+00.

 GradGradGradGradGradGradGradGradGradGradGradGradGradGradGradGradGradGrad
 Berny optimization.
 Initialization pass.
                           ----------------------------
                           !    Initial Parameters    !
                           ! (Angstroms and Degrees)  !
 --------------------------                            --------------------------
 ! Name  Definition              Value          Derivative Info.                !
 --------------------------------------------------------------------------------
 ! R1    R(1,2)                  1.3878         calculate D2E/DX2 analytically  !
 ! R2    R(1,5)                  1.4454         calculate D2E/DX2 analytically  !
 ! R3    R(1,15)                 1.4302         calculate D2E/DX2 analytically  !
 ! R4    R(2,3)                  1.4047         calculate D2E/DX2 analytically  !
 ! R5    R(2,18)                 1.4224         calculate D2E/DX2 analytically  !
 ! R6    R(3,4)                  1.3875         calculate D2E/DX2 analytically  !
 ! R7    R(3,7)                  1.4046         calculate D2E/DX2 analytically  !
 ! R8    R(4,6)                  1.4417         calculate D2E/DX2 analytically  !
 ! R9    R(4,10)                 1.4357         calculate D2E/DX2 analytically  !
 ! R10   R(5,6)                  1.3853         calculate D2E/DX2 analytically  !
 ! R11   R(5,38)                 1.0854         calculate D2E/DX2 analytically  !
 ! R12   R(6,39)                 1.0855         calculate D2E/DX2 analytically  !
 ! R13   R(7,8)                  1.3856         calculate D2E/DX2 analytically  !
 ! R14   R(7,11)                 1.4369         calculate D2E/DX2 analytically  !
 ! R15   R(8,9)                  1.4389         calculate D2E/DX2 analytically  !
 ! R16   R(8,14)                 1.445          calculate D2E/DX2 analytically  !
 ! R17   R(9,10)                 1.3897         calculate D2E/DX2 analytically  !
 ! R18   R(9,41)                 1.0854         calculate D2E/DX2 analytically  !
 ! R19   R(10,40)                1.0855         calculate D2E/DX2 analytically  !
 ! R20   R(11,12)                1.4266         calculate D2E/DX2 analytically  !
 ! R21   R(11,18)                1.4243         calculate D2E/DX2 analytically  !
 ! R22   R(12,13)                1.4758         calculate D2E/DX2 analytically  !
 ! R23   R(12,20)                1.3704         calculate D2E/DX2 analytically  !
 ! R24   R(13,14)                1.3789         calculate D2E/DX2 analytically  !
 ! R25   R(13,19)                1.4538         calculate D2E/DX2 analytically  !
 ! R26   R(14,42)                1.0858         calculate D2E/DX2 analytically  !
 ! R27   R(15,16)                1.3964         calculate D2E/DX2 analytically  !
 ! R28   R(15,37)                1.0856         calculate D2E/DX2 analytically  !
 ! R29   R(16,17)                1.4618         calculate D2E/DX2 analytically  !
 ! R30   R(16,23)                1.442          calculate D2E/DX2 analytically  !
 ! R31   R(17,18)                1.4079         calculate D2E/DX2 analytically  !
 ! R32   R(17,26)                1.4028         calculate D2E/DX2 analytically  !
 ! R33   R(19,22)                1.3415         calculate D2E/DX2 analytically  !
 ! R34   R(19,43)                1.0856         calculate D2E/DX2 analytically  !
 ! R35   R(20,21)                1.5013         calculate D2E/DX2 analytically  !
 ! R36   R(20,27)                1.5162         calculate D2E/DX2 analytically  !
 ! R37   R(21,22)                1.499          calculate D2E/DX2 analytically  !
 ! R38   R(21,45)                1.1021         calculate D2E/DX2 analytically  !
 ! R39   R(21,46)                1.1009         calculate D2E/DX2 analytically  !
 ! R40   R(22,44)                1.0855         calculate D2E/DX2 analytically  !
 ! R41   R(23,24)                1.3548         calculate D2E/DX2 analytically  !
 ! R42   R(23,36)                1.0851         calculate D2E/DX2 analytically  !
 ! R43   R(24,25)                1.4461         calculate D2E/DX2 analytically  !
 ! R44   R(24,35)                1.0851         calculate D2E/DX2 analytically  !
 ! R45   R(25,26)                1.4392         calculate D2E/DX2 analytically  !
 ! R46   R(25,29)                1.3846         calculate D2E/DX2 analytically  !
 ! R47   R(26,27)                1.4938         calculate D2E/DX2 analytically  !
 ! R48   R(27,28)                1.4647         calculate D2E/DX2 analytically  !
 ! R49   R(27,33)                1.7023         calculate D2E/DX2 analytically  !
 ! R50   R(28,30)                1.3604         calculate D2E/DX2 analytically  !
 ! R51   R(28,32)                1.0833         calculate D2E/DX2 analytically  !
 ! R52   R(29,30)                1.4204         calculate D2E/DX2 analytically  !
 ! R53   R(29,34)                1.0849         calculate D2E/DX2 analytically  !
 ! R54   R(30,31)                1.0844         calculate D2E/DX2 analytically  !
 ! A1    A(2,1,5)              114.8396         calculate D2E/DX2 analytically  !
 ! A2    A(2,1,15)             115.2248         calculate D2E/DX2 analytically  !
 ! A3    A(5,1,15)             129.3324         calculate D2E/DX2 analytically  !
 ! A4    A(1,2,3)              122.1347         calculate D2E/DX2 analytically  !
 ! A5    A(1,2,18)             125.5993         calculate D2E/DX2 analytically  !
 ! A6    A(3,2,18)             109.0705         calculate D2E/DX2 analytically  !
 ! A7    A(2,3,4)              123.7008         calculate D2E/DX2 analytically  !
 ! A8    A(2,3,7)              107.6566         calculate D2E/DX2 analytically  !
 ! A9    A(4,3,7)              124.5742         calculate D2E/DX2 analytically  !
 ! A10   A(3,4,6)              114.4324         calculate D2E/DX2 analytically  !
 ! A11   A(3,4,10)             114.3662         calculate D2E/DX2 analytically  !
 ! A12   A(6,4,10)             130.1779         calculate D2E/DX2 analytically  !
 ! A13   A(1,5,6)              122.2141         calculate D2E/DX2 analytically  !
 ! A14   A(1,5,38)             119.0328         calculate D2E/DX2 analytically  !
 ! A15   A(6,5,38)             118.5975         calculate D2E/DX2 analytically  !
 ! A16   A(4,6,5)              121.6784         calculate D2E/DX2 analytically  !
 ! A17   A(4,6,39)             119.554          calculate D2E/DX2 analytically  !
 ! A18   A(5,6,39)             118.6195         calculate D2E/DX2 analytically  !
 ! A19   A(3,7,8)              120.8058         calculate D2E/DX2 analytically  !
 ! A20   A(3,7,11)             108.9094         calculate D2E/DX2 analytically  !
 ! A21   A(8,7,11)             125.536          calculate D2E/DX2 analytically  !
 ! A22   A(7,8,9)              115.4571         calculate D2E/DX2 analytically  !
 ! A23   A(7,8,14)             115.6471         calculate D2E/DX2 analytically  !
 ! A24   A(9,8,14)             127.8285         calculate D2E/DX2 analytically  !
 ! A25   A(8,9,10)             122.2937         calculate D2E/DX2 analytically  !
 ! A26   A(8,9,41)             118.9725         calculate D2E/DX2 analytically  !
 ! A27   A(10,9,41)            118.5374         calculate D2E/DX2 analytically  !
 ! A28   A(4,10,9)             121.2247         calculate D2E/DX2 analytically  !
 ! A29   A(4,10,40)            119.8832         calculate D2E/DX2 analytically  !
 ! A30   A(9,10,40)            118.672          calculate D2E/DX2 analytically  !
 ! A31   A(7,11,12)            118.223          calculate D2E/DX2 analytically  !
 ! A32   A(7,11,18)            106.7148         calculate D2E/DX2 analytically  !
 ! A33   A(12,11,18)           128.7127         calculate D2E/DX2 analytically  !
 ! A34   A(11,12,13)           116.6654         calculate D2E/DX2 analytically  !
 ! A35   A(11,12,20)           120.5338         calculate D2E/DX2 analytically  !
 ! A36   A(13,12,20)           122.7807         calculate D2E/DX2 analytically  !
 ! A37   A(12,13,14)           122.1408         calculate D2E/DX2 analytically  !
 ! A38   A(12,13,19)           116.3324         calculate D2E/DX2 analytically  !
 ! A39   A(14,13,19)           121.5203         calculate D2E/DX2 analytically  !
 ! A40   A(8,14,13)            121.4352         calculate D2E/DX2 analytically  !
 ! A41   A(8,14,42)            119.6073         calculate D2E/DX2 analytically  !
 ! A42   A(13,14,42)           118.7133         calculate D2E/DX2 analytically  !
 ! A43   A(1,15,16)            121.316          calculate D2E/DX2 analytically  !
 ! A44   A(1,15,37)            120.1254         calculate D2E/DX2 analytically  !
 ! A45   A(16,15,37)           118.5034         calculate D2E/DX2 analytically  !
 ! A46   A(15,16,17)           122.0858         calculate D2E/DX2 analytically  !
 ! A47   A(15,16,23)           121.3593         calculate D2E/DX2 analytically  !
 ! A48   A(17,16,23)           116.5529         calculate D2E/DX2 analytically  !
 ! A49   A(16,17,18)           116.4916         calculate D2E/DX2 analytically  !
 ! A50   A(16,17,26)           122.3467         calculate D2E/DX2 analytically  !
 ! A51   A(18,17,26)           121.0031         calculate D2E/DX2 analytically  !
 ! A52   A(2,18,11)            107.5938         calculate D2E/DX2 analytically  !
 ! A53   A(2,18,17)            118.9488         calculate D2E/DX2 analytically  !
 ! A54   A(11,18,17)           131.5346         calculate D2E/DX2 analytically  !
 ! A55   A(13,19,22)           122.0575         calculate D2E/DX2 analytically  !
 ! A56   A(13,19,43)           117.7883         calculate D2E/DX2 analytically  !
 ! A57   A(22,19,43)           120.131          calculate D2E/DX2 analytically  !
 ! A58   A(12,20,21)           120.322          calculate D2E/DX2 analytically  !
 ! A59   A(12,20,27)           120.3262         calculate D2E/DX2 analytically  !
 ! A60   A(21,20,27)           119.2869         calculate D2E/DX2 analytically  !
 ! A61   A(20,21,22)           114.4119         calculate D2E/DX2 analytically  !
 ! A62   A(20,21,45)           109.7567         calculate D2E/DX2 analytically  !
 ! A63   A(20,21,46)           110.1241         calculate D2E/DX2 analytically  !
 ! A64   A(22,21,45)           109.0657         calculate D2E/DX2 analytically  !
 ! A65   A(22,21,46)           109.8209         calculate D2E/DX2 analytically  !
 ! A66   A(45,21,46)           103.0495         calculate D2E/DX2 analytically  !
 ! A67   A(19,22,21)           123.2775         calculate D2E/DX2 analytically  !
 ! A68   A(19,22,44)           120.0311         calculate D2E/DX2 analytically  !
 ! A69   A(21,22,44)           116.691          calculate D2E/DX2 analytically  !
 ! A70   A(16,23,24)           121.4155         calculate D2E/DX2 analytically  !
 ! A71   A(16,23,36)           118.39           calculate D2E/DX2 analytically  !
 ! A72   A(24,23,36)           120.1694         calculate D2E/DX2 analytically  !
 ! A73   A(23,24,25)           121.8741         calculate D2E/DX2 analytically  !
 ! A74   A(23,24,35)           120.2846         calculate D2E/DX2 analytically  !
 ! A75   A(25,24,35)           117.7637         calculate D2E/DX2 analytically  !
 ! A76   A(24,25,26)           118.7244         calculate D2E/DX2 analytically  !
 ! A77   A(24,25,29)           121.1345         calculate D2E/DX2 analytically  !
 ! A78   A(26,25,29)           119.896          calculate D2E/DX2 analytically  !
 ! A79   A(17,26,25)           118.3877         calculate D2E/DX2 analytically  !
 ! A80   A(17,26,27)           121.0375         calculate D2E/DX2 analytically  !
 ! A81   A(25,26,27)           119.9276         calculate D2E/DX2 analytically  !
 ! A82   A(20,27,26)           118.2972         calculate D2E/DX2 analytically  !
 ! A83   A(20,27,28)           114.0304         calculate D2E/DX2 analytically  !
 ! A84   A(20,27,33)            98.2639         calculate D2E/DX2 analytically  !
 ! A85   A(26,27,28)           114.9236         calculate D2E/DX2 analytically  !
 ! A86   A(26,27,33)            99.1002         calculate D2E/DX2 analytically  !
 ! A87   A(28,27,33)           108.9787         calculate D2E/DX2 analytically  !
 ! A88   A(27,28,30)           122.5525         calculate D2E/DX2 analytically  !
 ! A89   A(27,28,32)           117.7157         calculate D2E/DX2 analytically  !
 ! A90   A(30,28,32)           119.726          calculate D2E/DX2 analytically  !
 ! A91   A(25,29,30)           121.1205         calculate D2E/DX2 analytically  !
 ! A92   A(25,29,34)           119.293          calculate D2E/DX2 analytically  !
 ! A93   A(30,29,34)           119.4973         calculate D2E/DX2 analytically  !
 ! A94   A(28,30,29)           120.9119         calculate D2E/DX2 analytically  !
 ! A95   A(28,30,31)           119.8996         calculate D2E/DX2 analytically  !
 ! A96   A(29,30,31)           119.186          calculate D2E/DX2 analytically  !
 ! D1    D(5,1,2,3)              7.2424         calculate D2E/DX2 analytically  !
 ! D2    D(5,1,2,18)           164.7939         calculate D2E/DX2 analytically  !
 ! D3    D(15,1,2,3)          -164.6985         calculate D2E/DX2 analytically  !
 ! D4    D(15,1,2,18)           -7.147          calculate D2E/DX2 analytically  !
 ! D5    D(2,1,5,6)             -7.9419         calculate D2E/DX2 analytically  !
 ! D6    D(2,1,5,38)           176.6585         calculate D2E/DX2 analytically  !
 ! D7    D(15,1,5,6)           162.6208         calculate D2E/DX2 analytically  !
 ! D8    D(15,1,5,38)          -12.7788         calculate D2E/DX2 analytically  !
 ! D9    D(2,1,15,16)            3.9226         calculate D2E/DX2 analytically  !
 ! D10   D(2,1,15,37)         -178.8205         calculate D2E/DX2 analytically  !
 ! D11   D(5,1,15,16)         -166.6102         calculate D2E/DX2 analytically  !
 ! D12   D(5,1,15,37)           10.6468         calculate D2E/DX2 analytically  !
 ! D13   D(1,2,3,4)              1.1374         calculate D2E/DX2 analytically  !
 ! D14   D(1,2,3,7)            159.2803         calculate D2E/DX2 analytically  !
 ! D15   D(18,2,3,4)          -159.6838         calculate D2E/DX2 analytically  !
 ! D16   D(18,2,3,7)            -1.5409         calculate D2E/DX2 analytically  !
 ! D17   D(1,2,18,11)         -159.864          calculate D2E/DX2 analytically  !
 ! D18   D(1,2,18,17)            6.1454         calculate D2E/DX2 analytically  !
 ! D19   D(3,2,18,11)            0.1293         calculate D2E/DX2 analytically  !
 ! D20   D(3,2,18,17)          166.1387         calculate D2E/DX2 analytically  !
 ! D21   D(2,3,4,6)             -8.6652         calculate D2E/DX2 analytically  !
 ! D22   D(2,3,4,10)           160.9655         calculate D2E/DX2 analytically  !
 ! D23   D(7,3,4,6)           -163.1439         calculate D2E/DX2 analytically  !
 ! D24   D(7,3,4,10)             6.4869         calculate D2E/DX2 analytically  !
 ! D25   D(2,3,7,8)           -154.5005         calculate D2E/DX2 analytically  !
 ! D26   D(2,3,7,11)             2.3594         calculate D2E/DX2 analytically  !
 ! D27   D(4,3,7,8)              3.4033         calculate D2E/DX2 analytically  !
 ! D28   D(4,3,7,11)           160.2632         calculate D2E/DX2 analytically  !
 ! D29   D(3,4,6,5)              7.7788         calculate D2E/DX2 analytically  !
 ! D30   D(3,4,6,39)          -176.7075         calculate D2E/DX2 analytically  !
 ! D31   D(10,4,6,5)          -159.8295         calculate D2E/DX2 analytically  !
 ! D32   D(10,4,6,39)           15.6842         calculate D2E/DX2 analytically  !
 ! D33   D(3,4,10,9)            -8.3272         calculate D2E/DX2 analytically  !
 ! D34   D(3,4,10,40)          177.1349         calculate D2E/DX2 analytically  !
 ! D35   D(6,4,10,9)           159.2878         calculate D2E/DX2 analytically  !
 ! D36   D(6,4,10,40)          -15.2502         calculate D2E/DX2 analytically  !
 ! D37   D(1,5,6,4)              0.4031         calculate D2E/DX2 analytically  !
 ! D38   D(1,5,6,39)          -175.1512         calculate D2E/DX2 analytically  !
 ! D39   D(38,5,6,4)           175.8219         calculate D2E/DX2 analytically  !
 ! D40   D(38,5,6,39)            0.2676         calculate D2E/DX2 analytically  !
 ! D41   D(3,7,8,9)            -10.9637         calculate D2E/DX2 analytically  !
 ! D42   D(3,7,8,14)           158.165          calculate D2E/DX2 analytically  !
 ! D43   D(11,7,8,9)          -163.7788         calculate D2E/DX2 analytically  !
 ! D44   D(11,7,8,14)            5.3499         calculate D2E/DX2 analytically  !
 ! D45   D(3,7,11,12)         -156.7288         calculate D2E/DX2 analytically  !
 ! D46   D(3,7,11,18)           -2.2684         calculate D2E/DX2 analytically  !
 ! D47   D(8,7,11,12)           -1.2348         calculate D2E/DX2 analytically  !
 ! D48   D(8,7,11,18)          153.2256         calculate D2E/DX2 analytically  !
 ! D49   D(7,8,9,10)             9.0484         calculate D2E/DX2 analytically  !
 ! D50   D(7,8,9,41)          -176.1224         calculate D2E/DX2 analytically  !
 ! D51   D(14,8,9,10)         -158.5209         calculate D2E/DX2 analytically  !
 ! D52   D(14,8,9,41)           16.3084         calculate D2E/DX2 analytically  !
 ! D53   D(7,8,14,13)           -7.2146         calculate D2E/DX2 analytically  !
 ! D54   D(7,8,14,42)          178.5361         calculate D2E/DX2 analytically  !
 ! D55   D(9,8,14,13)          160.3347         calculate D2E/DX2 analytically  !
 ! D56   D(9,8,14,42)          -13.9147         calculate D2E/DX2 analytically  !
 ! D57   D(8,9,10,4)             0.7428         calculate D2E/DX2 analytically  !
 ! D58   D(8,9,10,40)          175.3453         calculate D2E/DX2 analytically  !
 ! D59   D(41,9,10,4)         -174.108          calculate D2E/DX2 analytically  !
 ! D60   D(41,9,10,40)           0.4945         calculate D2E/DX2 analytically  !
 ! D61   D(7,11,12,13)          -1.2513         calculate D2E/DX2 analytically  !
 ! D62   D(7,11,12,20)        -179.6668         calculate D2E/DX2 analytically  !
 ! D63   D(18,11,12,13)       -149.301          calculate D2E/DX2 analytically  !
 ! D64   D(18,11,12,20)         32.2836         calculate D2E/DX2 analytically  !
 ! D65   D(7,11,18,2)            1.295          calculate D2E/DX2 analytically  !
 ! D66   D(7,11,18,17)        -162.2886         calculate D2E/DX2 analytically  !
 ! D67   D(12,11,18,2)         152.1618         calculate D2E/DX2 analytically  !
 ! D68   D(12,11,18,17)        -11.4218         calculate D2E/DX2 analytically  !
 ! D69   D(11,12,13,14)         -0.7539         calculate D2E/DX2 analytically  !
 ! D70   D(11,12,13,19)        178.3362         calculate D2E/DX2 analytically  !
 ! D71   D(20,12,13,14)        177.6227         calculate D2E/DX2 analytically  !
 ! D72   D(20,12,13,19)         -3.2872         calculate D2E/DX2 analytically  !
 ! D73   D(11,12,20,21)       -171.7117         calculate D2E/DX2 analytically  !
 ! D74   D(11,12,20,27)         11.2396         calculate D2E/DX2 analytically  !
 ! D75   D(13,12,20,21)          9.9726         calculate D2E/DX2 analytically  !
 ! D76   D(13,12,20,27)       -167.0761         calculate D2E/DX2 analytically  !
 ! D77   D(12,13,14,8)           5.1859         calculate D2E/DX2 analytically  !
 ! D78   D(12,13,14,42)        179.4852         calculate D2E/DX2 analytically  !
 ! D79   D(19,13,14,8)        -173.8575         calculate D2E/DX2 analytically  !
 ! D80   D(19,13,14,42)          0.4418         calculate D2E/DX2 analytically  !
 ! D81   D(12,13,19,22)         -3.0341         calculate D2E/DX2 analytically  !
 ! D82   D(12,13,19,43)        178.7197         calculate D2E/DX2 analytically  !
 ! D83   D(14,13,19,22)        176.0621         calculate D2E/DX2 analytically  !
 ! D84   D(14,13,19,43)         -2.1841         calculate D2E/DX2 analytically  !
 ! D85   D(1,15,16,17)          -0.0161         calculate D2E/DX2 analytically  !
 ! D86   D(1,15,16,23)         179.4535         calculate D2E/DX2 analytically  !
 ! D87   D(37,15,16,17)       -177.3163         calculate D2E/DX2 analytically  !
 ! D88   D(37,15,16,23)          2.1533         calculate D2E/DX2 analytically  !
 ! D89   D(15,16,17,18)         -1.1979         calculate D2E/DX2 analytically  !
 ! D90   D(15,16,17,26)       -176.6595         calculate D2E/DX2 analytically  !
 ! D91   D(23,16,17,18)        179.3084         calculate D2E/DX2 analytically  !
 ! D92   D(23,16,17,26)          3.8469         calculate D2E/DX2 analytically  !
 ! D93   D(15,16,23,24)        175.4288         calculate D2E/DX2 analytically  !
 ! D94   D(15,16,23,36)         -2.75           calculate D2E/DX2 analytically  !
 ! D95   D(17,16,23,24)         -5.0735         calculate D2E/DX2 analytically  !
 ! D96   D(17,16,23,36)        176.7477         calculate D2E/DX2 analytically  !
 ! D97   D(16,17,18,2)          -1.5837         calculate D2E/DX2 analytically  !
 ! D98   D(16,17,18,11)        160.4858         calculate D2E/DX2 analytically  !
 ! D99   D(26,17,18,2)         173.9432         calculate D2E/DX2 analytically  !
 ! D100  D(26,17,18,11)        -23.9873         calculate D2E/DX2 analytically  !
 ! D101  D(16,17,26,25)          3.0412         calculate D2E/DX2 analytically  !
 ! D102  D(16,17,26,27)        173.8121         calculate D2E/DX2 analytically  !
 ! D103  D(18,17,26,25)       -172.2194         calculate D2E/DX2 analytically  !
 ! D104  D(18,17,26,27)         -1.4486         calculate D2E/DX2 analytically  !
 ! D105  D(13,19,22,21)          2.3094         calculate D2E/DX2 analytically  !
 ! D106  D(13,19,22,44)       -177.4522         calculate D2E/DX2 analytically  !
 ! D107  D(43,19,22,21)       -179.4845         calculate D2E/DX2 analytically  !
 ! D108  D(43,19,22,44)          0.7538         calculate D2E/DX2 analytically  !
 ! D109  D(12,20,21,22)        -10.0364         calculate D2E/DX2 analytically  !
 ! D110  D(12,20,21,45)        112.9319         calculate D2E/DX2 analytically  !
 ! D111  D(12,20,21,46)       -134.2925         calculate D2E/DX2 analytically  !
 ! D112  D(27,20,21,22)        167.0428         calculate D2E/DX2 analytically  !
 ! D113  D(27,20,21,45)        -69.9889         calculate D2E/DX2 analytically  !
 ! D114  D(27,20,21,46)         42.7867         calculate D2E/DX2 analytically  !
 ! D115  D(12,20,27,26)        -68.0546         calculate D2E/DX2 analytically  !
 ! D116  D(12,20,27,28)        152.1216         calculate D2E/DX2 analytically  !
 ! D117  D(12,20,27,33)         36.998          calculate D2E/DX2 analytically  !
 ! D118  D(21,20,27,26)        114.8663         calculate D2E/DX2 analytically  !
 ! D119  D(21,20,27,28)        -24.9575         calculate D2E/DX2 analytically  !
 ! D120  D(21,20,27,33)       -140.0811         calculate D2E/DX2 analytically  !
 ! D121  D(20,21,22,19)          4.0565         calculate D2E/DX2 analytically  !
 ! D122  D(20,21,22,44)       -176.1745         calculate D2E/DX2 analytically  !
 ! D123  D(45,21,22,19)       -119.2846         calculate D2E/DX2 analytically  !
 ! D124  D(45,21,22,44)         60.4845         calculate D2E/DX2 analytically  !
 ! D125  D(46,21,22,19)        128.4739         calculate D2E/DX2 analytically  !
 ! D126  D(46,21,22,44)        -51.757          calculate D2E/DX2 analytically  !
 ! D127  D(16,23,24,25)         -0.6658         calculate D2E/DX2 analytically  !
 ! D128  D(16,23,24,35)       -177.3903         calculate D2E/DX2 analytically  !
 ! D129  D(36,23,24,25)        177.481          calculate D2E/DX2 analytically  !
 ! D130  D(36,23,24,35)          0.7564         calculate D2E/DX2 analytically  !
 ! D131  D(23,24,25,26)          7.8025         calculate D2E/DX2 analytically  !
 ! D132  D(23,24,25,29)       -166.5028         calculate D2E/DX2 analytically  !
 ! D133  D(35,24,25,26)       -175.3939         calculate D2E/DX2 analytically  !
 ! D134  D(35,24,25,29)         10.3008         calculate D2E/DX2 analytically  !
 ! D135  D(24,25,26,17)         -8.7511         calculate D2E/DX2 analytically  !
 ! D136  D(24,25,26,27)       -179.6275         calculate D2E/DX2 analytically  !
 ! D137  D(29,25,26,17)        165.6265         calculate D2E/DX2 analytically  !
 ! D138  D(29,25,26,27)         -5.2498         calculate D2E/DX2 analytically  !
 ! D139  D(24,25,29,30)        172.0592         calculate D2E/DX2 analytically  !
 ! D140  D(24,25,29,34)         -4.4886         calculate D2E/DX2 analytically  !
 ! D141  D(26,25,29,30)         -2.1801         calculate D2E/DX2 analytically  !
 ! D142  D(26,25,29,34)       -178.7279         calculate D2E/DX2 analytically  !
 ! D143  D(17,26,27,20)         58.8078         calculate D2E/DX2 analytically  !
 ! D144  D(17,26,27,28)       -161.7139         calculate D2E/DX2 analytically  !
 ! D145  D(17,26,27,33)        -45.7619         calculate D2E/DX2 analytically  !
 ! D146  D(25,26,27,20)       -130.5621         calculate D2E/DX2 analytically  !
 ! D147  D(25,26,27,28)          8.9163         calculate D2E/DX2 analytically  !
 ! D148  D(25,26,27,33)        124.8682         calculate D2E/DX2 analytically  !
 ! D149  D(20,27,28,30)        135.4541         calculate D2E/DX2 analytically  !
 ! D150  D(20,27,28,32)        -45.4247         calculate D2E/DX2 analytically  !
 ! D151  D(26,27,28,30)         -5.7623         calculate D2E/DX2 analytically  !
 ! D152  D(26,27,28,32)        173.359          calculate D2E/DX2 analytically  !
 ! D153  D(33,27,28,30)       -115.8976         calculate D2E/DX2 analytically  !
 ! D154  D(33,27,28,32)         63.2236         calculate D2E/DX2 analytically  !
 ! D155  D(27,28,30,29)         -1.2876         calculate D2E/DX2 analytically  !
 ! D156  D(27,28,30,31)        179.2906         calculate D2E/DX2 analytically  !
 ! D157  D(32,28,30,29)        179.6083         calculate D2E/DX2 analytically  !
 ! D158  D(32,28,30,31)          0.1864         calculate D2E/DX2 analytically  !
 ! D159  D(25,29,30,28)          5.6165         calculate D2E/DX2 analytically  !
 ! D160  D(25,29,30,31)       -174.9576         calculate D2E/DX2 analytically  !
 ! D161  D(34,29,30,28)       -177.8427         calculate D2E/DX2 analytically  !
 ! D162  D(34,29,30,31)          1.5832         calculate D2E/DX2 analytically  !
 --------------------------------------------------------------------------------
 Trust Radius=3.00D-01 FncErr=1.00D-07 GrdErr=1.00D-06 EigMax=2.50D+02 EigMin=1.00D-04
 Number of steps in this run=    276 maximum allowed number of steps=    276.
 Search for a saddle point of order  1.
 GradGradGradGradGradGradGradGradGradGradGradGradGradGradGradGradGradGrad

                          Input orientation:                          
 ---------------------------------------------------------------------
 Center     Atomic      Atomic             Coordinates (Angstroms)
 Number     Number       Type             X           Y           Z
 ---------------------------------------------------------------------
      1          6           0        1.719929   -2.689704   -0.021569
      2          6           0        1.512841   -1.404600    0.459777
      3          6           0        2.561834   -0.480750    0.598882
      4          6           0        3.877812   -0.752268    0.252833
      5          6           0        3.106619   -3.051650   -0.209281
      6          6           0        4.133805   -2.130744   -0.083183
      7          6           0        1.995891    0.804288    0.634380
      8          6           0        2.729311    1.913643    0.245494
      9          6           0        4.137249    1.687824    0.053047
     10          6           0        4.693138    0.414147    0.063196
     11          6           0        0.565364    0.684975    0.571613
     12          6           0       -0.184412    1.800956    0.094561
     13          6           0        0.583345    3.007006   -0.271296
     14          6           0        1.955215    3.068913   -0.147263
     15          6           0        0.538375   -3.387077   -0.425410
     16          6           0       -0.712384   -2.766489   -0.407939
     17          6           0       -0.885216   -1.379699    0.020893
     18          6           0        0.275353   -0.703580    0.443011
     19          6           0       -0.184061    4.126737   -0.791801
     20          6           0       -1.551565    1.741199    0.021476
     21          6           0       -2.323399    2.839554   -0.650720
     22          6           0       -1.508775    4.051349   -0.989726
     23          6           0       -1.902618   -3.465060   -0.825943
     24          6           0       -3.127980   -2.896175   -0.723744
     25          6           0       -3.310728   -1.568939   -0.179329
     26          6           0       -2.146733   -0.772028    0.105926
     27          6           0       -2.304084    0.599460    0.676551
     28          6           0       -3.666243    0.942985    1.091048
     29          6           0       -4.566913   -1.107571    0.175861
     30          6           0       -4.729144    0.125256    0.862385
     31          1           0       -5.718025    0.417378    1.198243
     32          1           0       -3.812969    1.881944    1.611023
     33          1           0       -1.330413    0.427855    2.062287
     34          1           0       -5.435709   -1.725463   -0.025043
     35          1           0       -4.015365   -3.454012   -1.004296
     36          1           0       -1.801342   -4.478246   -1.200849
     37          1           0        0.606480   -4.405064   -0.796408
     38          1           0        3.349045   -4.059501   -0.530937
     39          1           0        5.146348   -2.446329   -0.314442
     40          1           0        5.748970    0.304887   -0.163825
     41          1           0        4.776526    2.530663   -0.189813
     42          1           0        2.464865    3.981536   -0.440925
     43          1           0        0.354563    5.033675   -1.048539
     44          1           0       -2.042747    4.893430   -1.418667
     45          1           0       -2.795684    2.454807   -1.569123
     46          1           0       -3.185501    3.130689   -0.031073
 ---------------------------------------------------------------------
                    Distance matrix (angstroms):
                    1          2          3          4          5
     1  C    0.000000
     2  C    1.387830   0.000000
     3  C    2.444022   1.404719   0.000000
     4  C    2.912973   2.462001   1.387541   0.000000
     5  C    1.445389   2.387580   2.749444   2.468896   0.000000
     6  C    2.478514   2.773363   2.378820   1.441747   1.385309
     7  C    3.565726   2.267820   1.404590   2.471856   4.100456
     8  C    4.720273   3.540685   2.426118   2.902790   5.000332
     9  C    5.001175   4.076277   2.735431   2.461965   4.857327
    10  C    4.298959   3.685025   2.372816   1.435703   3.821392
    11  C    3.615708   2.297073   2.312045   3.624859   4.585863
    12  C    4.879142   3.645496   3.605883   4.800590   5.871200
    13  C    5.814352   4.567351   4.103178   5.025969   6.563389
    14  C    5.764792   4.536134   3.677612   4.296264   6.228232
    15  C    1.430205   2.379780   3.686502   4.307444   2.599058
    16  C    2.464006   2.749418   4.118106   5.056046   3.834784
    17  C    2.916281   2.438015   3.608924   4.809771   4.333953
    18  C    2.499465   1.422353   2.302595   3.607804   3.735637
    19  C    7.119150   5.919596   5.541018   6.433876   7.918153
    20  C    5.507942   4.413473   4.710680   5.979050   6.687550
    21  C    6.878737   5.827760   6.037502   7.223061   8.024104
    22  C    7.536820   6.403015   6.295511   7.323524   8.506677
    23  C    3.790916   4.190934   5.555859   6.475830   5.063954
    24  C    4.902846   5.016247   6.321202   7.391290   6.257721
    25  C    5.156405   4.868499   6.023019   7.247677   6.586476
    26  C    4.317964   3.730662   4.743253   6.026368   5.735306
    27  C    5.243916   4.316499   4.984982   6.342125   6.587185
    28  C    6.591297   5.721238   6.407667   7.777484   7.969920
    29  C    6.485870   6.093623   7.168744   8.452547   7.925331
    30  C    7.091961   6.439327   7.320863   8.673021   8.522933
    31  H    8.152611   7.493354   8.349966   9.712979   9.585907
    32  H    7.360590   6.363253   6.873490   8.242079   8.691062
    33  H    4.833861   3.742997   4.256372   5.638477   6.078999
    34  H    7.220314   6.972829   8.117838   9.368351   8.646623
    35  H    5.868860   6.074921   7.393917   8.436945   7.177507
    36  H    4.121763   4.815474   6.185169   6.946142   5.206387
    37  H    2.186917   3.376726   4.601139   5.014523   2.902954
    38  H    2.188565   3.376634   3.834534   3.439721   1.085356
    39  H    3.447514   3.858366   3.373036   2.191079   2.130250
    40  H    5.022050   4.610425   3.369983   2.189158   4.272052
    41  H    6.051721   5.153630   3.820407   3.432384   5.826765
    42  H    6.725789   5.543291   4.582859   4.988649   7.066202
    43  H    7.910087   6.713271   6.164002   6.898115   8.581995
    44  H    8.579833   7.472345   7.358973   8.349900   9.544783
    45  H    7.017954   6.129832   6.482341   7.624985   8.185806
    46  H    7.611853   6.548603   6.816978   8.065256   8.822916
                    6          7          8          9         10
     6  C    0.000000
     7  C    3.701349   0.000000
     8  C    4.293914   1.385571   0.000000
     9  C    3.820999   2.388304   1.438860   0.000000
    10  C    2.609741   2.784529   2.477567   1.389737   0.000000
    11  C    4.592472   1.436866   2.509710   3.746062   4.167776
    12  C    5.842675   2.457330   2.919805   4.323341   5.070968
    13  C    6.248010   2.769025   2.463267   3.804691   4.870852
    14  C    5.637978   2.396069   1.445037   2.590136   3.819463
    15  C    3.823952   4.562351   5.774768   6.239827   5.652442
    16  C    4.898488   4.601264   5.846014   6.600936   6.289522
    17  C    5.075970   3.667007   4.895033   5.885226   5.859838
    18  C    4.147448   2.295765   3.593157   4.559071   4.572789
    19  C    7.635586   4.221949   3.802828   5.033466   6.188814
    20  C    6.879413   3.719932   4.290200   5.689152   6.384287
    21  C    8.168320   4.944700   5.214440   6.600132   7.458154
    22  C    8.418955   5.046168   4.904786   6.208962   7.266471
    23  C    6.226596   5.963074   7.178662   7.987793   7.703429
    24  C    7.330056   6.464672   7.640787   8.625544   8.529208
    25  C    7.466320   5.869798   6.985050   8.132212   8.249444
    26  C    6.428610   4.463784   5.568493   6.748489   6.942094
    27  C    7.034033   4.305057   5.219957   6.562322   7.026497
    28  C    8.465659   5.682213   6.523822   7.907384   8.438922
    29  C    8.764501   6.850974   7.897308   9.142853   9.384927
    30  C    9.194319   6.763074   7.694637   9.039335   9.460526
    31  H   10.256390   7.744168   8.631571  10.002596  10.472853
    32  H    9.062186   5.988157   6.683345   8.103761   8.769496
    33  H    6.403682   3.639357   4.689314   5.959857   6.346631
    34  H    9.578269   7.878017   8.943368  10.163570  10.352742
    35  H    8.307133   7.546759   8.710014   9.696472   9.588546
    36  H    6.479654   6.759601   7.967118   8.652141   8.228705
    37  H    4.257140   5.578079   6.746705   7.093038   6.376871
    38  H    2.129891   5.181258   6.055193   5.830441   4.708833
    39  H    1.085504   4.625165   5.016468   4.271364   2.920673
    40  H    2.923621   3.869384   3.445864   2.134758   1.085476
    41  H    4.706716   3.375144   2.182039   1.085373   2.133215
    42  H    6.346125   3.386905   2.194831   2.881318   4.236225
    43  H    8.157419   4.838790   4.128989   5.168842   6.434223
    44  H    9.448404   6.103006   5.866950   7.115771   8.223870
    45  H    8.441156   5.526195   5.840485   7.161373   7.931659
    46  H    9.014302   5.718548   6.045055   7.464021   8.334353
                   11         12         13         14         15
    11  C    0.000000
    12  C    1.426589   0.000000
    13  C    2.470354   1.475757   0.000000
    14  C    2.851601   2.498839   1.378856   0.000000
    15  C    4.192421   5.263884   6.396098   6.615482   0.000000
    16  C    3.808512   4.625237   5.918685   6.421523   1.396364
    17  C    2.582703   3.257778   4.635216   5.280764   2.501073
    18  C    1.424335   2.570117   3.791245   4.171578   2.832753
    19  C    3.777070   2.488955   1.453835   2.472028   7.557351
    20  C    2.428919   1.370409   2.499165   3.753505   5.555787
    21  C    3.805425   2.491866   2.936182   4.314234   6.856490
    22  C    4.251153   2.827346   2.446173   3.697858   7.735597
    23  C    5.026618   5.615201   6.955234   7.618155   2.474865
    24  C    5.305033   5.603325   6.987574   7.858338   3.711084
    25  C    4.546222   4.604895   6.009287   7.017183   4.264009
    26  C    3.113710   3.235905   4.677256   5.625203   3.785578
    27  C    2.872639   2.505058   3.877104   4.991843   5.018602
    28  C    4.271168   3.721861   4.916824   6.136267   6.223174
    29  C    5.450698   5.260461   6.607182   7.751489   5.623312
    30  C    5.331946   4.904295   6.149167   7.373273   6.460778
    31  H    6.320226   5.809757   6.969432   8.229194   7.500178
    32  H    4.656491   3.933528   4.912888   6.145926   7.130486
    33  H    2.425323   2.659073   3.969899   4.759480   4.922876
    34  H    6.494543   6.326615   7.660673   8.810604   6.213770
    35  H    6.371639   6.595330   7.964306   8.884305   4.590875
    36  H    5.949939   6.612180   7.910739   8.495962   2.695595
    37  H    5.270832   6.319337   7.430684   7.622389   1.085622
    38  H    5.610218   6.871792   7.592893   7.273531   2.891912
    39  H    5.619215   6.828156   7.110677   6.374102   4.704332
    40  H    5.249296   6.124541   5.830667   4.693899   6.391348
    41  H    4.660496   5.022375   4.220937   2.872511   7.282656
    42  H    3.937087   3.472800   2.125700   1.085754   7.616302
    43  H    4.645484   3.470972   2.182621   2.689735   8.445777
    44  H    5.336155   3.912373   3.430950   4.574826   8.730152
    45  H    4.360241   3.164507   3.661573   4.996984   6.822876
    46  H    4.518156   3.284891   3.778519   5.142400   7.516916
                   16         17         18         19         20
    16  C    0.000000
    17  C    1.461833   0.000000
    18  C    2.440355   1.407921   0.000000
    19  C    6.924091   5.610074   5.006774   0.000000
    20  C    4.605201   3.191242   3.080952   2.867452   0.000000
    21  C    5.837982   4.507941   4.528085   2.500702   1.501319
    22  C    6.888805   5.559358   5.276855   1.341538   2.522133
    23  C    1.442008   2.470014   3.738927   7.783957   5.286444
    24  C    2.439601   2.807877   4.213249   7.615286   4.954359
    25  C    2.870153   2.441108   3.741140   6.526247   3.753930
    26  C    2.509838   1.402826   2.446388   5.353120   2.584118
    27  C    3.878046   2.521933   2.899302   4.369467   1.516237
    28  C    4.973172   3.778122   4.320568   5.080058   2.500599
    29  C    4.236771   3.694991   4.866428   6.895197   4.151102
    30  C    5.109821   4.212930   5.089974   6.277417   3.662705
    31  H    6.145996   5.288826   6.143900   6.953012   4.527325
    32  H    5.941192   4.662464   4.976300   4.897104   2.767746
    33  H    4.085072   2.762742   2.545719   4.810579   2.436943
    34  H    4.851819   4.563842   5.820614   7.900378   5.206389
    35  H    3.426078   3.892508   5.298097   8.496576   5.840611
    36  H    2.178221   3.454408   4.611187   8.765195   6.343340
    37  H    2.138981   3.470731   3.917498   8.568349   6.565260
    38  H    4.264061   5.041311   4.653855   8.919943   7.613755
    39  H    5.868218   6.134323   5.228528   8.476221   7.906344
    40  H    7.158354   6.847217   5.598727   7.085319   7.442791
    41  H    7.631221   6.884087   5.578651   5.245690   6.380645
    42  H    7.458676   6.338703   5.246486   2.676006   4.622189
    43  H    7.898817   6.619071   5.928498   1.085618   3.952044
    44  H    7.840012   6.539446   6.337662   2.106061   3.500262
    45  H    5.740246   4.569625   4.843073   3.196898   2.141745
    46  H    6.405860   5.063360   5.186895   3.252608   2.145505
                   21         22         23         24         25
    21  C    0.000000
    22  C    1.498994   0.000000
    23  C    6.321069   7.528502   0.000000
    24  C    5.792346   7.138674   1.354838   0.000000
    25  C    4.542228   5.957467   2.448705   1.446147   0.000000
    26  C    3.694218   4.987225   2.860139   2.482579   1.439209
    27  C    2.603851   3.914656   4.351895   3.854750   2.539255
    28  C    2.904128   4.318126   5.120165   4.280461   2.837254
    29  C    4.614801   6.109440   3.695921   2.465547   1.384565
    30  C    3.929950   5.405118   4.871352   3.769427   2.442820
    31  H    4.561698   5.975846   5.807580   4.624068   3.411486
    32  H    2.872511   4.096282   6.178891   5.361974   3.919974
    33  H    3.763339   4.740918   4.880992   4.694933   3.596342
    34  H    5.560335   7.051452   4.018752   2.680366   2.136316
    35  H    6.526618   7.912879   2.120290   1.085055   2.174991
    36  H    7.356995   8.537222   1.085061   2.119091   3.433048
    37  H    7.816003   8.719094   2.679562   4.028426   4.875337
    38  H    8.932409   9.465452   5.293425   6.583491   7.118926
    39  H    9.157006   9.325583   7.140544   8.296650   8.503541
    40  H    8.474948   8.209321   8.555565   9.453071   9.251464
    41  H    7.121572   6.515931   8.998018   9.602961   9.067002
    42  H    4.927028   4.011966   8.641466   8.869206   8.014592
    43  H    3.484811   2.107238   8.796187   8.666956   7.601605
    44  H    2.210637   1.085457   8.380651   7.895479   6.701190
    45  H    1.102065   2.130911   6.032803   5.427531   4.288045
    46  H    1.100882   2.139636   6.766204   6.066811   4.703633
                   26         27         28         29         30
    26  C    0.000000
    27  C    1.493771   0.000000
    28  C    2.494122   1.464682   0.000000
    29  C    2.444330   2.878375   2.419412   0.000000
    30  C    2.836582   2.477967   1.360414   1.420386   0.000000
    31  H    3.919435   3.458368   2.120746   2.166978   1.084445
    32  H    3.476381   2.189689   1.083304   3.400782   2.117968
    33  H    2.435867   1.702277   2.581621   4.048588   3.617002
    34  H    3.426887   3.962900   3.390764   1.084878   2.170697
    35  H    3.452161   4.710028   4.883230   2.683796   4.099407
    36  H    3.944998   5.436955   6.174171   4.572216   5.832769
    37  H    4.646863   5.973797   7.100724   6.211502   7.193349
    38  H    6.435577   7.424407   8.767552   8.477962   9.203840
    39  H    7.494600   8.109737   9.545921   9.817337  10.272454
    40  H    7.973371   8.102141   9.519880  10.417671  10.529779
    41  H    7.676376   7.390208   8.685717  10.033460   9.861585
    42  H    6.645469   5.952316   7.012148   8.702031   8.265790
    43  H    6.426154   5.450376   6.121965   7.964608   7.320402
    44  H    5.867931   4.785020   4.953829   6.702682   5.929200
    45  H    3.693155   2.954156   3.181193   4.344279   3.882951
    46  H    4.040917   2.772138   2.505258   4.462507   3.494815
                   31         32         33         34         35
    31  H    0.000000
    32  H    2.438151   0.000000
    33  H    4.471892   2.912233   0.000000
    34  H    2.483525   4.280582   5.084012   0.000000
    35  H    4.768426   5.945863   5.628658   2.442170   0.000000
    36  H    6.712912   7.239149   5.910978   4.708392   2.447363
    37  H    8.199631   8.053181   5.939764   6.654571   4.723258
    38  H   10.258863   9.548990   6.982729   9.103602   7.404405
    39  H   11.336826  10.134630   7.473835  10.610529   9.242744
    40  H   11.548154   9.852303   7.422153  11.368317  10.496569
    41  H   10.794826   8.800186   6.840209  11.064877  10.666633
    42  H    9.074678   6.930366   5.770516   9.755094   9.879177
    43  H    7.952016   5.863020   5.807750   8.958836   9.546678
    44  H    6.355386   4.624041   5.706647   7.567306   8.587358
    45  H    4.511043   3.387679   4.409387   5.179631   6.059768
    46  H    3.909853   2.156284   3.889578   5.352166   6.707766
                   36         37         38         39         40
    36  H    0.000000
    37  H    2.442649   0.000000
    38  H    5.210625   2.776968   0.000000
    39  H    7.292791   4.967830   2.424766   0.000000
    40  H    8.997833   7.002071   4.994226   2.820466   0.000000
    41  H    9.665161   8.115513   6.751617   4.992269   2.429074
    42  H    9.505047   8.597385   8.090003   6.965902   4.937598
    43  H    9.754372   9.445466   9.587528   8.913504   7.227986
    44  H    9.377315   9.688529  10.488778  10.333173   9.129086
    45  H    7.013670   7.696079   9.015084   9.416540   8.922339
    46  H    7.821775   8.470681   9.728771  10.030111   9.371636
                   41         42         43         44         45
    41  H    0.000000
    42  H    2.740778   0.000000
    43  H    5.153274   2.435070   0.000000
    44  H    7.320877   4.701712   2.429765   0.000000
    45  H    7.697182   5.592594   4.104342   2.556645   0.000000
    46  H    7.986182   5.728748   4.145919   2.517650   1.724637
                   46
    46  H    0.000000
 Stoichiometry    C30H16
 Framework group  C1[X(C30H16)]
 Deg. of freedom   132
 Full point group                 C1      NOp   1
 Largest Abelian subgroup         C1      NOp   1
 Largest concise Abelian subgroup C1      NOp   1
                         Standard orientation:                         
 ---------------------------------------------------------------------
 Center     Atomic      Atomic             Coordinates (Angstroms)
 Number     Number       Type             X           Y           Z
 ---------------------------------------------------------------------
      1          6           0        1.719929   -2.689704   -0.021569
      2          6           0        1.512841   -1.404600    0.459777
      3          6           0        2.561834   -0.480750    0.598882
      4          6           0        3.877812   -0.752268    0.252833
      5          6           0        3.106619   -3.051650   -0.209281
      6          6           0        4.133805   -2.130744   -0.083183
      7          6           0        1.995891    0.804288    0.634380
      8          6           0        2.729311    1.913643    0.245494
      9          6           0        4.137249    1.687824    0.053047
     10          6           0        4.693138    0.414147    0.063196
     11          6           0        0.565364    0.684975    0.571613
     12          6           0       -0.184412    1.800956    0.094561
     13          6           0        0.583345    3.007006   -0.271296
     14          6           0        1.955215    3.068913   -0.147263
     15          6           0        0.538375   -3.387077   -0.425410
     16          6           0       -0.712384   -2.766489   -0.407939
     17          6           0       -0.885216   -1.379699    0.020893
     18          6           0        0.275353   -0.703580    0.443011
     19          6           0       -0.184061    4.126737   -0.791801
     20          6           0       -1.551565    1.741199    0.021476
     21          6           0       -2.323399    2.839554   -0.650720
     22          6           0       -1.508775    4.051349   -0.989726
     23          6           0       -1.902618   -3.465060   -0.825943
     24          6           0       -3.127980   -2.896175   -0.723744
     25          6           0       -3.310728   -1.568939   -0.179329
     26          6           0       -2.146733   -0.772028    0.105926
     27          6           0       -2.304084    0.599460    0.676551
     28          6           0       -3.666243    0.942985    1.091048
     29          6           0       -4.566913   -1.107571    0.175861
     30          6           0       -4.729144    0.125256    0.862385
     31          1           0       -5.718025    0.417378    1.198243
     32          1           0       -3.812969    1.881944    1.611023
     33          1           0       -1.330413    0.427855    2.062287
     34          1           0       -5.435709   -1.725463   -0.025043
     35          1           0       -4.015365   -3.454012   -1.004296
     36          1           0       -1.801342   -4.478246   -1.200849
     37          1           0        0.606480   -4.405064   -0.796408
     38          1           0        3.349045   -4.059501   -0.530937
     39          1           0        5.146348   -2.446329   -0.314442
     40          1           0        5.748970    0.304888   -0.163825
     41          1           0        4.776526    2.530663   -0.189813
     42          1           0        2.464865    3.981536   -0.440925
     43          1           0        0.354563    5.033675   -1.048539
     44          1           0       -2.042747    4.893430   -1.418667
     45          1           0       -2.795684    2.454807   -1.569123
     46          1           0       -3.185501    3.130689   -0.031073
 ---------------------------------------------------------------------
 Rotational constants (GHZ):           0.2495241           0.1760730           0.1081631
 Standard basis: 6-311+G(d,p) (5D, 7F)
 There are   786 symmetry adapted cartesian basis functions of A   symmetry.
 There are   756 symmetry adapted basis functions of A   symmetry.
   756 basis functions,  1208 primitive gaussians,   786 cartesian basis functions
    98 alpha electrons       98 beta electrons
       nuclear repulsion energy      2647.5714297760 Hartrees.
 NAtoms=   46 NActive=   46 NUniq=   46 SFac= 1.00D+00 NAtFMM=   60 NAOKFM=F Big=F
 Integral buffers will be    131072 words long.
 Raffenetti 2 integral format.
 Two-electron integral symmetry is turned on.
 One-electron integrals computed using PRISM.
 NBasis=   756 RedAO= T EigKep=  1.01D-06  NBF=   756
 NBsUse=   737 1.00D-06 EigRej=  7.69D-07 NBFU=   737
 ExpMin= 4.38D-02 ExpMax= 4.56D+03 ExpMxC= 6.82D+02 IAcc=2 IRadAn=         4 AccDes= 0.00D+00
 Harris functional with IExCor=  402 and IRadAn=       4 diagonalized for initial guess.
 HarFok:  IExCor=  402 AccDes= 0.00D+00 IRadAn=         4 IDoV= 1 UseB2=F ITyADJ=14
 ICtDFT=  3500011 ScaDFX=  1.000000  1.000000  1.000000  1.000000
 FoFCou: FMM=F IPFlag=           0 FMFlag=      100000 FMFlg1=           0
         NFxFlg=           0 DoJE=T BraDBF=F KetDBF=T FulRan=T
         wScrn=  0.000000 ICntrl=       500 IOpCl=  0 I1Cent=   200000004 NGrid=           0
         NMat0=    1 NMatS0=      1 NMatT0=    0 NMatD0=    1 NMtDS0=    0 NMtDT0=    0
 Petite list used in FoFCou.
 Requested convergence on RMS density matrix=1.00D-08 within 128 cycles.
 Requested convergence on MAX density matrix=1.00D-06.
 Requested convergence on             energy=1.00D-06.
 No special actions if energy rises.
 SCF Done:  E(RB3LYP) =  -1152.98917405     A.U. after   19 cycles
            NFock= 19  Conv=0.63D-08     -V/T= 2.0046
 DoSCS=F DFT=T ScalE2(SS,OS)=  1.000000  1.000000
 Range of M.O.s used for correlation:     1   737
 NBasis=   756 NAE=    98 NBE=    98 NFC=     0 NFV=     0
 NROrb=    737 NOA=    98 NOB=    98 NVA=   639 NVB=   639

 **** Warning!!: The largest alpha MO coefficient is  0.17690742D+03


 **** Warning!!: The smallest alpha delta epsilon is  0.63736650D-01

 Symmetrizing basis deriv contribution to polar:
 IMax=3 JMax=2 DiffMx= 0.00D+00
 G2DrvN: will do    47 centers at a time, making    1 passes.
 Calling FoFCou, ICntrl=  3107 FMM=F I1Cent=   0 AccDes= 0.00D+00.
 End of G2Drv F.D. properties file   721 does not exist.
 End of G2Drv F.D. properties file   722 does not exist.
 End of G2Drv F.D. properties file   788 does not exist.
          IDoAtm=1111111111111111111111111111111111111111111111
          Differentiating once with respect to nuclear coordinates.
 CalDSu exits because no D1Ps are significant.
          There are   141 degrees of freedom in the 1st order CPHF.  IDoFFX=6 NUNeed=     0.
    136 vectors produced by pass  0 Test12= 6.26D-14 1.00D-09 XBig12= 3.19D-01 1.57D-01.
 AX will form   136 AO Fock derivatives at one time.
    135 vectors produced by pass  1 Test12= 6.26D-14 1.00D-09 XBig12= 8.72D-02 7.01D-02.
    135 vectors produced by pass  2 Test12= 6.26D-14 1.00D-09 XBig12= 1.35D-03 4.77D-03.
    135 vectors produced by pass  3 Test12= 6.26D-14 1.00D-09 XBig12= 6.88D-06 2.72D-04.
    135 vectors produced by pass  4 Test12= 6.26D-14 1.00D-09 XBig12= 2.25D-08 1.52D-05.
    135 vectors produced by pass  5 Test12= 6.26D-14 1.00D-09 XBig12= 1.02D-10 1.04D-06.
    114 vectors produced by pass  6 Test12= 6.26D-14 1.00D-09 XBig12= 1.87D-11 3.42D-07.
     86 vectors produced by pass  7 Test12= 6.26D-14 1.00D-09 XBig12= 3.49D-12 1.08D-07.
     62 vectors produced by pass  8 Test12= 6.26D-14 1.00D-09 XBig12= 3.07D-13 3.53D-08.
      8 vectors produced by pass  9 Test12= 6.26D-14 1.00D-09 XBig12= 2.44D-15 2.89D-09.
      1 vectors produced by pass 10 Test12= 6.26D-14 1.00D-09 XBig12= 2.59D-16 1.19D-09.
 InvSVY:  IOpt=1 It=  1 EMax= 1.22D-15
 Solved reduced A of dimension  1082 with   141 vectors.
 End of Minotr F.D. properties file   721 does not exist.
 End of Minotr F.D. properties file   722 does not exist.
 End of Minotr F.D. properties file   788 does not exist.

 **********************************************************************

            Population analysis using the SCF Density.

 **********************************************************************

 Orbital symmetries:
       Occupied  (A) (A) (A) (A) (A) (A) (A) (A) (A) (A) (A) (A)
                 (A) (A) (A) (A) (A) (A) (A) (A) (A) (A) (A) (A)
                 (A) (A) (A) (A) (A) (A) (A) (A) (A) (A) (A) (A)
                 (A) (A) (A) (A) (A) (A) (A) (A) (A) (A) (A) (A)
                 (A) (A) (A) (A) (A) (A) (A) (A) (A) (A) (A) (A)
                 (A) (A) (A) (A) (A) (A) (A) (A) (A) (A) (A) (A)
                 (A) (A) (A) (A) (A) (A) (A) (A) (A) (A) (A) (A)
                 (A) (A) (A) (A) (A) (A) (A) (A) (A) (A) (A) (A)
                 (A) (A)
       Virtual   (A) (A) (A) (A) (A) (A) (A) (A) (A) (A) (A) (A)
                 (A) (A) (A) (A) (A) (A) (A) (A) (A) (A) (A) (A)
                 (A) (A) (A) (A) (A) (A) (A) (A) (A) (A) (A) (A)
                 (A) (A) (A) (A) (A) (A) (A) (A) (A) (A) (A) (A)
                 (A) (A) (A) (A) (A) (A) (A) (A) (A) (A) (A) (A)
                 (A) (A) (A) (A) (A) (A) (A) (A) (A) (A) (A) (A)
                 (A) (A) (A) (A) (A) (A) (A) (A) (A) (A) (A) (A)
                 (A) (A) (A) (A) (A) (A) (A) (A) (A) (A) (A) (A)
                 (A) (A) (A) (A) (A) (A) (A) (A) (A) (A) (A) (A)
                 (A) (A) (A) (A) (A) (A) (A) (A) (A) (A) (A) (A)
                 (A) (A) (A) (A) (A) (A) (A) (A) (A) (A) (A) (A)
                 (A) (A) (A) (A) (A) (A) (A) (A) (A) (A) (A) (A)
                 (A) (A) (A) (A) (A) (A) (A) (A) (A) (A) (A) (A)
                 (A) (A) (A) (A) (A) (A) (A) (A) (A) (A) (A) (A)
                 (A) (A) (A) (A) (A) (A) (A) (A) (A) (A) (A) (A)
                 (A) (A) (A) (A) (A) (A) (A) (A) (A) (A) (A) (A)
                 (A) (A) (A) (A) (A) (A) (A) (A) (A) (A) (A) (A)
                 (A) (A) (A) (A) (A) (A) (A) (A) (A) (A) (A) (A)
                 (A) (A) (A) (A) (A) (A) (A) (A) (A) (A) (A) (A)
                 (A) (A) (A) (A) (A) (A) (A) (A) (A) (A) (A) (A)
                 (A) (A) (A) (A) (A) (A) (A) (A) (A) (A) (A) (A)
                 (A) (A) (A) (A) (A) (A) (A) (A) (A) (A) (A) (A)
                 (A) (A) (A) (A) (A) (A) (A) (A) (A) (A) (A) (A)
                 (A) (A) (A) (A) (A) (A) (A) (A) (A) (A) (A) (A)
                 (A) (A) (A) (A) (A) (A) (A) (A) (A) (A) (A) (A)
                 (A) (A) (A) (A) (A) (A) (A) (A) (A) (A) (A) (A)
                 (A) (A) (A) (A) (A) (A) (A) (A) (A) (A) (A) (A)
                 (A) (A) (A) (A) (A) (A) (A) (A) (A) (A) (A) (A)
                 (A) (A) (A) (A) (A) (A) (A) (A) (A) (A) (A) (A)
                 (A) (A) (A) (A) (A) (A) (A) (A) (A) (A) (A) (A)
                 (A) (A) (A) (A) (A) (A) (A) (A) (A) (A) (A) (A)
                 (A) (A) (A) (A) (A) (A) (A) (A) (A) (A) (A) (A)
                 (A) (A) (A) (A) (A) (A) (A) (A) (A) (A) (A) (A)
                 (A) (A) (A) (A) (A) (A) (A) (A) (A) (A) (A) (A)
                 (A) (A) (A) (A) (A) (A) (A) (A) (A) (A) (A) (A)
                 (A) (A) (A) (A) (A) (A) (A) (A) (A) (A) (A) (A)
                 (A) (A) (A) (A) (A) (A) (A) (A) (A) (A) (A) (A)
                 (A) (A) (A) (A) (A) (A) (A) (A) (A) (A) (A) (A)
                 (A) (A) (A) (A) (A) (A) (A) (A) (A) (A) (A) (A)
                 (A) (A) (A) (A) (A) (A) (A) (A) (A) (A) (A) (A)
                 (A) (A) (A) (A) (A) (A) (A) (A) (A) (A) (A) (A)
                 (A) (A) (A) (A) (A) (A) (A) (A) (A) (A) (A) (A)
                 (A) (A) (A) (A) (A) (A) (A) (A) (A) (A) (A) (A)
                 (A) (A) (A) (A) (A) (A) (A) (A) (A) (A) (A) (A)
                 (A) (A) (A) (A) (A) (A) (A) (A) (A) (A) (A) (A)
                 (A) (A) (A) (A) (A) (A) (A) (A) (A) (A) (A) (A)
                 (A) (A) (A) (A) (A) (A) (A) (A) (A) (A) (A) (A)
                 (A) (A) (A) (A) (A) (A) (A) (A) (A) (A) (A) (A)
                 (A) (A) (A) (A) (A) (A) (A) (A) (A) (A) (A) (A)
                 (A) (A) (A) (A) (A) (A) (A) (A) (A) (A) (A) (A)
                 (A) (A) (A) (A) (A) (A) (A) (A) (A) (A) (A) (A)
                 (A) (A) (A) (A) (A) (A) (A) (A) (A) (A) (A) (A)
                 (A) (A) (A) (A) (A) (A) (A) (A) (A) (A) (A) (A)
                 (A) (A) (A)
 The electronic state is 1-A.
 Alpha  occ. eigenvalues --  -10.22633 -10.20737 -10.20326 -10.20067 -10.19811
 Alpha  occ. eigenvalues --  -10.19698 -10.19630 -10.19593 -10.19425 -10.19297
 Alpha  occ. eigenvalues --  -10.19295 -10.19139 -10.19033 -10.18998 -10.18916
 Alpha  occ. eigenvalues --  -10.18885 -10.18861 -10.18860 -10.18831 -10.18655
 Alpha  occ. eigenvalues --  -10.18643 -10.18517 -10.18448 -10.18444 -10.18422
 Alpha  occ. eigenvalues --  -10.18409 -10.18064 -10.17023 -10.16748 -10.16486
 Alpha  occ. eigenvalues --   -0.92081  -0.88985  -0.87887  -0.85230  -0.84004
 Alpha  occ. eigenvalues --   -0.83357  -0.80613  -0.79724  -0.78585  -0.77447
 Alpha  occ. eigenvalues --   -0.75461  -0.74705  -0.72672  -0.71502  -0.70799
 Alpha  occ. eigenvalues --   -0.67077  -0.65904  -0.64366  -0.63088  -0.62417
 Alpha  occ. eigenvalues --   -0.60089  -0.59190  -0.58291  -0.56579  -0.56320
 Alpha  occ. eigenvalues --   -0.52988  -0.51960  -0.51299  -0.51079  -0.49598
 Alpha  occ. eigenvalues --   -0.49252  -0.47855  -0.47040  -0.46153  -0.45768
 Alpha  occ. eigenvalues --   -0.45191  -0.44250  -0.44072  -0.43425  -0.43040
 Alpha  occ. eigenvalues --   -0.42488  -0.42460  -0.41587  -0.41146  -0.40518
 Alpha  occ. eigenvalues --   -0.40248  -0.39955  -0.39609  -0.38538  -0.37802
 Alpha  occ. eigenvalues --   -0.36513  -0.35896  -0.35708  -0.34921  -0.34290
 Alpha  occ. eigenvalues --   -0.34150  -0.33246  -0.32854  -0.32699  -0.30809
 Alpha  occ. eigenvalues --   -0.29557  -0.28205  -0.26868  -0.25531  -0.23600
 Alpha  occ. eigenvalues --   -0.22254  -0.21046  -0.17820
 Alpha virt. eigenvalues --   -0.11447  -0.07491  -0.04266  -0.03287  -0.02883
 Alpha virt. eigenvalues --   -0.01259  -0.00447   0.00457   0.00544   0.00744
 Alpha virt. eigenvalues --    0.00979   0.01488   0.01630   0.02537   0.02746
 Alpha virt. eigenvalues --    0.02912   0.03092   0.03668   0.03967   0.04382
 Alpha virt. eigenvalues --    0.04655   0.04944   0.05306   0.05567   0.05846
 Alpha virt. eigenvalues --    0.06419   0.06640   0.06887   0.07479   0.07738
 Alpha virt. eigenvalues --    0.08404   0.08538   0.08705   0.09046   0.09235
 Alpha virt. eigenvalues --    0.09718   0.10278   0.10527   0.10653   0.10919
 Alpha virt. eigenvalues --    0.11189   0.11547   0.11616   0.12348   0.12793
 Alpha virt. eigenvalues --    0.13104   0.13566   0.13896   0.14285   0.14378
 Alpha virt. eigenvalues --    0.14674   0.14885   0.15107   0.15266   0.16040
 Alpha virt. eigenvalues --    0.16069   0.16268   0.16436   0.16525   0.16749
 Alpha virt. eigenvalues --    0.16924   0.17007   0.17446   0.17617   0.17808
 Alpha virt. eigenvalues --    0.17929   0.18089   0.18250   0.18836   0.18949
 Alpha virt. eigenvalues --    0.19122   0.19430   0.19593   0.19734   0.20137
 Alpha virt. eigenvalues --    0.20396   0.20584   0.20650   0.20757   0.21036
 Alpha virt. eigenvalues --    0.21237   0.21434   0.21705   0.22067   0.22188
 Alpha virt. eigenvalues --    0.22408   0.22567   0.23190   0.23317   0.23456
 Alpha virt. eigenvalues --    0.23817   0.23991   0.24149   0.24305   0.24421
 Alpha virt. eigenvalues --    0.24925   0.24944   0.25252   0.25410   0.25554
 Alpha virt. eigenvalues --    0.25757   0.25825   0.26151   0.26493   0.26595
 Alpha virt. eigenvalues --    0.26966   0.27073   0.27248   0.27378   0.27599
 Alpha virt. eigenvalues --    0.28023   0.28161   0.28639   0.28985   0.29236
 Alpha virt. eigenvalues --    0.29427   0.29646   0.30075   0.30380   0.30577
 Alpha virt. eigenvalues --    0.30735   0.31228   0.31438   0.31827   0.31993
 Alpha virt. eigenvalues --    0.32298   0.32480   0.32671   0.32996   0.33078
 Alpha virt. eigenvalues --    0.33941   0.34095   0.34560   0.35006   0.35216
 Alpha virt. eigenvalues --    0.35584   0.35626   0.36114   0.36601   0.36858
 Alpha virt. eigenvalues --    0.37542   0.37642   0.37897   0.38734   0.38968
 Alpha virt. eigenvalues --    0.39321   0.39616   0.39895   0.40537   0.41228
 Alpha virt. eigenvalues --    0.42114   0.42824   0.43081   0.43357   0.44569
 Alpha virt. eigenvalues --    0.44842   0.45363   0.45416   0.47440   0.47877
 Alpha virt. eigenvalues --    0.48141   0.49026   0.49484   0.50198   0.50682
 Alpha virt. eigenvalues --    0.51080   0.52503   0.52534   0.52813   0.53367
 Alpha virt. eigenvalues --    0.53694   0.53858   0.54085   0.54443   0.54996
 Alpha virt. eigenvalues --    0.55524   0.55852   0.56029   0.56677   0.57348
 Alpha virt. eigenvalues --    0.57358   0.57770   0.58438   0.58858   0.58990
 Alpha virt. eigenvalues --    0.59467   0.59604   0.59916   0.60387   0.60649
 Alpha virt. eigenvalues --    0.60901   0.61356   0.61636   0.62183   0.62579
 Alpha virt. eigenvalues --    0.62883   0.63193   0.63634   0.64389   0.64898
 Alpha virt. eigenvalues --    0.65588   0.66308   0.66416   0.66885   0.67364
 Alpha virt. eigenvalues --    0.67628   0.68322   0.68445   0.68814   0.69834
 Alpha virt. eigenvalues --    0.70039   0.70449   0.70698   0.70838   0.71416
 Alpha virt. eigenvalues --    0.71627   0.71841   0.72375   0.72748   0.72787
 Alpha virt. eigenvalues --    0.73252   0.73384   0.73840   0.73958   0.74123
 Alpha virt. eigenvalues --    0.74379   0.74667   0.75135   0.75508   0.75632
 Alpha virt. eigenvalues --    0.76021   0.76476   0.76892   0.77081   0.77701
 Alpha virt. eigenvalues --    0.78736   0.79177   0.79637   0.80126   0.81336
 Alpha virt. eigenvalues --    0.81634   0.82206   0.82997   0.83463   0.84057
 Alpha virt. eigenvalues --    0.84153   0.84713   0.85164   0.85666   0.86233
 Alpha virt. eigenvalues --    0.86440   0.87341   0.87837   0.87903   0.88311
 Alpha virt. eigenvalues --    0.89074   0.89725   0.90176   0.90653   0.91029
 Alpha virt. eigenvalues --    0.91188   0.91354   0.91743   0.92311   0.93511
 Alpha virt. eigenvalues --    0.93702   0.94083   0.94401   0.94543   0.95150
 Alpha virt. eigenvalues --    0.95484   0.95981   0.96530   0.97265   0.97936
 Alpha virt. eigenvalues --    0.98211   0.99012   0.99623   1.00052   1.00420
 Alpha virt. eigenvalues --    1.01463   1.02290   1.02663   1.03134   1.04113
 Alpha virt. eigenvalues --    1.04443   1.05707   1.05947   1.06516   1.06732
 Alpha virt. eigenvalues --    1.07216   1.07845   1.08471   1.09203   1.09821
 Alpha virt. eigenvalues --    1.10184   1.10533   1.10878   1.12040   1.12571
 Alpha virt. eigenvalues --    1.14036   1.14744   1.15344   1.16246   1.17999
 Alpha virt. eigenvalues --    1.19026   1.19269   1.21379   1.21413   1.22540
 Alpha virt. eigenvalues --    1.24487   1.24887   1.25838   1.26831   1.29049
 Alpha virt. eigenvalues --    1.29157   1.30135   1.31463   1.33622   1.34525
 Alpha virt. eigenvalues --    1.35338   1.36169   1.38034   1.38406   1.39057
 Alpha virt. eigenvalues --    1.40367   1.41856   1.42843   1.43396   1.43947
 Alpha virt. eigenvalues --    1.44334   1.45732   1.46101   1.47101   1.47504
 Alpha virt. eigenvalues --    1.47878   1.48825   1.49090   1.50349   1.50544
 Alpha virt. eigenvalues --    1.51272   1.51476   1.52140   1.52798   1.53394
 Alpha virt. eigenvalues --    1.53819   1.54168   1.54741   1.55743   1.57060
 Alpha virt. eigenvalues --    1.57598   1.58124   1.58354   1.58508   1.59345
 Alpha virt. eigenvalues --    1.59843   1.60858   1.61659   1.62055   1.62511
 Alpha virt. eigenvalues --    1.64322   1.64901   1.65606   1.66889   1.67189
 Alpha virt. eigenvalues --    1.67928   1.68589   1.69043   1.69624   1.70541
 Alpha virt. eigenvalues --    1.71024   1.71511   1.72441   1.72913   1.73211
 Alpha virt. eigenvalues --    1.73798   1.74840   1.74968   1.75420   1.75963
 Alpha virt. eigenvalues --    1.76481   1.77249   1.78072   1.78705   1.79158
 Alpha virt. eigenvalues --    1.81234   1.81578   1.81824   1.82295   1.83003
 Alpha virt. eigenvalues --    1.83511   1.84500   1.84609   1.85806   1.86085
 Alpha virt. eigenvalues --    1.86674   1.87486   1.88384   1.88957   1.89451
 Alpha virt. eigenvalues --    1.90326   1.90513   1.91561   1.92140   1.92628
 Alpha virt. eigenvalues --    1.92976   1.93230   1.94541   1.95030   1.95628
 Alpha virt. eigenvalues --    1.96078   1.96940   1.97507   1.97863   1.98569
 Alpha virt. eigenvalues --    1.99141   1.99805   2.00177   2.01379   2.01560
 Alpha virt. eigenvalues --    2.03102   2.03549   2.04373   2.05200   2.05753
 Alpha virt. eigenvalues --    2.06969   2.07297   2.07812   2.08803   2.09671
 Alpha virt. eigenvalues --    2.11277   2.12746   2.13911   2.14325   2.15204
 Alpha virt. eigenvalues --    2.16472   2.16575   2.17738   2.18468   2.19111
 Alpha virt. eigenvalues --    2.19703   2.20278   2.21172   2.21774   2.22666
 Alpha virt. eigenvalues --    2.24390   2.24632   2.24982   2.25616   2.27058
 Alpha virt. eigenvalues --    2.28347   2.29637   2.30022   2.34204   2.34918
 Alpha virt. eigenvalues --    2.35961   2.36819   2.37052   2.37406   2.38848
 Alpha virt. eigenvalues --    2.39431   2.41073   2.41935   2.43413   2.45070
 Alpha virt. eigenvalues --    2.45587   2.46176   2.48360   2.49106   2.50230
 Alpha virt. eigenvalues --    2.51582   2.54163   2.54882   2.55397   2.55808
 Alpha virt. eigenvalues --    2.56379   2.56986   2.58771   2.59019   2.60431
 Alpha virt. eigenvalues --    2.61879   2.62626   2.64701   2.65756   2.66595
 Alpha virt. eigenvalues --    2.69346   2.69680   2.70190   2.70610   2.71348
 Alpha virt. eigenvalues --    2.71795   2.72122   2.72227   2.72489   2.73246
 Alpha virt. eigenvalues --    2.73766   2.74110   2.75600   2.76062   2.76482
 Alpha virt. eigenvalues --    2.76752   2.77215   2.77425   2.77549   2.78054
 Alpha virt. eigenvalues --    2.78568   2.79705   2.79832   2.80382   2.80869
 Alpha virt. eigenvalues --    2.81841   2.82935   2.83580   2.84660   2.85404
 Alpha virt. eigenvalues --    2.86217   2.86719   2.87634   2.88117   2.88972
 Alpha virt. eigenvalues --    2.89329   2.90299   2.91837   2.93577   2.93745
 Alpha virt. eigenvalues --    2.94382   2.94956   2.98884   2.99140   2.99834
 Alpha virt. eigenvalues --    3.03272   3.03986   3.04303   3.06156   3.07164
 Alpha virt. eigenvalues --    3.07937   3.11246   3.12919   3.13212   3.13793
 Alpha virt. eigenvalues --    3.16036   3.17348   3.18980   3.19700   3.19868
 Alpha virt. eigenvalues --    3.20865   3.22278   3.22942   3.23741   3.24319
 Alpha virt. eigenvalues --    3.26238   3.27530   3.29516   3.31882   3.32879
 Alpha virt. eigenvalues --    3.33356   3.35758   3.37401   3.37674   3.38495
 Alpha virt. eigenvalues --    3.39819   3.40692   3.41665   3.43098   3.44203
 Alpha virt. eigenvalues --    3.46677   3.47705   3.48296   3.49375   3.53435
 Alpha virt. eigenvalues --    3.55910   3.57144   3.57405   3.60034   3.60864
 Alpha virt. eigenvalues --    3.62357   3.63886   3.68254   3.70459   3.73500
 Alpha virt. eigenvalues --    3.76887   3.82984   3.84751   3.88927   3.93454
 Alpha virt. eigenvalues --    3.98054   4.00780   4.02999   4.05775   4.06068
 Alpha virt. eigenvalues --    4.08143   4.08873   4.12090   4.13056   4.19832
 Alpha virt. eigenvalues --    4.23408   4.26253   4.30539   4.31672   4.45597
 Alpha virt. eigenvalues --    4.57977   4.65162   4.69979   4.72536   4.75094
 Alpha virt. eigenvalues --    4.75923   4.80326   4.86076   4.90649  23.41648
 Alpha virt. eigenvalues --   23.63161  23.67581  23.77249  23.79663  23.81806
 Alpha virt. eigenvalues --   23.84352  23.85868  23.87893  23.88475  23.91583
 Alpha virt. eigenvalues --   23.92152  23.93910  23.96153  23.97673  24.01280
 Alpha virt. eigenvalues --   24.04130  24.06980  24.08455  24.09270  24.09456
 Alpha virt. eigenvalues --   24.09725  24.10974  24.12018  24.13510  24.14799
 Alpha virt. eigenvalues --   24.17792  24.19081  24.21425  24.24672
          Condensed to atoms (all electrons):
               1          2          3          4          5          6
     1  C   15.097117   0.843276  -0.716364   0.700297  -3.214140  -1.027382
     2  C    0.843276  11.916397   1.108185  -3.014635  -2.407105   2.664297
     3  C   -0.716364   1.108185  12.894811  -0.413619   1.983820  -2.428480
     4  C    0.700297  -3.014635  -0.413619  14.526063   0.347796  -1.660178
     5  C   -3.214140  -2.407105   1.983820   0.347796  12.412190  -0.410438
     6  C   -1.027382   2.664297  -2.428480  -1.660178  -0.410438  12.385518
     7  C   -1.841711  -1.625059   1.760079  -1.429382   0.896925  -1.997580
     8  C   -0.866294  -2.269313  -3.179165   3.623852   0.424548   0.935119
     9  C    0.346867   0.759406   2.130796  -1.255975  -0.349278   0.034669
    10  C    0.375731  -2.935296  -1.415389  -1.540804   0.720622  -2.491006
    11  C   -2.980536   0.292036  -0.285274  -1.319780  -0.496527   0.430087
    12  C   -0.093830  -0.861413  -0.752137   1.114055   0.011335   0.004876
    13  C   -0.140934   0.149484  -0.304147  -0.320256  -0.008672   0.035658
    14  C   -0.267678   0.146619  -0.558158   0.116262  -0.138552   0.305388
    15  C    0.831539  -0.674451  -0.424771   0.310520  -0.513875  -0.571210
    16  C    1.771945  -0.634542  -1.101500  -0.336986   0.020501  -0.480202
    17  C   -0.469942   1.570424  -0.242257  -0.523394  -1.477501   0.358046
    18  C    0.723256   3.021055   0.408703  -2.879866  -1.777536  -0.502688
    19  C   -0.038550  -0.076016  -0.169079   0.231566  -0.016045   0.050865
    20  C    0.315511   0.364342  -0.996031  -0.103347  -0.066538   0.044213
    21  C    0.084490   0.118882  -0.078206   0.000498  -0.018174   0.009020
    22  C   -0.011127   0.028411  -0.057453  -0.084907   0.000633  -0.003565
    23  C   -0.864890  -0.823080  -0.166851   0.044920   0.202140  -0.208844
    24  C    0.011652  -0.301795  -0.188312  -0.051119  -0.302893   0.017868
    25  C    0.244294  -0.183580  -0.083996   0.022709   0.024820  -0.017214
    26  C   -0.728420   0.238659  -0.623491  -0.249891  -0.046746  -0.065827
    27  C   -1.842634  -1.236482   0.120135   0.375654  -0.147414   0.070483
    28  C   -0.222563  -0.190556  -0.053009  -0.033377  -0.001375  -0.002340
    29  C   -0.068868  -0.029568  -0.031759   0.007948   0.008680  -0.009540
    30  C   -0.018568  -0.042739   0.005444  -0.000263  -0.013325   0.000449
    31  H   -0.000009   0.000015  -0.000028  -0.000002   0.000002  -0.000000
    32  H   -0.000029   0.001132   0.000346   0.000066  -0.000024   0.000001
    33  H   -0.020706  -0.043250   0.058342   0.002878  -0.002772   0.000272
    34  H    0.000438  -0.000349   0.000035  -0.000004   0.000025   0.000004
    35  H    0.001378   0.000194   0.000238  -0.000003   0.000180  -0.000016
    36  H    0.042017   0.007283   0.000898   0.000073   0.002228   0.000691
    37  H   -0.045930  -0.002683   0.000128   0.007120   0.049093   0.006094
    38  H   -0.057935   0.034083  -0.033008  -0.042018   0.343780   0.029997
    39  H   -0.039055  -0.018394   0.030331  -0.097162   0.025634   0.372072
    40  H    0.009483   0.015079   0.061542  -0.067049  -0.003649   0.029516
    41  H   -0.000474  -0.001596   0.000930  -0.050852  -0.000561  -0.000290
    42  H    0.000629   0.001677   0.003722   0.006270  -0.000026  -0.000230
    43  H   -0.000070  -0.000493   0.001732  -0.000051  -0.000002   0.000014
    44  H   -0.000025  -0.000155   0.000124   0.000063  -0.000004   0.000005
[...]
 .00007702,0.00003938,0.00002768,-0.00007378,0.00012882,0.00005449,-0.0
 0004305,0.00004210,-0.00000300,0.00001367,-0.00000277,0.00002540,-0.00
 000872,-0.00000781,-0.00000576,0.00000217,-0.00000472,0.00000067,-0.00
 001119,-0.00003207,0.00001594,-0.00001421,0.00001033,-0.00000102,-0.00
 000348,-0.00000194,-0.00000333,-0.00000209,-0.00000136,0.00000220,-0.0
 0000367,-0.00000235,0.00000150,-0.00000267,-0.00000456,-0.00000179,-0.
 00000416,-0.00000120,0.00000457,0.00000016,-0.00000008,0.00000338,-0.0
 0000520,-0.00000091,-0.00000932,0.00001173,-0.00000570,-0.00006729,-0.
 00044021,0.00020131,0.13130152,0.00005250,0.00005065,0.00001431,0.0000
 4376,-0.00012206,-0.00003649,0.00007884,0.00003807,-0.00002550,0.00005
 274,-0.00004625,-0.00000134,-0.00001106,-0.00000791,-0.00000288,0.0000
 0480,0.00003183,0.00001053,-0.00013771,0.00018640,0.00002193,0.0004518
 1,-0.00003468,-0.00020075,-0.00005433,-0.00004519,0.00004170,0.0000127
 3,-0.00005020,-0.00001282,-0.00092096,-0.00064834,-0.00024040,0.003559
 49,-0.00132003,0.00260287,-0.01330614,-0.01657420,0.00477599,-0.001267
 69,0.00083926,-0.00117821,-0.00002712,-0.00002333,-0.00001983,0.000021
 02,0.00000708,-0.00001028,-0.00008142,-0.00001896,-0.00002561,0.000048
 65,0.00016696,0.00038214,-0.11704584,-0.24341363,0.05920336,0.00051485
 ,0.00015907,-0.00010776,-0.00012930,0.00319054,0.00318495,0.00081183,0
 .00149764,0.00125962,-0.00000430,-0.00000476,-0.00000527,-0.00000458,0
 .00000694,-0.00000570,-0.00008316,-0.00000487,0.00000913,0.00000420,-0
 .00002218,-0.00002018,-0.00007741,-0.00011085,-0.00001662,-0.00002219,
 -0.00009528,0.00001558,0.00001290,-0.00005594,-0.00002984,0.00002111,0
 .00004370,0.00002250,-0.00000901,-0.00000134,0.00000547,-0.00000263,0.
 00001061,-0.00001481,-0.00003597,-0.00006852,0.00004913,-0.00000390,-0
 .00000475,-0.00000096,-0.00000560,-0.00000748,0.00000034,-0.00000006,-
 0.00001045,-0.00000127,-0.00000005,-0.00000984,0.00000220,0.00000577,-
 0.00000857,-0.00000213,0.00001138,-0.00000659,0.00000126,0.00001115,-0
 .00000338,0.00000372,0.00003469,0.00001473,0.00000290,0.00098477,0.000
 38659,0.00034681,0.12598024,0.25612461,-0.00005269,-0.00002977,-0.0000
 1451,-0.00001611,0.00006339,0.00004674,-0.00003781,0.00001026,0.000032
 73,0.00003465,0.00006098,-0.00000329,0.00003011,0.00000746,-0.00000090
 ,-0.00002289,-0.00002370,-0.00000461,0.00016189,-0.00002542,0.00001404
 ,-0.00000609,-0.00032816,-0.00003109,-0.00009040,0.00006513,-0.0000056
 2,0.00000333,-0.00007722,0.00000277,0.00039327,0.00055440,0.00000397,-
 0.00177574,0.00226463,0.00153760,0.00824698,0.00967535,0.00043029,0.00
 065419,-0.00048904,-0.00081780,0.00004058,0.00000685,0.00000637,-0.000
 01274,0.00000342,0.00002201,0.00011289,0.00000106,-0.00003394,-0.00007
 451,-0.00008650,-0.00016697,0.02732552,0.06040708,-0.05592552,-0.00037
 554,-0.00007174,-0.00014116,-0.00340016,0.00437959,0.00863586,-0.00440
 428,-0.00574772,0.00536943,-0.00001762,-0.00000374,-0.00000291,0.00000
 008,-0.00000549,-0.00000861,-0.00003159,-0.00005088,-0.00001353,-0.000
 07897,0.00004562,0.00004436,0.00008244,-0.00023338,-0.00028197,-0.0000
 0029,0.00000863,0.00003155,0.00006689,0.00000448,-0.00001833,0.0000505
 0,0.00000270,0.00007252,0.00001157,0.00000491,-0.00000192,-0.00000321,
 -0.00000577,-0.00007145,-0.00001079,0.00000282,0.00000185,-0.00000439,
 0.00000260,-0.00001251,0.00000326,-0.00000120,-0.00000010,0.00000027,0
 .00000345,0.00000231,-0.00000009,0.00000454,-0.00000045,-0.00000354,0.
 00000222,0.00000268,-0.00000214,-0.00000118,0.00000350,-0.00000104,-0.
 00000289,0.00000179,-0.00001616,0.00000398,0.00000554,-0.00050131,-0.0
 0011319,0.00016409,-0.02789731,-0.06709044,0.04668386,-0.00012457,-0.0
 0000737,-0.00003598,-0.00001599,0.00001484,0.00003262,0.00003565,-0.00
 003202,-0.00000459,0.00000781,0.00012502,0.00002236,0.00008556,0.00005
 534,0.00001839,0.00003279,-0.00012661,-0.00005482,0.00008927,0.0000152
 0,-0.00011327,-0.00037722,-0.00026450,0.00027185,-0.00005459,0.0002636
 3,-0.00007873,-0.00006251,-0.00012225,0.00000404,-0.00011216,0.0001345
 1,0.00016380,0.00007847,-0.00034749,0.00019219,-0.00411708,-0.00349508
 ,-0.00235262,-0.00017641,0.00162062,-0.00058615,0.00008146,-0.00000170
 ,0.00002763,-0.00003928,0.00010222,0.00002131,0.00015848,-0.00007119,-
 0.00002463,-0.00005047,-0.00005589,-0.00005421,-0.01191369,0.02605558,
 -0.01553518,-0.00270937,-0.00247637,0.00023297,0.01000750,-0.01492179,
 0.00863805,-0.11049476,0.09210599,-0.05912024,-0.00000025,-0.00000501,
 -0.00000808,-0.00000965,0.00000871,0.00000112,0.00002083,-0.00001867,-
 0.00004411,-0.00013491,0.00020623,0.00024851,0.00032548,-0.00082917,0.
 00031823,0.00017746,-0.00005922,-0.00004237,-0.00001369,0.00002974,0.0
 0001599,-0.00004839,-0.00004304,-0.00004210,-0.00000821,-0.00000601,0.
 00000340,0.00000349,0.00000672,0.00002132,0.00009498,-0.00001052,0.000
 04552,0.00000122,-0.00000341,0.00000581,-0.00000405,-0.00000725,-0.000
 00326,0.00000132,0.00000063,-0.00000300,0.00000503,0.00000154,-0.00000
 523,0.00000463,0.00000013,0.00000240,-0.00000749,0.00000496,0.00000611
 ,-0.00000993,0.00001794,0.00000710,0.00000216,-0.00001040,-0.00000108,
 -0.00000587,-0.00008252,-0.00007019,0.00045967,0.00052967,0.00158250,0
 .11764805,0.00003667,-0.00011101,0.00003005,-0.00007052,0.00006000,-0.
 00005204,0.00003177,-0.00004248,0.00006448,0.00001676,-0.00010973,-0.0
 0005357,-0.00009486,0.00003321,0.00001285,0.00001178,0.00011153,0.0000
 5395,-0.00022236,0.00000744,-0.00011354,0.00003501,0.00015444,-0.00053
 815,0.00009297,-0.00009704,0.00001635,0.00003710,0.00012567,0.00003907
 ,0.00011491,-0.00004311,-0.00004166,-0.00031601,0.00025803,-0.00040428
 ,-0.00209687,0.00262431,0.00333880,0.00039283,-0.00010812,0.00000365,0
 .00008301,-0.00002951,-0.00003353,0.00002024,0.00008104,0.00003956,0.0
 0015010,-0.00006231,-0.00002109,0.00002983,-0.00007320,0.00000481,-0.0
 0320430,0.00439978,0.00000525,-0.00445502,-0.00127824,0.00020037,0.012
 10388,-0.01516152,0.01019345,0.09582578,-0.21628580,0.10269538,-0.0000
 2362,-0.00003404,0.00000273,0.00000548,0.00001478,0.00000551,-0.000036
 93,0.00002586,-0.00004724,-0.00018079,0.00028584,0.00026693,0.00046873
 ,-0.00073688,0.00067064,0.00029745,-0.00011016,-0.00001960,-0.00005659
 ,-0.00000752,0.00002272,-0.00003309,-0.00004916,-0.00008145,-0.0000315
 2,-0.00000585,0.00000604,0.00001221,0.00000613,0.00001399,0.00003147,-
 0.00011572,0.00011223,-0.00000649,-0.00001763,0.00001091,-0.00000126,-
 0.00001160,-0.00000474,0.00000119,-0.00001304,0.00000271,0.00000350,-0
 .00000582,0.00000075,0.00000308,-0.00000494,-0.00000442,0.00001340,-0.
 00000449,0.00000020,0.00000328,0.00000023,-0.00000545,0.00001255,0.000
 00847,-0.00000073,-0.00000738,0.00005646,0.00014195,0.00083077,-0.0000
 1790,-0.00282993,-0.09962420,0.22541010,0.00014123,-0.00012255,-0.0000
 3641,-0.00008520,0.00015708,-0.00001831,-0.00005057,-0.00014170,0.0001
 2155,-0.00011096,-0.00019162,-0.00003331,-0.00025323,-0.00004441,-0.00
 001076,0.00009500,0.00018944,0.00001803,-0.00043034,0.00007971,-0.0000
 5570,-0.00001393,0.00026808,-0.00117600,0.00027452,-0.00023162,-0.0000
 1694,0.00005933,0.00028316,0.00011388,0.00040450,-0.00009558,-0.000155
 99,-0.00016276,-0.00047627,-0.00034957,-0.00278991,0.00298184,0.008968
 23,0.00045768,-0.00013453,0.00006083,-0.00003667,-0.00000681,0.0000085
 0,0.00002223,-0.00005487,-0.00000873,-0.00003834,0.00005730,0.00010597
 ,0.00013174,-0.00012306,-0.00010851,-0.00217567,0.00644457,0.00253079,
 0.00096319,0.00103907,0.00110065,-0.00284280,0.00385632,-0.00101470,-0
 .06152913,0.10178923,-0.09580380,-0.00000338,-0.00000204,-0.00001390,0
 .00002935,0.00000728,-0.00000094,-0.00001850,0.00006642,-0.00000158,0.
 00008296,-0.00002921,-0.00013808,-0.00015862,0.00035190,0.00044100,-0.
 00009537,0.00004906,0.00004871,-0.00001577,-0.00002328,-0.00000812,0.0
 0000917,0.00000384,-0.00002968,0.00001324,0.00000687,-0.00000233,0.000
 00727,-0.00001032,0.00001650,-0.00011090,-0.00002801,-0.00003270,0.000
 00517,-0.00000049,0.00000573,-0.00000134,0.00000189,0.00000515,0.00000
 153,0.00000403,0.00000014,-0.00000010,0.00000283,-0.00000302,-0.000000
 07,0.00000201,-0.00000438,-0.00000829,0.00001384,-0.00000514,0.0000005
 0,-0.00000232,-0.00000860,-0.00000311,-0.00000927,0.00000536,-0.000095
 25,0.00008539,0.00032928,0.00140149,-0.00274016,-0.00531463,0.06677849
 ,-0.11362537,0.08988413,-0.00012169,-0.00008969,0.00001144,-0.00017532
 ,0.00016877,-0.00005926,-0.00001090,-0.00003148,0.00014792,-0.00010133
 ,0.00008654,-0.00004767,0.00003377,0.00006506,0.00003205,0.00001052,-0
 .00008063,-0.00002293,-0.00031619,0.00004257,-0.00004451,-0.00002801,0
 .00022334,-0.00000979,0.00005735,0.00006253,-0.00001766,0.00001822,0.0
 0004309,0.00000065,0.00010112,0.00103505,0.00012445,0.00203539,0.00150
 917,-0.00036351,-0.00103093,-0.00029090,-0.00132452,0.00061175,-0.0003
 7372,0.00016398,0.00013146,0.00000352,0.00001024,-0.00006207,0.0000624
 5,0.00003813,0.00004999,-0.00000618,0.00011341,-0.00010072,-0.00034873
 ,-0.00023345,0.00119826,-0.00257113,0.00127500,-0.01130869,-0.00271951
 ,-0.01519164,-0.07416366,-0.03515888,-0.08236537,-0.01301842,-0.010148
 79,-0.01501896,0.00001702,-0.00001941,0.00000680,0.00003095,-0.0000039
 0,0.00003831,0.00040939,0.00008476,-0.00009426,-0.00005119,-0.00013299
 ,0.00005118,-0.00011800,-0.00024218,0.00017795,0.00010277,0.00060801,0
 .00034270,-0.00021790,0.00021239,0.00005435,-0.00009655,-0.00024305,-0
 .00023802,0.00000034,0.00000384,0.00001086,0.00012293,-0.00013926,0.00
 003132,-0.00055926,0.00034734,-0.00038053,0.00000784,-0.00002692,0.000
 02826,0.00000468,0.00000259,-0.00000635,0.00000009,0.00000724,-0.00000
 917,0.00000491,0.00000785,-0.00000782,0.00000166,0.00001115,-0.0000121
 7,-0.00000453,0.00000325,0.00001105,-0.00001485,0.00000933,-0.00000328
 ,0.00000699,-0.00000247,0.00000394,-0.00001655,0.00005773,0.00008727,-
 0.00079928,0.00030922,0.00092460,0.00054357,0.00028725,0.00057567,0.08
 898615,0.00012925,0.00017659,0.00005383,0.00014284,-0.00031029,0.00017
 131,-0.00000242,0.00005682,-0.00010237,0.00017819,-0.00000151,-0.00001
 408,-0.00001487,0.00004075,-0.00000910,0.00004945,0.00004009,0.0000442
 4,0.00030574,-0.00009198,-0.00019201,0.00013424,-0.00033517,0.00026298
 ,-0.00012467,0.00014026,-0.00006317,0.00001933,-0.00017516,-0.00001261
 ,-0.00064670,-0.00227732,-0.00034795,-0.00106485,-0.00024779,-0.000188
 20,-0.00054697,-0.00135140,0.00030623,0.00003985,0.00087256,-0.0001968
 6,-0.00015800,-0.00005619,-0.00005851,0.00005446,-0.00008342,0.0000119
 3,-0.00046752,0.00004093,-0.00016671,0.00048346,0.00068335,0.00044018,
 0.00007502,-0.00297599,0.00116976,0.01183175,0.00950407,0.02095747,-0.
 03412085,-0.07504258,-0.07144556,-0.01267788,-0.00910435,-0.02085265,0
 .00002576,0.00000686,-0.00000390,-0.00000865,-0.00001680,0.00000799,-0
 .00003598,0.00000098,0.00006492,0.00038214,-0.00047404,-0.00012969,-0.
 00038566,0.00055784,-0.00104668,-0.00004403,-0.00006153,-0.00000560,-0
 .00007780,-0.00009533,-0.00011193,0.00012782,0.00015819,0.00015147,0.0
 0001164,-0.00000050,-0.00000282,-0.00001877,0.00003872,-0.00001710,0.0
 0129777,-0.00044599,0.00042012,0.00000073,0.00001403,-0.00001307,0.000
 00234,0.00000723,0.00000716,-0.00000435,-0.00000545,0.00000037,-0.0000
 0338,-0.00000338,0.00000997,0.00000730,-0.00000671,0.00001061,0.000002
 56,0.00000028,-0.00000591,-0.00000683,0.00000435,0.00001462,0.00000656
 ,0.00000391,-0.00001618,0.00008682,0.00001678,-0.00003585,-0.00090463,
 0.00059990,0.00127424,0.00044249,0.00044292,0.00080718,0.03810322,0.08
 371169,-0.00015613,-0.00011670,0.00002013,-0.00002122,0.00021809,-0.00
 010231,-0.00006418,-0.00001943,0.00003353,0.00001739,0.00010666,-0.000
 00579,0.00008696,0.00004946,0.00004315,-0.00006273,-0.00007045,0.00000
 624,-0.00014745,0.00001907,0.00000145,0.00005864,0.00014470,0.00003003
 ,-0.00003410,0.00005602,-0.00000061,0.00000680,-0.00005112,-0.00001084
 ,0.00028857,0.00117282,0.00018743,0.00253313,0.00049310,-0.00002436,-0
 .00080018,0.00052326,-0.00061035,0.00056443,-0.00065256,0.00018114,0.0
 0016279,0.00000997,-0.00001479,-0.00004771,0.00004866,0.00004003,0.000
 08076,-0.00009024,0.00010510,-0.00017499,-0.00030900,-0.00041402,0.001
 77922,0.00013267,-0.00006378,-0.00943946,-0.00049041,-0.01176619,-0.08
 044938,-0.07258615,-0.21245964,0.00236728,0.00152459,0.00921031,-0.000
 01948,-0.00002094,0.00000071,0.00001048,0.00002363,0.00004583,0.000096
 54,0.00004384,-0.00008529,-0.00006486,0.00022685,0.00046490,-0.0007551
 4,-0.00003791,0.00048652,0.00038636,-0.00073408,-0.00007879,0.00009181
 ,0.00010727,-0.00004935,0.00011002,0.00018273,0.00015109,-0.00000500,-
 0.00000074,-0.00004686,-0.00011881,0.00017053,-0.00002942,-0.00052644,
 0.00047084,-0.00051192,-0.00000771,0.00002649,-0.00002326,0.00001148,0
 .00000936,-0.00000805,0.00000263,0.00000335,0.00000116,0.00000383,0.00
 000973,-0.00000589,-0.00000526,0.00001023,-0.00000858,0.00000394,-0.00
 000338,0.00000455,-0.00001376,0.00000592,0.00000199,0.00000811,0.00000
 727,-0.00000258,-0.00002457,0.00001031,0.00001182,0.00028463,-0.000193
 51,-0.00055662,-0.00056290,-0.00058263,0.00027490,0.08954651,0.0790294
 3,0.23521812,-0.00023601,-0.00015329,-0.00003284,-0.00022084,0.0001436
 5,-0.00005568,0.00018829,-0.00033230,-0.00021659,-0.00052191,0.0000343
 7,0.00007483,0.00011657,0.00005432,0.00000563,-0.00002630,-0.00021583,
 -0.00002884,-0.00091234,0.00031710,-0.00043791,-0.00049733,0.00093449,
 -0.00012453,0.00039882,-0.00016657,-0.00001110,0.00001584,0.00046489,0
 .00000765,0.00006599,0.00063984,-0.00086529,0.00235775,0.00326056,0.00
 015454,-0.00197343,0.00062867,0.00033756,0.00151916,-0.00076641,0.0003
 1559,0.00030569,0.00000267,0.00003008,-0.00019594,0.00003341,0.0000271
 9,0.00021977,-0.00010971,-0.00003147,0.00003346,-0.00081188,0.00010363
 ,0.00200418,-0.00280998,0.00217110,-0.01833676,0.00848844,0.00404449,-
 0.18382686,0.05692809,0.10478490,-0.01847208,0.00090022,0.00887400,0.0
 0005660,-0.00009166,-0.00000968,0.00007078,0.00000168,0.00009681,0.001
 01427,0.00016145,-0.00027641,-0.00061330,-0.00048352,-0.00017910,0.000
 93480,-0.00107985,0.00026275,0.00012750,0.00133735,0.00051625,-0.00044
 501,0.00076795,0.00043512,-0.00023740,-0.00095826,-0.00044359,0.000036
 95,-0.00001243,0.00005710,0.00034951,-0.00089601,0.00026171,-0.0011096
 0,-0.00011309,0.00007435,0.00000022,-0.00004370,0.00002909,0.00000612,
 0.00000177,-0.00001390,0.00000251,0.00001539,-0.00001730,0.00000319,0.
 00001021,-0.00000673,0.00000463,0.00001128,0.00000013,-0.00000762,-0.0
 0000125,0.00000282,-0.00001139,0.00001307,-0.00001540,0.00000550,-0.00
 001402,0.00002173,0.00003781,-0.00004505,-0.00008624,-0.00036274,-0.00
 032765,-0.00088807,0.00062570,-0.00049115,-0.00042402,0.00782895,-0.00
 262595,-0.00500087,0.20967630,0.00029690,0.00002650,0.00001203,-0.0003
 3518,-0.00004816,0.00003654,0.00023295,0.00010764,0.00025725,-0.000221
 05,-0.00030826,-0.00014389,-0.00025127,-0.00000570,-0.00004463,0.00014
 084,0.00019592,0.00002432,-0.00015145,-0.00025400,0.00013313,-0.000384
 54,0.00033734,-0.00009327,0.00031899,-0.00013029,-0.00001626,0.0000328
 3,0.00034237,0.00000877,0.00097856,0.00083825,-0.00000703,0.00056106,-
 0.00223451,0.00136496,-0.00057840,-0.00083492,0.00075197,0.00057573,0.
 00050273,-0.00024357,-0.00016307,-0.00000373,-0.00001149,0.00003169,-0
 .00002618,-0.00004402,-0.00032110,0.00019235,0.00031530,0.00004678,0.0
 0002205,0.00031666,-0.00057058,-0.00319973,0.00127234,0.01905808,-0.00
 631297,-0.01204354,0.05650320,-0.06776434,-0.03636672,-0.02258794,0.00
 846034,0.01425216,0.00006112,-0.00000350,0.00003972,-0.00002752,-0.000
 01989,-0.00000909,0.00030203,0.00028301,-0.00003310,-0.00017142,-0.000
 47282,-0.00072504,0.00112253,0.00071120,0.00068311,-0.00029502,0.00023
 791,-0.00037336,-0.00044291,0.00004189,0.00020793,-0.00040178,-0.00031
 249,-0.00036373,0.00000578,-0.00004131,0.00008022,-0.00010371,0.000080
 64,0.00113004,-0.00067751,-0.00027240,-0.00011971,0.00002536,0.0000231
 8,0.00006732,-0.00000148,0.00000152,-0.00000382,-0.00000702,-0.0000073
 4,-0.00001727,-0.00000271,-0.00001690,0.00001332,0.00000934,-0.0000075
 0,0.00000143,0.00000196,-0.00000020,0.00001316,-0.00000246,0.00000734,
 0.00000124,0.00002237,0.00000321,0.00003574,0.00011908,-0.00003592,-0.
 00007565,-0.00030037,-0.00061713,-0.00164242,0.00087998,0.00043060,-0.
 00045480,0.00927260,-0.00395624,-0.00887758,-0.06260127,0.07404043,0.0
 0003647,0.00011108,0.00003138,0.00030230,-0.00012728,0.00003247,-0.000
 23692,0.00009718,-0.00015208,0.00030655,0.00006689,0.00005606,0.000051
 89,-0.00003843,0.00000434,-0.00006303,0.00003536,0.00002950,0.00047301
 ,0.00013298,0.00013695,0.00021814,-0.00033290,0.00007069,-0.00022090,0
 .00005158,0.00002143,-0.00003468,-0.00027462,-0.00000570,-0.00137977,-
 0.00124784,-0.00004254,-0.00141836,0.00194591,-0.00199180,0.00028067,0
 .00025747,0.00006496,-0.00041913,0.00000975,0.00005696,-0.00014733,-0.
 00000035,-0.00002423,0.00012301,0.00001489,0.00000441,-0.00007978,-0.0
 0007517,-0.00013392,0.00001655,0.00035731,-0.00014294,-0.00062676,0.00
 075147,-0.00084259,-0.01414131,0.00445178,0.01081809,0.10357878,-0.036
 46710,-0.11371990,0.00382101,-0.00112385,-0.00234914,-0.00007096,0.000
 05331,-0.00000034,-0.00002720,-0.00002087,-0.00007971,-0.00067850,-0.0
 0022834,0.00026296,0.00058069,0.00036985,0.00056062,-0.00023952,-0.000
 41171,-0.00030921,-0.00016050,-0.00016121,-0.00036505,0.00034317,-0.00
 062643,-0.00040677,0.00031673,0.00044468,0.00026222,-0.00000764,0.0000
 1679,0.00000374,0.00036169,0.00097544,-0.00122140,0.00101854,-0.000027
 34,0.00021827,-0.00002118,0.00000794,-0.00009193,-0.00000119,-0.000003
 55,0.00000873,0.00000040,-0.00000639,0.00001610,-0.00000049,-0.0000015
 7,0.00000112,-0.00000730,-0.00000402,0.00000217,0.00000411,0.00000279,
 -0.00001260,0.00000528,-0.00000889,0.00000806,-0.00001617,0.00000621,-
 0.00002559,-0.00002867,-0.00001702,-0.00002278,-0.00001213,0.00002632,
 0.00031257,0.00008101,0.00050408,0.00031249,0.02164286,-0.01017749,-0.
 01964085,-0.11352347,0.04069132,0.12828477\\0.00000007,-0.00000122,0.0
 0000348,-0.00000458,-0.00000108,-0.00000193,0.00000332,0.00000206,-0.0
 0000484,-0.00000168,-0.00000112,0.00000035,-0.00000167,-0.00000295,0.0
 0000058,-0.00000024,-0.00000244,0.00000199,0.00000124,0.00000103,0.000
 01057,-0.00000038,-0.00000510,-0.00000146,-0.00000009,-0.00000099,-0.0
 0000065,0.00000255,-0.00000281,0.00000115,-0.00000786,-0.00000778,-0.0
 0000526,-0.00002361,-0.00001362,-0.00000180,-0.00000466,0.00000045,-0.
 00000149,0.00000509,0.00000197,-0.00000107,-0.00000250,-0.00000275,-0.
 00000066,-0.00000257,0.00000460,0.00000420,0.00000589,0.00000035,0.000
 01170,-0.00000139,-0.00000933,-0.00000805,0.00000494,-0.00000485,-0.00
 000925,0.00001786,0.00001265,0.00000331,-0.00000307,-0.00000306,-0.000
 00656,-0.00000162,0.00000264,-0.00000013,0.00000040,-0.00000031,-0.000
 00011,-0.00000481,0.00000063,0.00000270,-0.00000392,0.00000102,-0.0000
 0021,0.00000879,0.00000186,-0.00000020,-0.00000122,0.00000825,-0.00000
 114,0.00000070,0.00000141,0.00001025,0.00000294,-0.00000004,-0.0000041
 9,-0.00000098,0.00000944,0.00000166,0.00000007,0.00000425,-0.00000052,
 0.00000123,0.00000278,-0.00000099,0.00001296,0.00001016,-0.00000176,-0
 .00000044,0.00000226,0.00000191,-0.00000207,0.00000169,0.00000263,-0.0
 0000198,-0.00000001,0.00000324,-0.00000265,-0.00000084,0.00000198,-0.0
 0000255,-0.00000226,0.00000183,-0.00000112,-0.00000237,0.00000029,0.00
 000013,-0.00000281,-0.00000166,0.00000087,-0.00000195,-0.00000302,0.00
 000201,-0.00000130,-0.00000257,0.00000279,-0.00000123,-0.00000264,0.00
 000038,0.00000307,0.00000456,0.00000468,-0.00000209,-0.00000276,-0.000
 00124,0.00000171,-0.00000347\\\@


 IT IS DOUBTED WHETHER A MAN EVER BRINGS HIS FACULTIES TO BEAR WITH THEIR FULL FORCE
 ON A SUBJECT UNTIL HE WRITES UPON IT.

                          -- CICERO
 Job cpu time:       1 days  0 hours 10 minutes 34.8 seconds.
 Elapsed time:       0 days  1 hours 12 minutes 44.1 seconds.
 File lengths (MBytes):  RWF=   2283 Int=      0 D2E=      0 Chk=     53 Scr=      1
 Normal termination of Gaussian 16 at Tue Jun 18 18:05:01 2019.
