 Entering Gaussian System, Link 0=/share/apps/gaussian16/g16/g16
 Initial command:
 /share/apps/gaussian16/g16/l1.exe "/home/amen01//scratch/1000/Gau-13719.inp" -scrdir="/home/amen01//scratch/1000/"
 Entering Link 1 = /share/apps/gaussian16/g16/l1.exe PID=     13720.
  
 Copyright (c) 1988-2017, Gaussian, Inc.  All Rights Reserved.
  
 This is part of the Gaussian(R) 16 program.  It is based on
 the Gaussian(R) 09 system (copyright 2009, Gaussian, Inc.),
 the Gaussian(R) 03 system (copyright 2003, Gaussian, Inc.),
 the Gaussian(R) 98 system (copyright 1998, Gaussian, Inc.),
 the Gaussian(R) 94 system (copyright 1995, Gaussian, Inc.),
 the Gaussian 92(TM) system (copyright 1992, Gaussian, Inc.),
 the Gaussian 90(TM) system (copyright 1990, Gaussian, Inc.),
 the Gaussian 88(TM) system (copyright 1988, Gaussian, Inc.),
 the Gaussian 86(TM) system (copyright 1986, Carnegie Mellon
 University), and the Gaussian 82(TM) system (copyright 1983,
 Carnegie Mellon University). Gaussian is a federally registered
 trademark of Gaussian, Inc.
  
 This software contains proprietary and confidential information,
 including trade secrets, belonging to Gaussian, Inc.
  
 This software is provided under written license and may be
 used, copied, transmitted, or stored only in accord with that
 written license.
  
 The following legend is applicable only to US Government
 contracts under FAR:
  
                    RESTRICTED RIGHTS LEGEND
  
 Use, reproduction and disclosure by the US Government is
 subject to restrictions as set forth in subparagraphs (a)
 and (c) of the Commercial Computer Software - Restricted
 Rights clause in FAR 52.227-19.
  
 Gaussian, Inc.
 340 Quinnipiac St., Bldg. 40, Wallingford CT 06492
  
  
 ---------------------------------------------------------------
 Warning -- This program may not be used in any manner that
 competes with the business of Gaussian, Inc. or will provide
 assistance to any competitor of Gaussian, Inc.  The licensee
 of this program is prohibited from giving any competitor of
 Gaussian, Inc. access to this program.  By using this program,
 the user acknowledges that Gaussian, Inc. is engaged in the
 business of creating and licensing software in the field of
 computational chemistry and represents and warrants to the
 licensee that it is not a competitor of Gaussian, Inc. and that
 it will not use this program in any manner prohibited above.
 ---------------------------------------------------------------
  

 Cite this work as:
 Gaussian 16, Revision B.01,
 M. J. Frisch, G. W. Trucks, H. B. Schlegel, G. E. Scuseria, 
 M. A. Robb, J. R. Cheeseman, G. Scalmani, V. Barone, 
 G. A. Petersson, H. Nakatsuji, X. Li, M. Caricato, A. V. Marenich, 
 J. Bloino, B. G. Janesko, R. Gomperts, B. Mennucci, H. P. Hratchian, 
 J. V. Ortiz, A. F. Izmaylov, J. L. Sonnenberg, D. Williams-Young, 
 F. Ding, F. Lipparini, F. Egidi, J. Goings, B. Peng, A. Petrone, 
 T. Henderson, D. Ranasinghe, V. G. Zakrzewski, J. Gao, N. Rega, 
 G. Zheng, W. Liang, M. Hada, M. Ehara, K. Toyota, R. Fukuda, 
 J. Hasegawa, M. Ishida, T. Nakajima, Y. Honda, O. Kitao, H. Nakai, 
 T. Vreven, K. Throssell, J. A. Montgomery, Jr., J. E. Peralta, 
 F. Ogliaro, M. J. Bearpark, J. J. Heyd, E. N. Brothers, K. N. Kudin, 
 V. N. Staroverov, T. A. Keith, R. Kobayashi, J. Normand, 
 K. Raghavachari, A. P. Rendell, J. C. Burant, S. S. Iyengar, 
 J. Tomasi, M. Cossi, J. M. Millam, M. Klene, C. Adamo, R. Cammi, 
 J. W. Ochterski, R. L. Martin, K. Morokuma, O. Farkas, 
 J. B. Foresman, and D. J. Fox, Gaussian, Inc., Wallingford CT, 2016.
 
 ******************************************
 Gaussian 16:  ES64L-G16RevB.01 20-Dec-2017
                 6-Sep-2019 
 ******************************************
 %nprocshared=20
 Will use up to   20 processors via shared memory.
 %mem=180GB
 %chk=7-memb-dirTSguess-4bcis.chk
 ---------------------------------------------------------------
 # opt=(ts,calcfc,noeigen) freq b3lyp/6-311+g(d,p) int=grid=fine
 ---------------------------------------------------------------
 1/5=1,10=4,11=1,18=20,26=3,38=1/1,3;
 2/9=110,12=2,17=6,18=5,40=1/2;
 3/5=4,6=6,7=111,11=2,25=1,30=1,71=2,74=-5,75=-4,140=1/1,2,3;
 4//1;
 5/5=2,38=5/2;
 8/6=4,10=90,11=11/1;
 11/6=1,8=1,9=11,15=111,16=1/1,2,10;
 10/6=1,13=1/2;
 6/7=2,8=2,9=2,10=2,28=1/1;
 7/10=1,18=20,25=1/1,2,3,16;
 1/5=1,10=4,11=1,18=20,26=3/3(2);
 2/9=110/2;
 99//99;
 2/9=110/2;
 3/5=4,6=6,7=111,11=2,25=1,30=1,71=1,74=-5,75=-4/1,2,3;
 4/5=5,16=3,69=1/1;
 5/5=2,38=5/2;
 7//1,2,3,16;
 1/5=1,11=1,18=20,26=3/3(-5);
 2/9=110/2;
 6/7=2,8=2,9=2,10=2,19=2,28=1/1;
 99/9=1/99;
 -----------------------
 7-memb-dirTSguess-4bcis
 -----------------------
 Symbolic Z-matrix:
 Charge =  0 Multiplicity = 1
 C                     1.68095  -2.72513  -0.01397 
 C                     1.48741  -1.42779   0.44191 
 C                     2.55015  -0.51888   0.5683 
 C                     3.86274  -0.80974   0.22955 
 C                     3.06331  -3.10607  -0.19768 
 C                     4.10188  -2.19647  -0.08725 
 C                     2.00358   0.77326   0.6007 
 C                     2.75268   1.87418   0.22346 
 C                     4.15691   1.6278    0.02811 
 C                     4.69364   0.34572   0.03743 
 C                     0.57482   0.67835   0.54419 
 C                    -0.15484   1.81246   0.11069 
 C                     0.61711   3.01349  -0.22512 
 C                     1.98947   3.04456  -0.14119 
 C                     0.49141  -3.41711  -0.39197 
 C                    -0.75284  -2.78178  -0.37492 
 C                    -0.90973  -1.38241   0.02005 
 C                     0.25903  -0.71283   0.42629 
 C                    -0.15359   4.24796  -0.64809 
 C                    -1.53898   1.76272   0.00107 
 C                    -2.23012   2.86194  -0.63949 
 C                    -1.60049   4.01136  -0.95495 
 C                    -1.94878  -3.48617  -0.76253 
 C                    -3.16939  -2.90882  -0.66405 
 C                    -3.33858  -1.56411  -0.16239 
 C                    -2.16974  -0.76035   0.08859 
 C                    -2.33132   0.62619   0.60734 
 C                    -3.69527   1.00654   0.96007 
 C                    -4.59531  -1.08851   0.17239 
 C                    -4.7624    0.18207   0.77993 
 H                    -5.75415   0.50489   1.07628 
 H                    -3.84093   1.99507   1.3795 
 H                    -1.43881   0.44865   2.10553 
 H                    -5.46273  -1.71532  -0.00561 
 H                    -4.06301  -3.469    -0.91865 
 H                    -1.85482  -4.51003  -1.10906 
 H                     0.54349  -4.4433   -0.74226 
 H                     3.29279  -4.12244  -0.50149 
 H                     5.11051  -2.52871  -0.31213 
 H                     5.74831   0.2215   -0.18738 
 H                     4.80994   2.4614   -0.21023 
 H                     2.51301   3.95379  -0.42377 
 H                     0.3376    4.72438  -1.50506 
 H                    -2.1558    4.82868  -1.40307 
 H                    -3.28587   2.75516  -0.85661 
 H                    -0.10184   5.00068   0.15519 
 
 Add virtual bond connecting atoms H33        and C27        Dist= 3.31D+00.

 GradGradGradGradGradGradGradGradGradGradGradGradGradGradGradGradGradGrad
 Berny optimization.
 Initialization pass.
                           ----------------------------
                           !    Initial Parameters    !
                           ! (Angstroms and Degrees)  !
 --------------------------                            --------------------------
 ! Name  Definition              Value          Derivative Info.                !
 --------------------------------------------------------------------------------
 ! R1    R(1,2)                  1.3887         calculate D2E/DX2 analytically  !
 ! R2    R(1,5)                  1.4456         calculate D2E/DX2 analytically  !
 ! R3    R(1,15)                 1.4271         calculate D2E/DX2 analytically  !
 ! R4    R(2,3)                  1.4041         calculate D2E/DX2 analytically  !
 ! R5    R(2,18)                 1.4214         calculate D2E/DX2 analytically  !
 ! R6    R(3,4)                  1.3864         calculate D2E/DX2 analytically  !
 ! R7    R(3,7)                  1.4034         calculate D2E/DX2 analytically  !
 ! R8    R(4,6)                  1.4424         calculate D2E/DX2 analytically  !
 ! R9    R(4,10)                 1.4361         calculate D2E/DX2 analytically  !
 ! R10   R(5,6)                  1.385          calculate D2E/DX2 analytically  !
 ! R11   R(5,38)                 1.0853         calculate D2E/DX2 analytically  !
 ! R12   R(6,39)                 1.0855         calculate D2E/DX2 analytically  !
 ! R13   R(7,8)                  1.384          calculate D2E/DX2 analytically  !
 ! R14   R(7,11)                 1.433          calculate D2E/DX2 analytically  !
 ! R15   R(8,9)                  1.439          calculate D2E/DX2 analytically  !
 ! R16   R(8,14)                 1.444          calculate D2E/DX2 analytically  !
 ! R17   R(9,10)                 1.3899         calculate D2E/DX2 analytically  !
 ! R18   R(9,41)                 1.0854         calculate D2E/DX2 analytically  !
 ! R19   R(10,40)                1.0855         calculate D2E/DX2 analytically  !
 ! R20   R(11,12)                1.4165         calculate D2E/DX2 analytically  !
 ! R21   R(11,18)                1.4314         calculate D2E/DX2 analytically  !
 ! R22   R(12,13)                1.4667         calculate D2E/DX2 analytically  !
 ! R23   R(12,20)                1.3894         calculate D2E/DX2 analytically  !
 ! R24   R(13,14)                1.3753         calculate D2E/DX2 analytically  !
 ! R25   R(13,19)                1.5155         calculate D2E/DX2 analytically  !
 ! R26   R(14,42)                1.0866         calculate D2E/DX2 analytically  !
 ! R27   R(15,16)                1.3972         calculate D2E/DX2 analytically  !
 ! R28   R(15,37)                1.0856         calculate D2E/DX2 analytically  !
 ! R29   R(16,17)                1.4625         calculate D2E/DX2 analytically  !
 ! R30   R(16,23)                1.4411         calculate D2E/DX2 analytically  !
 ! R31   R(17,18)                1.4069         calculate D2E/DX2 analytically  !
 ! R32   R(17,26)                1.4069         calculate D2E/DX2 analytically  !
 ! R33   R(19,22)                1.4979         calculate D2E/DX2 analytically  !
 ! R34   R(19,43)                1.0966         calculate D2E/DX2 analytically  !
 ! R35   R(19,46)                1.1021         calculate D2E/DX2 analytically  !
 ! R36   R(20,21)                1.4479         calculate D2E/DX2 analytically  !
 ! R37   R(20,27)                1.5123         calculate D2E/DX2 analytically  !
 ! R38   R(21,22)                1.348          calculate D2E/DX2 analytically  !
 ! R39   R(21,45)                1.0831         calculate D2E/DX2 analytically  !
 ! R40   R(22,44)                1.085          calculate D2E/DX2 analytically  !
 ! R41   R(23,24)                1.3539         calculate D2E/DX2 analytically  !
 ! R42   R(23,36)                1.085          calculate D2E/DX2 analytically  !
 ! R43   R(24,25)                1.4452         calculate D2E/DX2 analytically  !
 ! R44   R(24,35)                1.085          calculate D2E/DX2 analytically  !
 ! R45   R(25,26)                1.4406         calculate D2E/DX2 analytically  !
 ! R46   R(25,29)                1.3848         calculate D2E/DX2 analytically  !
 ! R47   R(26,27)                1.4892         calculate D2E/DX2 analytically  !
 ! R48   R(27,28)                1.4593         calculate D2E/DX2 analytically  !
 ! R49   R(27,33)                1.7529         calculate D2E/DX2 analytically  !
 ! R50   R(28,30)                1.3605         calculate D2E/DX2 analytically  !
 ! R51   R(28,32)                1.0837         calculate D2E/DX2 analytically  !
 ! R52   R(29,30)                1.4182         calculate D2E/DX2 analytically  !
 ! R53   R(29,34)                1.0849         calculate D2E/DX2 analytically  !
 ! R54   R(30,31)                1.0843         calculate D2E/DX2 analytically  !
 ! A1    A(2,1,5)              114.9086         calculate D2E/DX2 analytically  !
 ! A2    A(2,1,15)             115.0729         calculate D2E/DX2 analytically  !
 ! A3    A(5,1,15)             129.4659         calculate D2E/DX2 analytically  !
 ! A4    A(1,2,3)              121.9259         calculate D2E/DX2 analytically  !
 ! A5    A(1,2,18)             125.9276         calculate D2E/DX2 analytically  !
 ! A6    A(3,2,18)             109.238          calculate D2E/DX2 analytically  !
 ! A7    A(2,3,4)              123.9707         calculate D2E/DX2 analytically  !
 ! A8    A(2,3,7)              107.6567         calculate D2E/DX2 analytically  !
 ! A9    A(4,3,7)              124.5777         calculate D2E/DX2 analytically  !
 ! A10   A(3,4,6)              114.3499         calculate D2E/DX2 analytically  !
 ! A11   A(3,4,10)             114.309          calculate D2E/DX2 analytically  !
 ! A12   A(6,4,10)             130.4067         calculate D2E/DX2 analytically  !
 ! A13   A(1,5,6)              122.2677         calculate D2E/DX2 analytically  !
 ! A14   A(1,5,38)             118.9812         calculate D2E/DX2 analytically  !
 ! A15   A(6,5,38)             118.6062         calculate D2E/DX2 analytically  !
 ! A16   A(4,6,5)              121.6404         calculate D2E/DX2 analytically  !
 ! A17   A(4,6,39)             119.5913         calculate D2E/DX2 analytically  !
 ! A18   A(5,6,39)             118.6363         calculate D2E/DX2 analytically  !
 ! A19   A(3,7,8)              121.0189         calculate D2E/DX2 analytically  !
 ! A20   A(3,7,11)             109.0522         calculate D2E/DX2 analytically  !
 ! A21   A(8,7,11)             125.5613         calculate D2E/DX2 analytically  !
 ! A22   A(7,8,9)              115.4026         calculate D2E/DX2 analytically  !
 ! A23   A(7,8,14)             115.3075         calculate D2E/DX2 analytically  !
 ! A24   A(9,8,14)             128.3339         calculate D2E/DX2 analytically  !
 ! A25   A(8,9,10)             122.266          calculate D2E/DX2 analytically  !
 ! A26   A(8,9,41)             119.0393         calculate D2E/DX2 analytically  !
 ! A27   A(10,9,41)            118.5258         calculate D2E/DX2 analytically  !
 ! A28   A(4,10,9)             121.3071         calculate D2E/DX2 analytically  !
 ! A29   A(4,10,40)            119.8534         calculate D2E/DX2 analytically  !
 ! A30   A(9,10,40)            118.6436         calculate D2E/DX2 analytically  !
 ! A31   A(7,11,12)            118.2047         calculate D2E/DX2 analytically  !
 ! A32   A(7,11,18)            106.7124         calculate D2E/DX2 analytically  !
 ! A33   A(12,11,18)           129.7374         calculate D2E/DX2 analytically  !
 ! A34   A(11,12,13)           117.037          calculate D2E/DX2 analytically  !
 ! A35   A(11,12,20)           120.5742         calculate D2E/DX2 analytically  !
 ! A36   A(13,12,20)           122.3848         calculate D2E/DX2 analytically  !
 ! A37   A(12,13,14)           121.9879         calculate D2E/DX2 analytically  !
 ! A38   A(12,13,19)           117.5975         calculate D2E/DX2 analytically  !
 ! A39   A(14,13,19)           120.4038         calculate D2E/DX2 analytically  !
 ! A40   A(8,14,13)            121.6349         calculate D2E/DX2 analytically  !
 ! A41   A(8,14,42)            119.2895         calculate D2E/DX2 analytically  !
 ! A42   A(13,14,42)           118.9363         calculate D2E/DX2 analytically  !
 ! A43   A(1,15,16)            121.2364         calculate D2E/DX2 analytically  !
 ! A44   A(1,15,37)            120.2533         calculate D2E/DX2 analytically  !
 ! A45   A(16,15,37)           118.4576         calculate D2E/DX2 analytically  !
 ! A46   A(15,16,17)           122.2715         calculate D2E/DX2 analytically  !
 ! A47   A(15,16,23)           120.8983         calculate D2E/DX2 analytically  !
 ! A48   A(17,16,23)           116.8281         calculate D2E/DX2 analytically  !
 ! A49   A(16,17,18)           116.3758         calculate D2E/DX2 analytically  !
 ! A50   A(16,17,26)           122.162          calculate D2E/DX2 analytically  !
 ! A51   A(18,17,26)           121.2992         calculate D2E/DX2 analytically  !
 ! A52   A(2,18,11)            107.2951         calculate D2E/DX2 analytically  !
 ! A53   A(2,18,17)            118.7972         calculate D2E/DX2 analytically  !
 ! A54   A(11,18,17)           132.0359         calculate D2E/DX2 analytically  !
 ! A55   A(13,19,22)           114.8185         calculate D2E/DX2 analytically  !
 ! A56   A(13,19,43)           110.1325         calculate D2E/DX2 analytically  !
 ! A57   A(13,19,46)           109.2105         calculate D2E/DX2 analytically  !
 ! A58   A(22,19,43)           109.9494         calculate D2E/DX2 analytically  !
 ! A59   A(22,19,46)           107.6113         calculate D2E/DX2 analytically  !
 ! A60   A(43,19,46)           104.5862         calculate D2E/DX2 analytically  !
 ! A61   A(12,20,21)           118.9            calculate D2E/DX2 analytically  !
 ! A62   A(12,20,27)           121.147          calculate D2E/DX2 analytically  !
 ! A63   A(21,20,27)           119.8562         calculate D2E/DX2 analytically  !
 ! A64   A(20,21,22)           121.8662         calculate D2E/DX2 analytically  !
 ! A65   A(20,21,45)           118.6282         calculate D2E/DX2 analytically  !
 ! A66   A(22,21,45)           119.5008         calculate D2E/DX2 analytically  !
 ! A67   A(19,22,21)           122.5426         calculate D2E/DX2 analytically  !
 ! A68   A(19,22,44)           117.3882         calculate D2E/DX2 analytically  !
 ! A69   A(21,22,44)           119.9949         calculate D2E/DX2 analytically  !
 ! A70   A(16,23,24)           121.3464         calculate D2E/DX2 analytically  !
 ! A71   A(16,23,36)           118.3785         calculate D2E/DX2 analytically  !
 ! A72   A(24,23,36)           120.2471         calculate D2E/DX2 analytically  !
 ! A73   A(23,24,25)           121.8437         calculate D2E/DX2 analytically  !
 ! A74   A(23,24,35)           120.3527         calculate D2E/DX2 analytically  !
 ! A75   A(25,24,35)           117.739          calculate D2E/DX2 analytically  !
 ! A76   A(24,25,26)           118.9899         calculate D2E/DX2 analytically  !
 ! A77   A(24,25,29)           120.6462         calculate D2E/DX2 analytically  !
 ! A78   A(26,25,29)           120.172          calculate D2E/DX2 analytically  !
 ! A79   A(17,26,25)           118.1307         calculate D2E/DX2 analytically  !
 ! A80   A(17,26,27)           121.7241         calculate D2E/DX2 analytically  !
 ! A81   A(25,26,27)           119.4816         calculate D2E/DX2 analytically  !
 ! A82   A(20,27,26)           120.2129         calculate D2E/DX2 analytically  !
 ! A83   A(20,27,28)           113.0001         calculate D2E/DX2 analytically  !
 ! A84   A(20,27,33)            98.7423         calculate D2E/DX2 analytically  !
 ! A85   A(26,27,28)           115.3594         calculate D2E/DX2 analytically  !
 ! A86   A(26,27,33)            98.5214         calculate D2E/DX2 analytically  !
 ! A87   A(28,27,33)           107.2004         calculate D2E/DX2 analytically  !
 ! A88   A(27,28,30)           122.9001         calculate D2E/DX2 analytically  !
 ! A89   A(27,28,32)           117.1909         calculate D2E/DX2 analytically  !
 ! A90   A(30,28,32)           119.9087         calculate D2E/DX2 analytically  !
 ! A91   A(25,29,30)           121.2097         calculate D2E/DX2 analytically  !
 ! A92   A(25,29,34)           119.1774         calculate D2E/DX2 analytically  !
 ! A93   A(30,29,34)           119.5835         calculate D2E/DX2 analytically  !
 ! A94   A(28,30,29)           120.4789         calculate D2E/DX2 analytically  !
 ! A95   A(28,30,31)           120.0546         calculate D2E/DX2 analytically  !
 ! A96   A(29,30,31)           119.445          calculate D2E/DX2 analytically  !
 ! D1    D(5,1,2,3)              6.7326         calculate D2E/DX2 analytically  !
 ! D2    D(5,1,2,18)           165.3096         calculate D2E/DX2 analytically  !
 ! D3    D(15,1,2,3)          -165.5637         calculate D2E/DX2 analytically  !
 ! D4    D(15,1,2,18)           -6.9867         calculate D2E/DX2 analytically  !
 ! D5    D(2,1,5,6)             -7.6489         calculate D2E/DX2 analytically  !
 ! D6    D(2,1,5,38)           176.7915         calculate D2E/DX2 analytically  !
 ! D7    D(15,1,5,6)           163.3022         calculate D2E/DX2 analytically  !
 ! D8    D(15,1,5,38)          -12.2575         calculate D2E/DX2 analytically  !
 ! D9    D(2,1,15,16)            3.8706         calculate D2E/DX2 analytically  !
 ! D10   D(2,1,15,37)         -178.8104         calculate D2E/DX2 analytically  !
 ! D11   D(5,1,15,16)         -167.0683         calculate D2E/DX2 analytically  !
 ! D12   D(5,1,15,37)           10.2507         calculate D2E/DX2 analytically  !
 ! D13   D(1,2,3,4)              1.505          calculate D2E/DX2 analytically  !
 ! D14   D(1,2,3,7)            160.3517         calculate D2E/DX2 analytically  !
 ! D15   D(18,2,3,4)          -160.2393         calculate D2E/DX2 analytically  !
 ! D16   D(18,2,3,7)            -1.3926         calculate D2E/DX2 analytically  !
 ! D17   D(1,2,18,11)         -160.7273         calculate D2E/DX2 analytically  !
 ! D18   D(1,2,18,17)            5.5448         calculate D2E/DX2 analytically  !
 ! D19   D(3,2,18,11)            0.1049         calculate D2E/DX2 analytically  !
 ! D20   D(3,2,18,17)          166.377          calculate D2E/DX2 analytically  !
 ! D21   D(2,3,4,6)             -8.6277         calculate D2E/DX2 analytically  !
 ! D22   D(2,3,4,10)           161.4852         calculate D2E/DX2 analytically  !
 ! D23   D(7,3,4,6)           -163.9421         calculate D2E/DX2 analytically  !
 ! D24   D(7,3,4,10)             6.1708         calculate D2E/DX2 analytically  !
 ! D25   D(2,3,7,8)           -155.6095         calculate D2E/DX2 analytically  !
 ! D26   D(2,3,7,11)             2.1502         calculate D2E/DX2 analytically  !
 ! D27   D(4,3,7,8)              3.0764         calculate D2E/DX2 analytically  !
 ! D28   D(4,3,7,11)           160.8362         calculate D2E/DX2 analytically  !
 ! D29   D(3,4,6,5)              7.5147         calculate D2E/DX2 analytically  !
 ! D30   D(3,4,6,39)          -176.7187         calculate D2E/DX2 analytically  !
 ! D31   D(10,4,6,5)          -160.6263         calculate D2E/DX2 analytically  !
 ! D32   D(10,4,6,39)           15.1403         calculate D2E/DX2 analytically  !
 ! D33   D(3,4,10,9)            -7.8423         calculate D2E/DX2 analytically  !
 ! D34   D(3,4,10,40)          177.3126         calculate D2E/DX2 analytically  !
 ! D35   D(6,4,10,9)           160.3026         calculate D2E/DX2 analytically  !
 ! D36   D(6,4,10,40)          -14.5425         calculate D2E/DX2 analytically  !
 ! D37   D(1,5,6,4)              0.4825         calculate D2E/DX2 analytically  !
 ! D38   D(1,5,6,39)          -175.3233         calculate D2E/DX2 analytically  !
 ! D39   D(38,5,6,4)           176.0581         calculate D2E/DX2 analytically  !
 ! D40   D(38,5,6,39)            0.2523         calculate D2E/DX2 analytically  !
 ! D41   D(3,7,8,9)            -10.1985         calculate D2E/DX2 analytically  !
 ! D42   D(3,7,8,14)           159.564          calculate D2E/DX2 analytically  !
 ! D43   D(11,7,8,9)          -164.1087         calculate D2E/DX2 analytically  !
 ! D44   D(11,7,8,14)            5.6538         calculate D2E/DX2 analytically  !
 ! D45   D(3,7,11,12)         -158.7699         calculate D2E/DX2 analytically  !
 ! D46   D(3,7,11,18)           -2.0742         calculate D2E/DX2 analytically  !
 ! D47   D(8,7,11,12)           -2.2689         calculate D2E/DX2 analytically  !
 ! D48   D(8,7,11,18)          154.4269         calculate D2E/DX2 analytically  !
 ! D49   D(7,8,9,10)             8.433          calculate D2E/DX2 analytically  !
 ! D50   D(7,8,9,41)          -176.3633         calculate D2E/DX2 analytically  !
 ! D51   D(14,8,9,10)         -159.7473         calculate D2E/DX2 analytically  !
 ! D52   D(14,8,9,41)           15.4564         calculate D2E/DX2 analytically  !
 ! D53   D(7,8,14,13)           -5.8738         calculate D2E/DX2 analytically  !
 ! D54   D(7,8,14,42)          178.4628         calculate D2E/DX2 analytically  !
 ! D55   D(9,8,14,13)          162.316          calculate D2E/DX2 analytically  !
 ! D56   D(9,8,14,42)          -13.3474         calculate D2E/DX2 analytically  !
 ! D57   D(8,9,10,4)             0.7127         calculate D2E/DX2 analytically  !
 ! D58   D(8,9,10,40)          175.6185         calculate D2E/DX2 analytically  !
 ! D59   D(41,9,10,4)         -174.5146         calculate D2E/DX2 analytically  !
 ! D60   D(41,9,10,40)           0.3912         calculate D2E/DX2 analytically  !
 ! D61   D(7,11,12,13)          -1.1212         calculate D2E/DX2 analytically  !
 ! D62   D(7,11,12,20)         178.1701         calculate D2E/DX2 analytically  !
 ! D63   D(18,11,12,13)       -151.6008         calculate D2E/DX2 analytically  !
 ! D64   D(18,11,12,20)         27.6904         calculate D2E/DX2 analytically  !
 ! D65   D(7,11,18,2)            1.191          calculate D2E/DX2 analytically  !
 ! D66   D(7,11,18,17)        -162.5487         calculate D2E/DX2 analytically  !
 ! D67   D(12,11,18,2)         154.2304         calculate D2E/DX2 analytically  !
 ! D68   D(12,11,18,17)         -9.5094         calculate D2E/DX2 analytically  !
 ! D69   D(11,12,13,14)          0.7118         calculate D2E/DX2 analytically  !
 ! D70   D(11,12,13,19)       -178.1015         calculate D2E/DX2 analytically  !
 ! D71   D(20,12,13,14)       -178.5656         calculate D2E/DX2 analytically  !
 ! D72   D(20,12,13,19)          2.6211         calculate D2E/DX2 analytically  !
 ! D73   D(11,12,20,21)       -170.4505         calculate D2E/DX2 analytically  !
 ! D74   D(11,12,20,27)         13.1325         calculate D2E/DX2 analytically  !
 ! D75   D(13,12,20,21)          8.8019         calculate D2E/DX2 analytically  !
 ! D76   D(13,12,20,27)       -167.615          calculate D2E/DX2 analytically  !
 ! D77   D(12,13,14,8)           2.9377         calculate D2E/DX2 analytically  !
 ! D78   D(12,13,14,42)        178.6161         calculate D2E/DX2 analytically  !
 ! D79   D(19,13,14,8)        -178.2817         calculate D2E/DX2 analytically  !
 ! D80   D(19,13,14,42)         -2.6033         calculate D2E/DX2 analytically  !
 ! D81   D(12,13,19,22)        -12.5011         calculate D2E/DX2 analytically  !
 ! D82   D(12,13,19,43)       -137.2446         calculate D2E/DX2 analytically  !
 ! D83   D(12,13,19,46)        108.4389         calculate D2E/DX2 analytically  !
 ! D84   D(14,13,19,22)        168.6659         calculate D2E/DX2 analytically  !
 ! D85   D(14,13,19,43)         43.9225         calculate D2E/DX2 analytically  !
 ! D86   D(14,13,19,46)        -70.3941         calculate D2E/DX2 analytically  !
 ! D87   D(1,15,16,17)           0.3299         calculate D2E/DX2 analytically  !
 ! D88   D(1,15,16,23)         179.7832         calculate D2E/DX2 analytically  !
 ! D89   D(37,15,16,17)       -177.036          calculate D2E/DX2 analytically  !
 ! D90   D(37,15,16,23)          2.4173         calculate D2E/DX2 analytically  !
 ! D91   D(15,16,17,18)         -1.9518         calculate D2E/DX2 analytically  !
 ! D92   D(15,16,17,26)       -177.3649         calculate D2E/DX2 analytically  !
 ! D93   D(23,16,17,18)        178.5738         calculate D2E/DX2 analytically  !
 ! D94   D(23,16,17,26)          3.1608         calculate D2E/DX2 analytically  !
 ! D95   D(15,16,23,24)        175.4964         calculate D2E/DX2 analytically  !
 ! D96   D(15,16,23,36)         -2.5844         calculate D2E/DX2 analytically  !
 ! D97   D(17,16,23,24)         -5.0216         calculate D2E/DX2 analytically  !
 ! D98   D(17,16,23,36)        176.8976         calculate D2E/DX2 analytically  !
 ! D99   D(16,17,18,2)          -0.732          calculate D2E/DX2 analytically  !
 ! D100  D(16,17,18,11)        161.5056         calculate D2E/DX2 analytically  !
 ! D101  D(26,17,18,2)         174.7236         calculate D2E/DX2 analytically  !
 ! D102  D(26,17,18,11)        -23.0387         calculate D2E/DX2 analytically  !
 ! D103  D(16,17,26,25)          3.8453         calculate D2E/DX2 analytically  !
 ! D104  D(16,17,26,27)        174.4566         calculate D2E/DX2 analytically  !
 ! D105  D(18,17,26,25)       -171.3449         calculate D2E/DX2 analytically  !
 ! D106  D(18,17,26,27)         -0.7335         calculate D2E/DX2 analytically  !
 ! D107  D(13,19,22,21)         12.1016         calculate D2E/DX2 analytically  !
 ! D108  D(13,19,22,44)       -171.0354         calculate D2E/DX2 analytically  !
 ! D109  D(43,19,22,21)        136.9413         calculate D2E/DX2 analytically  !
 ! D110  D(43,19,22,44)        -46.1958         calculate D2E/DX2 analytically  !
 ! D111  D(46,19,22,21)       -109.7113         calculate D2E/DX2 analytically  !
 ! D112  D(46,19,22,44)         67.1516         calculate D2E/DX2 analytically  !
 ! D113  D(12,20,21,22)         -9.8609         calculate D2E/DX2 analytically  !
 ! D114  D(12,20,21,45)        170.944          calculate D2E/DX2 analytically  !
 ! D115  D(27,20,21,22)        166.6034         calculate D2E/DX2 analytically  !
 ! D116  D(27,20,21,45)        -12.5918         calculate D2E/DX2 analytically  !
 ! D117  D(12,20,27,26)        -65.4273         calculate D2E/DX2 analytically  !
 ! D118  D(12,20,27,28)        152.7963         calculate D2E/DX2 analytically  !
 ! D119  D(12,20,27,33)         39.8228         calculate D2E/DX2 analytically  !
 ! D120  D(21,20,27,26)        118.1896         calculate D2E/DX2 analytically  !
 ! D121  D(21,20,27,28)        -23.5868         calculate D2E/DX2 analytically  !
 ! D122  D(21,20,27,33)       -136.5602         calculate D2E/DX2 analytically  !
 ! D123  D(20,21,22,19)         -1.0827         calculate D2E/DX2 analytically  !
 ! D124  D(20,21,22,44)       -177.8665         calculate D2E/DX2 analytically  !
 ! D125  D(45,21,22,19)        178.1056         calculate D2E/DX2 analytically  !
 ! D126  D(45,21,22,44)          1.3218         calculate D2E/DX2 analytically  !
 ! D127  D(16,23,24,25)         -0.2592         calculate D2E/DX2 analytically  !
 ! D128  D(16,23,24,35)       -177.2703         calculate D2E/DX2 analytically  !
 ! D129  D(36,23,24,25)        177.7861         calculate D2E/DX2 analytically  !
 ! D130  D(36,23,24,35)          0.775          calculate D2E/DX2 analytically  !
 ! D131  D(23,24,25,26)          7.5477         calculate D2E/DX2 analytically  !
 ! D132  D(23,24,25,29)       -167.4265         calculate D2E/DX2 analytically  !
 ! D133  D(35,24,25,26)       -175.3663         calculate D2E/DX2 analytically  !
 ! D134  D(35,24,25,29)          9.6594         calculate D2E/DX2 analytically  !
 ! D135  D(24,25,26,17)         -9.0896         calculate D2E/DX2 analytically  !
 ! D136  D(24,25,26,27)       -179.9177         calculate D2E/DX2 analytically  !
 ! D137  D(29,25,26,17)        165.9091         calculate D2E/DX2 analytically  !
 ! D138  D(29,25,26,27)         -4.9191         calculate D2E/DX2 analytically  !
 ! D139  D(24,25,29,30)        174.1355         calculate D2E/DX2 analytically  !
 ! D140  D(24,25,29,34)         -3.8803         calculate D2E/DX2 analytically  !
 ! D141  D(26,25,29,30)         -0.7794         calculate D2E/DX2 analytically  !
 ! D142  D(26,25,29,34)       -178.7952         calculate D2E/DX2 analytically  !
 ! D143  D(17,26,27,20)         55.0498         calculate D2E/DX2 analytically  !
 ! D144  D(17,26,27,28)       -164.0211         calculate D2E/DX2 analytically  !
 ! D145  D(17,26,27,33)        -50.3229         calculate D2E/DX2 analytically  !
 ! D146  D(25,26,27,20)       -134.4625         calculate D2E/DX2 analytically  !
 ! D147  D(25,26,27,28)          6.4667         calculate D2E/DX2 analytically  !
 ! D148  D(25,26,27,33)        120.1648         calculate D2E/DX2 analytically  !
 ! D149  D(20,27,28,30)        141.0499         calculate D2E/DX2 analytically  !
 ! D150  D(20,27,28,32)        -38.7562         calculate D2E/DX2 analytically  !
 ! D151  D(26,27,28,30)         -2.6722         calculate D2E/DX2 analytically  !
 ! D152  D(26,27,28,32)        177.5216         calculate D2E/DX2 analytically  !
 ! D153  D(33,27,28,30)       -111.2372         calculate D2E/DX2 analytically  !
 ! D154  D(33,27,28,32)         68.9567         calculate D2E/DX2 analytically  !
 ! D155  D(27,28,30,29)         -2.8755         calculate D2E/DX2 analytically  !
 ! D156  D(27,28,30,31)        178.8187         calculate D2E/DX2 analytically  !
 ! D157  D(32,28,30,29)        176.9255         calculate D2E/DX2 analytically  !
 ! D158  D(32,28,30,31)         -1.3802         calculate D2E/DX2 analytically  !
 ! D159  D(25,29,30,28)          4.7902         calculate D2E/DX2 analytically  !
 ! D160  D(25,29,30,31)       -176.8938         calculate D2E/DX2 analytically  !
 ! D161  D(34,29,30,28)       -177.2019         calculate D2E/DX2 analytically  !
 ! D162  D(34,29,30,31)          1.1142         calculate D2E/DX2 analytically  !
 --------------------------------------------------------------------------------
 Trust Radius=3.00D-01 FncErr=1.00D-07 GrdErr=1.00D-06 EigMax=2.50D+02 EigMin=1.00D-04
 Number of steps in this run=    276 maximum allowed number of steps=    276.
 Search for a saddle point of order  1.
 GradGradGradGradGradGradGradGradGradGradGradGradGradGradGradGradGradGrad

                          Input orientation:                          
 ---------------------------------------------------------------------
 Center     Atomic      Atomic             Coordinates (Angstroms)
 Number     Number       Type             X           Y           Z
 ---------------------------------------------------------------------
      1          6           0        1.680951   -2.725134   -0.013967
      2          6           0        1.487414   -1.427788    0.441910
      3          6           0        2.550148   -0.518883    0.568303
      4          6           0        3.862735   -0.809736    0.229550
      5          6           0        3.063308   -3.106065   -0.197676
      6          6           0        4.101879   -2.196466   -0.087249
      7          6           0        2.003575    0.773256    0.600697
      8          6           0        2.752678    1.874184    0.223460
      9          6           0        4.156911    1.627796    0.028108
     10          6           0        4.693637    0.345723    0.037429
     11          6           0        0.574821    0.678353    0.544187
     12          6           0       -0.154843    1.812462    0.110691
     13          6           0        0.617114    3.013490   -0.225118
     14          6           0        1.989472    3.044559   -0.141191
     15          6           0        0.491412   -3.417112   -0.391966
     16          6           0       -0.752839   -2.781780   -0.374923
     17          6           0       -0.909727   -1.382411    0.020046
     18          6           0        0.259027   -0.712828    0.426292
     19          6           0       -0.153585    4.247956   -0.648093
     20          6           0       -1.538983    1.762717    0.001066
     21          6           0       -2.230119    2.861941   -0.639492
     22          6           0       -1.600492    4.011362   -0.954946
     23          6           0       -1.948780   -3.486167   -0.762526
     24          6           0       -3.169388   -2.908817   -0.664047
     25          6           0       -3.338577   -1.564114   -0.162391
     26          6           0       -2.169740   -0.760347    0.088589
     27          6           0       -2.331324    0.626192    0.607342
     28          6           0       -3.695265    1.006539    0.960066
     29          6           0       -4.595306   -1.088514    0.172390
     30          6           0       -4.762396    0.182066    0.779927
     31          1           0       -5.754147    0.504890    1.076280
     32          1           0       -3.840929    1.995074    1.379504
     33          1           0       -1.438808    0.448653    2.105531
     34          1           0       -5.462727   -1.715316   -0.005612
     35          1           0       -4.063014   -3.469001   -0.918650
     36          1           0       -1.854822   -4.510030   -1.109055
     37          1           0        0.543492   -4.443299   -0.742259
     38          1           0        3.292789   -4.122438   -0.501487
     39          1           0        5.110514   -2.528706   -0.312127
     40          1           0        5.748308    0.221501   -0.187384
     41          1           0        4.809940    2.461396   -0.210227
     42          1           0        2.513011    3.953789   -0.423771
     43          1           0        0.337600    4.724375   -1.505057
     44          1           0       -2.155800    4.828681   -1.403073
     45          1           0       -3.285874    2.755155   -0.856610
     46          1           0       -0.101840    5.000675    0.155191
 ---------------------------------------------------------------------
                    Distance matrix (angstroms):
                    1          2          3          4          5
     1  C    0.000000
     2  C    1.388664   0.000000
     3  C    2.441738   1.404097   0.000000
     4  C    2.913457   2.463582   1.386446   0.000000
     5  C    1.445603   2.389378   2.746556   2.468751   0.000000
     6  C    2.479063   2.776023   2.377373   1.442419   1.384989
     7  C    3.566599   2.266325   1.403358   2.469836   4.099947
     8  C    4.728498   3.542828   2.426253   2.904426   5.007667
     9  C    5.008008   4.078485   2.735275   2.463469   4.863783
    10  C    4.302218   3.686301   2.371480   1.436104   3.824668
    11  C    3.621986   2.297633   2.309951   3.622676   4.589635
    12  C    4.896474   3.647730   3.600216   4.799061   5.885872
    13  C    5.840217   4.574636   4.104119   5.035656   6.590415
    14  C    5.779336   4.538056   3.676392   4.301413   6.243916
    15  C    1.427137   2.375874   3.682423   4.307030   2.597912
    16  C    2.461063   2.742124   4.113405   5.055479   3.834000
    17  C    2.918163   2.434402   3.607908   4.811262   4.336288
    18  C    2.503012   1.421389   2.303696   3.610375   3.739106
    19  C    7.238206   6.007916   5.613604   6.517770   8.039459
    20  C    5.523496   4.419586   4.716826   5.987343   6.702658
    21  C    6.848588   5.778517   5.978268   7.166541   7.989535
    22  C    7.552065   6.408644   6.330183   7.381928   8.542965
    23  C    3.783445   4.182705   5.551237   6.474659   5.058118
    24  C    4.897155   5.010229   6.320092   7.392930   6.253232
    25  C    5.154188   4.865589   6.025239   7.251317   6.585058
    26  C    4.324202   3.734312   4.750345   6.034324   5.741875
    27  C    5.264576   4.339235   5.014129   6.369536   6.609073
    28  C    6.616481   5.749313   6.440930   7.807424   7.995761
    29  C    6.488810   6.098133   7.179049   8.462827   7.928545
    30  C    7.113283   6.462663   7.349110   8.699395   8.544540
    31  H    8.179387   7.521827   8.382569   9.743183   9.612985
    32  H    7.396843   6.402055   6.915482   8.278635   8.727978
    33  H    4.929309   3.853757   4.383032   5.762743   6.181410
    34  H    7.214703   6.970467   8.122007   9.372279   8.640853
    35  H    5.862160   6.068354   7.392438   8.438457   7.171889
    36  H    4.109351   4.803775   6.176289   6.940785   5.195164
    37  H    2.185478   3.374396   4.598400   5.016430   2.904176
    38  H    2.188186   3.377945   3.831654   3.439949   1.085346
    39  H    3.448099   3.861016   3.371946   2.192082   2.130140
    40  H    5.025547   4.612091   3.368599   2.189217   4.275749
    41  H    6.060461   5.156570   3.820318   3.433789   5.835024
    42  H    6.743017   5.546406   4.581526   4.993972   7.084877
    43  H    7.715123   6.554530   6.056892   6.786886   8.393719
    44  H    8.585476   7.471303   7.391124   8.407138   9.573519
    45  H    7.443989   6.478229   6.841700   8.061687   8.666038
    46  H    7.930642   6.628203   6.137526   7.034505   8.709874
                    6          7          8          9         10
     6  C    0.000000
     7  C    3.700729   0.000000
     8  C    4.299660   1.384018   0.000000
     9  C    3.826397   2.386410   1.439007   0.000000
    10  C    2.613130   2.781454   2.477523   1.389918   0.000000
    11  C    4.593847   1.433017   2.505182   3.741544   4.163183
    12  C    5.850672   2.445163   2.910362   4.316497   5.066009
    13  C    6.269469   2.760959   2.461681   3.809781   4.878929
    14  C    5.650975   2.389438   1.444033   2.594932   3.824674
    15  C    3.823389   4.564121   5.787045   6.250075   5.657031
    16  C    4.898330   4.603035   5.858730   6.611538   6.294077
    17  C    5.078424   3.670338   4.905099   5.893406   5.863824
    18  C    4.151195   2.298328   3.598898   4.564052   4.575752
    19  C    7.743003   4.276255   3.852371   5.089485   6.260425
    20  C    6.892188   3.726702   4.298865   5.697556   6.391772
    21  C    8.123217   4.881069   5.152535   6.539339   7.397836
    22  C    8.473905   5.088679   4.990617   6.308365   7.351039
    23  C    6.223327   5.968431   7.197863   8.003573   7.710059
    24  C    7.328811   6.474317   7.663918   8.644917   8.538809
    25  C    7.467657   5.880832   7.005295   8.149044   8.258563
    26  C    6.436347   4.475573   5.584724   6.762647   6.952119
    27  C    7.059459   4.337398   5.248993   6.590593   7.053619
    28  C    8.494208   5.714923   6.547623   7.931656   8.465318
    29  C    8.771317   6.869852   7.922945   9.165176   9.399985
    30  C    9.218719   6.794115   7.723293   9.066940   9.486551
    31  H   10.285542   7.776918   8.658426  10.029389  10.500511
    32  H    9.099921   6.021429   6.695275   8.119520   8.795473
    33  H    6.519521   3.770927   4.810705   6.084253   6.472598
    34  H    9.577048   7.893432   8.968270  10.184055  10.363468
    35  H    8.305182   7.557027   8.735428   9.718069   9.599226
    36  H    6.471395   6.761922   7.985164   8.666428   8.232562
    37  H    4.259039   5.581023   6.761931   7.106930   6.384853
    38  H    2.129692   5.181187   6.064383   5.838867   4.713520
    39  H    1.085494   4.624854   5.023115   4.278040   2.925460
    40  H    2.926998   3.866333   3.445860   2.134630   1.085497
    41  H    4.712977   3.373885   2.182941   1.085421   2.133291
    42  H    6.361084   3.380067   2.191142   2.883894   4.240988
    43  H    8.004875   4.777134   4.116304   5.150392   6.366075
    44  H    9.499612   6.145077   5.955486   7.221099   8.311844
    45  H    8.926890   5.833518   6.197320   7.579493   8.383154
    46  H    8.338397   4.743661   4.234133   5.434098   6.684239
                   11         12         13         14         15
    11  C    0.000000
    12  C    1.416521   0.000000
    13  C    2.458960   1.466681   0.000000
    14  C    2.840759   2.485879   1.375273   0.000000
    15  C    4.201925   5.293274   6.433994   6.637791   0.000000
    16  C    3.818372   4.658377   5.956876   6.443689   1.397175
    17  C    2.593329   3.284095   4.659967   5.294281   2.504586
    18  C    1.431436   2.578368   3.799738   4.175456   2.834908
    19  C    3.833298   2.550958   1.515517   2.509543   7.696421
    20  C    2.437005   1.389365   2.502868   3.756774   5.577419
    21  C    3.746577   2.443553   2.881217   4.252835   6.847956
    22  C    4.253038   2.839127   2.538932   3.805883   7.737909
    23  C    5.041754   5.661818   7.008435   7.651553   2.469134
    24  C    5.324164   5.654925   7.043009   7.894929   3.705921
    25  C    4.565369   4.648871   6.050280   7.044744   4.260883
    26  C    3.132099   3.267973   4.701788   5.641733   3.790919
    27  C    2.907299   2.528036   3.884002   5.007802   5.031378
    28  C    4.302824   3.729013   4.901951   6.138610   6.238986
    29  C    5.476337   5.304449   6.644830   7.780741   5.622772
    30  C    5.365423   4.933114   6.161672   7.391214   6.475331
    31  H    6.353664   5.830464   6.969912   8.239890   7.519631
    32  H    4.682986   3.902623   4.846249   6.116168   7.155351
    33  H    2.558370   2.736408   4.029532   4.851762   4.990729
    34  H    6.517969   6.374353   7.705469   8.843645   6.204607
    35  H    6.391397   6.650353   8.025414   8.925441   4.585072
    36  H    5.962859   6.659701   7.968385   8.531540   2.685796
    37  H    5.280837   6.352145   7.475062   7.649847   1.085577
    38  H    5.615014   6.890861   7.626079   7.293442   2.890881
    39  H    5.620588   6.837287   7.135415   6.389946   4.704439
    40  H    5.244891   6.121045   5.841727   4.701132   6.396586
    41  H    4.656674   5.017288   4.229045   2.880952   7.296545
    42  H    3.927086   3.462423   2.125571   1.086574   7.643171
    43  H    4.541582   3.366360   2.154878   2.722241   8.218664
    44  H    5.336041   3.923377   3.517321   4.686013   8.719127
    45  H    4.602206   3.409941   3.962175   5.331496   7.251253
    46  H    4.392227   3.188964   2.147192   2.878857   8.456386
                   16         17         18         19         20
    16  C    0.000000
    17  C    1.462480   0.000000
    18  C    2.438520   1.406898   0.000000
    19  C    7.060518   5.720069   5.092537   0.000000
    20  C    4.627293   3.207515   3.089010   2.918415   0.000000
    21  C    5.839858   4.493657   4.484497   2.496619   1.447853
    22  C    6.870351   5.524541   5.261521   1.497890   2.444207
    23  C    1.441066   2.473427   3.738865   7.940559   5.319943
    24  C    2.437097   2.811399   4.214883   7.766255   4.992377
    25  C    2.865994   2.442460   3.743526   6.645317   3.785903
    26  C    2.511701   1.406874   2.452593   5.448916   2.602185
    27  C    3.882104   2.529889   2.921587   4.408610   1.512304
    28  C    4.979099   3.788132   4.344832   5.063246   2.478112
    29  C    4.234531   3.700416   4.875465   6.991423   4.183298
    30  C    5.118067   4.227064   5.112786   6.309663   3.673619
    31  H    6.158025   5.305275   6.169569   6.953438   4.528335
    32  H    5.952533   4.674128   5.005096   4.773168   2.693146
    33  H    4.130242   2.825238   2.655471   4.865074   2.483057
    34  H    4.843220   4.565227   5.824946   8.010018   5.243331
    35  H    3.424204   3.895924   5.299566   8.654956   5.881112
    36  H    2.177192   3.456888   4.609164   8.933589   6.378047
    37  H    2.139172   3.473038   3.919547   8.719673   6.588161
    38  H    4.263858   5.043896   4.657244   9.053313   7.631096
    39  H    5.869148   6.137396   5.232552   8.587593   7.920241
    40  H    7.163783   6.851641   5.601944   7.159395   7.450870
    41  H    7.646079   6.895105   5.584950   5.293402   6.390745
    42  H    7.485723   6.355088   5.251701   2.692135   4.626007
    43  H    7.668678   6.416744   5.770568   1.096643   3.815939
    44  H    7.806696   6.492737   6.315559   2.217228   3.428149
    45  H    6.107859   4.851191   5.122408   3.476085   2.184530
    46  H    7.827607   6.435428   5.731303   1.102057   3.545914
                   21         22         23         24         25
    21  C    0.000000
    22  C    1.348002   0.000000
    23  C    6.355530   7.508080   0.000000
    24  C    5.846749   7.101756   1.353852   0.000000
    25  C    4.587621   5.893642   2.446627   1.445168   0.000000
    26  C    3.695229   4.917542   2.864143   2.486299   1.440560
    27  C    2.561916   3.799241   4.351365   3.849035   2.530709
    28  C    2.854427   4.133317   5.118783   4.271335   2.827613
    29  C    4.675399   6.020675   3.691464   2.458937   1.384789
    30  C    3.950811   5.260316   4.873554   3.765142   2.442206
    31  H    4.573657   5.802937   5.812965   4.622025   3.413219
    32  H    2.724429   3.812431   6.181628   5.354924   3.911217
    33  H    3.739690   4.699527   4.895777   4.683810   3.578243
    34  H    5.639401   6.972298   4.007076   2.667843   2.135288
    35  H    6.596837   7.875352   2.120060   1.084987   2.173783
    36  H    7.396438   8.526579   1.084991   2.118962   3.431636
    37  H    7.814730   8.724861   2.669819   4.018237   4.867896
    38  H    8.905229   9.503080   5.286495   6.577160   7.115829
    39  H    9.113240   9.392726   7.138153   8.296090   8.505292
    40  H    8.416152   8.304039   8.562871   9.463160   9.260698
    41  H    7.064498   6.637066   9.019913   9.628853   9.088748
    42  H    4.871955   4.148056   8.681894   8.913066   8.047152
    43  H    3.288015   2.137103   8.555226   8.442268   7.406897
    44  H    2.111077   1.084986   8.342053   7.838520   6.618616
    45  H    1.083126   2.104338   6.383633   5.668441   4.375020
    46  H    3.120140   2.111185   8.733835   8.522973   7.326239
                   26         27         28         29         30
    26  C    0.000000
    27  C    1.489196   0.000000
    28  C    2.491703   1.459251   0.000000
    29  C    2.449099   2.873154   2.412417   0.000000
    30  C    2.843933   2.477326   1.360505   1.418236   0.000000
    31  H    3.927382   3.456926   2.122299   2.167687   1.084256
    32  H    3.471553   2.179215   1.083673   3.396281   2.120281
    33  H    2.462519   1.752905   2.591317   4.007917   3.588110
    34  H    3.429957   3.957784   3.385993   1.084889   2.169699
    35  H    3.454826   4.700852   4.867779   2.672157   4.087125
    36  H    3.948879   5.436345   6.172603   4.567179   5.834210
    37  H    4.649309   5.982117   7.110957   6.204709   7.201632
    38  H    6.441356   7.443765   8.790645   8.478257   9.222623
    39  H    7.502651   8.135094   9.573828   9.824045  10.296369
    40  H    7.983462   8.128703   9.545365  10.432446  10.555195
    41  H    7.693169   7.418493   8.707738  10.060164   9.889660
    42  H    6.664364   5.966882   7.010277   8.735468   8.282894
    43  H    6.237679   5.327334   6.013579   7.806220   7.201644
    44  H    5.784677   4.661919   4.750068   6.591394   5.757679
    45  H    3.807612   2.754415   2.554520   4.188943   3.388091
    46  H    6.121276   4.930633   5.432647   7.567678   6.732761
                   31         32         33         34         35
    31  H    0.000000
    32  H    2.443971   0.000000
    33  H    4.436741   2.947663   0.000000
    34  H    2.486912   4.279693   5.033052   0.000000
    35  H    4.757256   5.931859   5.601798   2.422446   0.000000
    36  H    6.717875   7.242508   5.924117   4.695209   2.448695
    37  H    8.212912   8.073269   5.997551   6.637711   4.711716
    38  H   10.283412   9.583946   7.076682   9.093909   7.396543
    39  H   11.365352  10.171260   7.589687  10.608910   9.241517
    40  H   11.575130   9.876951   7.547430  11.378559  10.507930
    41  H   10.820488   8.808078   6.961374  11.091189  10.695830
    42  H    9.082453   6.889189   5.856639   9.794182   9.929090
    43  H    7.847085   5.764536   5.871437   8.795553   9.318835
    44  H    6.147395   4.314131   5.657652   7.464085   8.527817
    45  H    3.859032   2.426111   4.184003   5.044601   6.272792
    46  H    7.280732   4.951097   5.129543   8.594737   9.411665
                   36         37         38         39         40
    36  H    0.000000
    37  H    2.427118   0.000000
    38  H    5.197814   2.778409   0.000000
    39  H    7.285372   4.970751   2.424864   0.000000
    40  H    9.002469   7.011302   4.999804   2.825948   0.000000
    41  H    9.686471   8.133907   6.762651   5.000185   2.428618
    42  H    9.549021   8.630847   8.114157   6.984428   4.944997
    43  H    9.499356   9.201657   9.381172   8.764187   7.161557
    44  H    9.348185   9.679487  10.517724  10.398107   9.229243
    45  H    7.409086   8.154438   9.523981   9.935541   9.406578
    46  H    9.753193   9.508444   9.756327   9.169438   7.561884
                   41         42         43         44         45
    41  H    0.000000
    42  H    2.747494   0.000000
    43  H    5.176822   2.548607   0.000000
    44  H    7.453083   4.849976   2.497664   0.000000
    45  H    8.126888   5.937267   4.174671   2.423881   0.000000
    46  H    5.541394   2.875520   1.739504   2.583896   4.025441
                   46
    46  H    0.000000
 Stoichiometry    C30H16
 Framework group  C1[X(C30H16)]
 Deg. of freedom   132
 Full point group                 C1      NOp   1
 Largest Abelian subgroup         C1      NOp   1
 Largest concise Abelian subgroup C1      NOp   1
                         Standard orientation:                         
 ---------------------------------------------------------------------
 Center     Atomic      Atomic             Coordinates (Angstroms)
 Number     Number       Type             X           Y           Z
 ---------------------------------------------------------------------
      1          6           0        1.680951   -2.725134   -0.013967
      2          6           0        1.487414   -1.427788    0.441910
      3          6           0        2.550148   -0.518883    0.568303
      4          6           0        3.862735   -0.809736    0.229550
      5          6           0        3.063308   -3.106065   -0.197676
      6          6           0        4.101879   -2.196466   -0.087249
      7          6           0        2.003575    0.773256    0.600697
      8          6           0        2.752678    1.874184    0.223460
      9          6           0        4.156911    1.627796    0.028108
     10          6           0        4.693637    0.345723    0.037429
     11          6           0        0.574821    0.678353    0.544187
     12          6           0       -0.154843    1.812462    0.110691
     13          6           0        0.617114    3.013490   -0.225118
     14          6           0        1.989472    3.044559   -0.141191
     15          6           0        0.491412   -3.417112   -0.391966
     16          6           0       -0.752839   -2.781780   -0.374923
     17          6           0       -0.909727   -1.382411    0.020046
     18          6           0        0.259027   -0.712828    0.426292
     19          6           0       -0.153585    4.247956   -0.648093
     20          6           0       -1.538983    1.762717    0.001066
     21          6           0       -2.230119    2.861941   -0.639492
     22          6           0       -1.600492    4.011362   -0.954946
     23          6           0       -1.948780   -3.486167   -0.762526
     24          6           0       -3.169388   -2.908817   -0.664047
     25          6           0       -3.338577   -1.564114   -0.162391
     26          6           0       -2.169740   -0.760347    0.088589
     27          6           0       -2.331324    0.626192    0.607342
     28          6           0       -3.695265    1.006539    0.960066
     29          6           0       -4.595306   -1.088514    0.172390
     30          6           0       -4.762396    0.182066    0.779927
     31          1           0       -5.754147    0.504890    1.076280
     32          1           0       -3.840929    1.995074    1.379504
     33          1           0       -1.438808    0.448653    2.105531
     34          1           0       -5.462727   -1.715316   -0.005612
     35          1           0       -4.063014   -3.469001   -0.918650
     36          1           0       -1.854822   -4.510030   -1.109055
     37          1           0        0.543492   -4.443299   -0.742259
     38          1           0        3.292789   -4.122438   -0.501487
     39          1           0        5.110514   -2.528706   -0.312127
     40          1           0        5.748308    0.221501   -0.187384
     41          1           0        4.809940    2.461396   -0.210227
     42          1           0        2.513011    3.953789   -0.423771
     43          1           0        0.337600    4.724375   -1.505057
     44          1           0       -2.155800    4.828681   -1.403073
     45          1           0       -3.285874    2.755155   -0.856610
     46          1           0       -0.101840    5.000675    0.155191
 ---------------------------------------------------------------------
 Rotational constants (GHZ):           0.2468021           0.1766086           0.1070934
 Standard basis: 6-311+G(d,p) (5D, 7F)
 There are   786 symmetry adapted cartesian basis functions of A   symmetry.
 There are   756 symmetry adapted basis functions of A   symmetry.
   756 basis functions,  1208 primitive gaussians,   786 cartesian basis functions
    98 alpha electrons       98 beta electrons
       nuclear repulsion energy      2643.1144328398 Hartrees.
 NAtoms=   46 NActive=   46 NUniq=   46 SFac= 1.00D+00 NAtFMM=   60 NAOKFM=F Big=F
 Integral buffers will be    131072 words long.
 Raffenetti 2 integral format.
 Two-electron integral symmetry is turned on.
 One-electron integrals computed using PRISM.
 NBasis=   756 RedAO= T EigKep=  1.02D-06  NBF=   756
 NBsUse=   737 1.00D-06 EigRej=  7.75D-07 NBFU=   737
 ExpMin= 4.38D-02 ExpMax= 4.56D+03 ExpMxC= 6.82D+02 IAcc=2 IRadAn=         4 AccDes= 0.00D+00
 Harris functional with IExCor=  402 and IRadAn=       4 diagonalized for initial guess.
 HarFok:  IExCor=  402 AccDes= 0.00D+00 IRadAn=         4 IDoV= 1 UseB2=F ITyADJ=14
 ICtDFT=  3500011 ScaDFX=  1.000000  1.000000  1.000000  1.000000
 FoFCou: FMM=F IPFlag=           0 FMFlag=      100000 FMFlg1=           0
         NFxFlg=           0 DoJE=T BraDBF=F KetDBF=T FulRan=T
         wScrn=  0.000000 ICntrl=       500 IOpCl=  0 I1Cent=   200000004 NGrid=           0
         NMat0=    1 NMatS0=      1 NMatT0=    0 NMatD0=    1 NMtDS0=    0 NMtDT0=    0
 Petite list used in FoFCou.
 Requested convergence on RMS density matrix=1.00D-08 within 128 cycles.
 Requested convergence on MAX density matrix=1.00D-06.
 Requested convergence on             energy=1.00D-06.
 No special actions if energy rises.
 SCF Done:  E(RB3LYP) =  -1152.98343662     A.U. after   19 cycles
            NFock= 19  Conv=0.76D-08     -V/T= 2.0046
 DoSCS=F DFT=T ScalE2(SS,OS)=  1.000000  1.000000
 Range of M.O.s used for correlation:     1   737
 NBasis=   756 NAE=    98 NBE=    98 NFC=     0 NFV=     0
 NROrb=    737 NOA=    98 NOB=    98 NVA=   639 NVB=   639

 **** Warning!!: The largest alpha MO coefficient is  0.22047922D+03


 **** Warning!!: The smallest alpha delta epsilon is  0.52014097D-01

 Symmetrizing basis deriv contribution to polar:
 IMax=3 JMax=2 DiffMx= 0.00D+00
 G2DrvN: will do    47 centers at a time, making    1 passes.
 Calling FoFCou, ICntrl=  3107 FMM=F I1Cent=   0 AccDes= 0.00D+00.
 End of G2Drv F.D. properties file   721 does not exist.
 End of G2Drv F.D. properties file   722 does not exist.
 End of G2Drv F.D. properties file   788 does not exist.
          IDoAtm=1111111111111111111111111111111111111111111111
          Differentiating once with respect to nuclear coordinates.
 CalDSu exits because no D1Ps are significant.
          There are   141 degrees of freedom in the 1st order CPHF.  IDoFFX=6 NUNeed=     0.
    135 vectors produced by pass  0 Test12= 6.26D-14 1.00D-09 XBig12= 3.37D-01 1.63D-01.
 AX will form   135 AO Fock derivatives at one time.
    135 vectors produced by pass  1 Test12= 6.26D-14 1.00D-09 XBig12= 8.67D-02 8.44D-02.
    135 vectors produced by pass  2 Test12= 6.26D-14 1.00D-09 XBig12= 1.34D-03 4.56D-03.
    135 vectors produced by pass  3 Test12= 6.26D-14 1.00D-09 XBig12= 7.05D-06 2.61D-04.
    135 vectors produced by pass  4 Test12= 6.26D-14 1.00D-09 XBig12= 2.33D-08 1.34D-05.
    135 vectors produced by pass  5 Test12= 6.26D-14 1.00D-09 XBig12= 1.26D-10 1.27D-06.
    113 vectors produced by pass  6 Test12= 6.26D-14 1.00D-09 XBig12= 1.63D-11 3.59D-07.
     87 vectors produced by pass  7 Test12= 6.26D-14 1.00D-09 XBig12= 2.38D-12 1.04D-07.
     65 vectors produced by pass  8 Test12= 6.26D-14 1.00D-09 XBig12= 1.65D-13 3.13D-08.
      8 vectors produced by pass  9 Test12= 6.26D-14 1.00D-09 XBig12= 1.62D-15 2.39D-09.
      3 vectors produced by pass 10 Test12= 6.26D-14 1.00D-09 XBig12= 5.35D-16 1.69D-09.
      3 vectors produced by pass 11 Test12= 6.26D-14 1.00D-09 XBig12= 4.90D-16 1.15D-09.
      1 vectors produced by pass 12 Test12= 6.26D-14 1.00D-09 XBig12= 4.66D-16 1.29D-09.
 InvSVY:  IOpt=1 It=  1 EMax= 6.66D-16
 Solved reduced A of dimension  1090 with   141 vectors.
 End of Minotr F.D. properties file   721 does not exist.
 End of Minotr F.D. properties file   722 does not exist.
 End of Minotr F.D. properties file   788 does not exist.

 **********************************************************************

            Population analysis using the SCF Density.

 **********************************************************************

 Orbital symmetries:
       Occupied  (A) (A) (A) (A) (A) (A) (A) (A) (A) (A) (A) (A)
                 (A) (A) (A) (A) (A) (A) (A) (A) (A) (A) (A) (A)
                 (A) (A) (A) (A) (A) (A) (A) (A) (A) (A) (A) (A)
                 (A) (A) (A) (A) (A) (A) (A) (A) (A) (A) (A) (A)
                 (A) (A) (A) (A) (A) (A) (A) (A) (A) (A) (A) (A)
                 (A) (A) (A) (A) (A) (A) (A) (A) (A) (A) (A) (A)
                 (A) (A) (A) (A) (A) (A) (A) (A) (A) (A) (A) (A)
                 (A) (A) (A) (A) (A) (A) (A) (A) (A) (A) (A) (A)
                 (A) (A)
       Virtual   (A) (A) (A) (A) (A) (A) (A) (A) (A) (A) (A) (A)
                 (A) (A) (A) (A) (A) (A) (A) (A) (A) (A) (A) (A)
                 (A) (A) (A) (A) (A) (A) (A) (A) (A) (A) (A) (A)
                 (A) (A) (A) (A) (A) (A) (A) (A) (A) (A) (A) (A)
                 (A) (A) (A) (A) (A) (A) (A) (A) (A) (A) (A) (A)
                 (A) (A) (A) (A) (A) (A) (A) (A) (A) (A) (A) (A)
                 (A) (A) (A) (A) (A) (A) (A) (A) (A) (A) (A) (A)
                 (A) (A) (A) (A) (A) (A) (A) (A) (A) (A) (A) (A)
                 (A) (A) (A) (A) (A) (A) (A) (A) (A) (A) (A) (A)
                 (A) (A) (A) (A) (A) (A) (A) (A) (A) (A) (A) (A)
                 (A) (A) (A) (A) (A) (A) (A) (A) (A) (A) (A) (A)
                 (A) (A) (A) (A) (A) (A) (A) (A) (A) (A) (A) (A)
                 (A) (A) (A) (A) (A) (A) (A) (A) (A) (A) (A) (A)
                 (A) (A) (A) (A) (A) (A) (A) (A) (A) (A) (A) (A)
                 (A) (A) (A) (A) (A) (A) (A) (A) (A) (A) (A) (A)
                 (A) (A) (A) (A) (A) (A) (A) (A) (A) (A) (A) (A)
                 (A) (A) (A) (A) (A) (A) (A) (A) (A) (A) (A) (A)
                 (A) (A) (A) (A) (A) (A) (A) (A) (A) (A) (A) (A)
                 (A) (A) (A) (A) (A) (A) (A) (A) (A) (A) (A) (A)
                 (A) (A) (A) (A) (A) (A) (A) (A) (A) (A) (A) (A)
                 (A) (A) (A) (A) (A) (A) (A) (A) (A) (A) (A) (A)
                 (A) (A) (A) (A) (A) (A) (A) (A) (A) (A) (A) (A)
                 (A) (A) (A) (A) (A) (A) (A) (A) (A) (A) (A) (A)
                 (A) (A) (A) (A) (A) (A) (A) (A) (A) (A) (A) (A)
                 (A) (A) (A) (A) (A) (A) (A) (A) (A) (A) (A) (A)
                 (A) (A) (A) (A) (A) (A) (A) (A) (A) (A) (A) (A)
                 (A) (A) (A) (A) (A) (A) (A) (A) (A) (A) (A) (A)
                 (A) (A) (A) (A) (A) (A) (A) (A) (A) (A) (A) (A)
                 (A) (A) (A) (A) (A) (A) (A) (A) (A) (A) (A) (A)
                 (A) (A) (A) (A) (A) (A) (A) (A) (A) (A) (A) (A)
                 (A) (A) (A) (A) (A) (A) (A) (A) (A) (A) (A) (A)
                 (A) (A) (A) (A) (A) (A) (A) (A) (A) (A) (A) (A)
                 (A) (A) (A) (A) (A) (A) (A) (A) (A) (A) (A) (A)
                 (A) (A) (A) (A) (A) (A) (A) (A) (A) (A) (A) (A)
                 (A) (A) (A) (A) (A) (A) (A) (A) (A) (A) (A) (A)
                 (A) (A) (A) (A) (A) (A) (A) (A) (A) (A) (A) (A)
                 (A) (A) (A) (A) (A) (A) (A) (A) (A) (A) (A) (A)
                 (A) (A) (A) (A) (A) (A) (A) (A) (A) (A) (A) (A)
                 (A) (A) (A) (A) (A) (A) (A) (A) (A) (A) (A) (A)
                 (A) (A) (A) (A) (A) (A) (A) (A) (A) (A) (A) (A)
                 (A) (A) (A) (A) (A) (A) (A) (A) (A) (A) (A) (A)
                 (A) (A) (A) (A) (A) (A) (A) (A) (A) (A) (A) (A)
                 (A) (A) (A) (A) (A) (A) (A) (A) (A) (A) (A) (A)
                 (A) (A) (A) (A) (A) (A) (A) (A) (A) (A) (A) (A)
                 (A) (A) (A) (A) (A) (A) (A) (A) (A) (A) (A) (A)
                 (A) (A) (A) (A) (A) (A) (A) (A) (A) (A) (A) (A)
                 (A) (A) (A) (A) (A) (A) (A) (A) (A) (A) (A) (A)
                 (A) (A) (A) (A) (A) (A) (A) (A) (A) (A) (A) (A)
                 (A) (A) (A) (A) (A) (A) (A) (A) (A) (A) (A) (A)
                 (A) (A) (A) (A) (A) (A) (A) (A) (A) (A) (A) (A)
                 (A) (A) (A) (A) (A) (A) (A) (A) (A) (A) (A) (A)
                 (A) (A) (A) (A) (A) (A) (A) (A) (A) (A) (A) (A)
                 (A) (A) (A) (A) (A) (A) (A) (A) (A) (A) (A) (A)
                 (A) (A) (A)
 The electronic state is 1-A.
 Alpha  occ. eigenvalues --  -10.22653 -10.20713 -10.20429 -10.20262 -10.19745
 Alpha  occ. eigenvalues --  -10.19642 -10.19517 -10.19501 -10.19442 -10.19437
 Alpha  occ. eigenvalues --  -10.19290 -10.19210 -10.19205 -10.19104 -10.18942
 Alpha  occ. eigenvalues --  -10.18858 -10.18809 -10.18769 -10.18711 -10.18628
 Alpha  occ. eigenvalues --  -10.18620 -10.18574 -10.18407 -10.18333 -10.18312
 Alpha  occ. eigenvalues --  -10.18309 -10.18142 -10.16838 -10.16679 -10.16404
 Alpha  occ. eigenvalues --   -0.92038  -0.88955  -0.87926  -0.85218  -0.84024
 Alpha  occ. eigenvalues --   -0.83305  -0.80600  -0.79723  -0.78626  -0.77493
 Alpha  occ. eigenvalues --   -0.75400  -0.74723  -0.72748  -0.71440  -0.70575
 Alpha  occ. eigenvalues --   -0.66954  -0.66295  -0.64059  -0.63048  -0.62400
 Alpha  occ. eigenvalues --   -0.60065  -0.59099  -0.58720  -0.56476  -0.56284
 Alpha  occ. eigenvalues --   -0.52771  -0.51926  -0.51321  -0.51038  -0.49956
 Alpha  occ. eigenvalues --   -0.49179  -0.47724  -0.47144  -0.46118  -0.45501
 Alpha  occ. eigenvalues --   -0.45241  -0.44318  -0.44058  -0.43781  -0.43342
 Alpha  occ. eigenvalues --   -0.42550  -0.42298  -0.41595  -0.41205  -0.40558
 Alpha  occ. eigenvalues --   -0.40175  -0.39671  -0.39216  -0.38563  -0.37522
 Alpha  occ. eigenvalues --   -0.36317  -0.35897  -0.35868  -0.34965  -0.34213
 Alpha  occ. eigenvalues --   -0.33987  -0.33006  -0.32918  -0.31925  -0.30894
 Alpha  occ. eigenvalues --   -0.30275  -0.28566  -0.26792  -0.25473  -0.23291
 Alpha  occ. eigenvalues --   -0.22695  -0.20975  -0.17116
 Alpha virt. eigenvalues --   -0.11915  -0.07577  -0.04550  -0.03774  -0.02526
 Alpha virt. eigenvalues --   -0.00992  -0.00305   0.00222   0.00396   0.00694
 Alpha virt. eigenvalues --    0.01010   0.01478   0.01635   0.02758   0.02943
 Alpha virt. eigenvalues --    0.03189   0.03272   0.03741   0.03907   0.04423
 Alpha virt. eigenvalues --    0.04762   0.05072   0.05265   0.05530   0.05765
 Alpha virt. eigenvalues --    0.06476   0.06581   0.06923   0.07231   0.07901
 Alpha virt. eigenvalues --    0.08370   0.08640   0.08667   0.08934   0.09423
 Alpha virt. eigenvalues --    0.09784   0.10021   0.10361   0.10473   0.11019
 Alpha virt. eigenvalues --    0.11077   0.11648   0.11737   0.12316   0.12858
 Alpha virt. eigenvalues --    0.13128   0.13714   0.13867   0.14230   0.14309
 Alpha virt. eigenvalues --    0.14556   0.14886   0.15060   0.15372   0.15867
 Alpha virt. eigenvalues --    0.16155   0.16309   0.16381   0.16669   0.16848
 Alpha virt. eigenvalues --    0.16924   0.17277   0.17450   0.17702   0.17835
 Alpha virt. eigenvalues --    0.18028   0.18189   0.18517   0.18656   0.18892
 Alpha virt. eigenvalues --    0.19151   0.19601   0.19756   0.19965   0.20061
 Alpha virt. eigenvalues --    0.20355   0.20416   0.20769   0.20888   0.21101
 Alpha virt. eigenvalues --    0.21220   0.21471   0.21663   0.21995   0.22144
 Alpha virt. eigenvalues --    0.22253   0.22513   0.22964   0.23238   0.23500
 Alpha virt. eigenvalues --    0.23645   0.24120   0.24173   0.24439   0.24737
 Alpha virt. eigenvalues --    0.24897   0.25016   0.25146   0.25398   0.25627
 Alpha virt. eigenvalues --    0.26031   0.26090   0.26277   0.26551   0.26766
 Alpha virt. eigenvalues --    0.26881   0.27125   0.27244   0.27589   0.27744
 Alpha virt. eigenvalues --    0.28046   0.28113   0.28574   0.28772   0.29268
 Alpha virt. eigenvalues --    0.29342   0.29741   0.30072   0.30399   0.30666
 Alpha virt. eigenvalues --    0.30879   0.31150   0.31333   0.31700   0.31836
 Alpha virt. eigenvalues --    0.32465   0.32589   0.32907   0.32988   0.33216
 Alpha virt. eigenvalues --    0.33345   0.33943   0.34752   0.34947   0.35098
 Alpha virt. eigenvalues --    0.35451   0.35929   0.36344   0.36638   0.36788
 Alpha virt. eigenvalues --    0.37153   0.37707   0.38090   0.38280   0.38748
 Alpha virt. eigenvalues --    0.39159   0.39449   0.39987   0.40038   0.40615
 Alpha virt. eigenvalues --    0.41476   0.42457   0.42890   0.44057   0.44837
 Alpha virt. eigenvalues --    0.45146   0.45334   0.46333   0.47672   0.47956
 Alpha virt. eigenvalues --    0.48138   0.48330   0.49066   0.50110   0.50525
 Alpha virt. eigenvalues --    0.51024   0.52346   0.52464   0.52898   0.53192
 Alpha virt. eigenvalues --    0.53453   0.53785   0.54061   0.54638   0.55424
 Alpha virt. eigenvalues --    0.55540   0.56049   0.56353   0.56585   0.57013
 Alpha virt. eigenvalues --    0.57506   0.58091   0.58414   0.58643   0.59009
 Alpha virt. eigenvalues --    0.59314   0.59473   0.59785   0.60239   0.60616
 Alpha virt. eigenvalues --    0.60942   0.61280   0.61837   0.62495   0.62713
 Alpha virt. eigenvalues --    0.63048   0.63304   0.64066   0.64280   0.64554
 Alpha virt. eigenvalues --    0.65234   0.66216   0.66272   0.66796   0.67370
 Alpha virt. eigenvalues --    0.67530   0.68478   0.68644   0.69219   0.69533
 Alpha virt. eigenvalues --    0.69856   0.70124   0.70417   0.70591   0.71096
 Alpha virt. eigenvalues --    0.71314   0.72011   0.72210   0.72671   0.72904
 Alpha virt. eigenvalues --    0.73158   0.73407   0.73763   0.73881   0.74172
 Alpha virt. eigenvalues --    0.74276   0.74501   0.75046   0.75368   0.75717
 Alpha virt. eigenvalues --    0.76188   0.76732   0.76968   0.77450   0.78068
 Alpha virt. eigenvalues --    0.78134   0.78982   0.79450   0.80004   0.81295
 Alpha virt. eigenvalues --    0.81716   0.82219   0.82518   0.83580   0.83864
 Alpha virt. eigenvalues --    0.84196   0.84608   0.85205   0.85410   0.86126
 Alpha virt. eigenvalues --    0.86940   0.87077   0.87784   0.88068   0.88502
 Alpha virt. eigenvalues --    0.89083   0.89170   0.90180   0.90658   0.91082
 Alpha virt. eigenvalues --    0.91388   0.91700   0.92333   0.92795   0.93368
 Alpha virt. eigenvalues --    0.93573   0.94352   0.94491   0.94947   0.95277
 Alpha virt. eigenvalues --    0.95808   0.96022   0.96664   0.97494   0.97780
 Alpha virt. eigenvalues --    0.98528   0.98860   0.99803   0.99969   1.01006
 Alpha virt. eigenvalues --    1.01791   1.01919   1.02489   1.03267   1.04050
 Alpha virt. eigenvalues --    1.04755   1.04977   1.05666   1.05874   1.06084
 Alpha virt. eigenvalues --    1.06654   1.07477   1.08156   1.08753   1.09103
 Alpha virt. eigenvalues --    1.10122   1.11056   1.11114   1.11898   1.13704
 Alpha virt. eigenvalues --    1.14107   1.15780   1.15906   1.16285   1.17736
 Alpha virt. eigenvalues --    1.18666   1.20639   1.21072   1.21320   1.22198
 Alpha virt. eigenvalues --    1.23660   1.25067   1.26095   1.26661   1.29033
 Alpha virt. eigenvalues --    1.29205   1.31256   1.32228   1.33678   1.34564
 Alpha virt. eigenvalues --    1.35369   1.36221   1.37746   1.37947   1.39050
 Alpha virt. eigenvalues --    1.41188   1.41966   1.42618   1.43337   1.43947
 Alpha virt. eigenvalues --    1.44646   1.45421   1.45535   1.46298   1.47200
 Alpha virt. eigenvalues --    1.47908   1.48591   1.48768   1.49397   1.50432
 Alpha virt. eigenvalues --    1.51186   1.51477   1.52117   1.52629   1.53372
 Alpha virt. eigenvalues --    1.53944   1.54434   1.54905   1.55236   1.56518
 Alpha virt. eigenvalues --    1.57136   1.57499   1.58055   1.58269   1.58840
 Alpha virt. eigenvalues --    1.59298   1.60407   1.61206   1.61683   1.62531
 Alpha virt. eigenvalues --    1.63078   1.63434   1.64968   1.66745   1.67138
 Alpha virt. eigenvalues --    1.68126   1.68162   1.69079   1.69296   1.69795
 Alpha virt. eigenvalues --    1.71096   1.71362   1.72446   1.72870   1.74037
 Alpha virt. eigenvalues --    1.74302   1.74795   1.75092   1.75592   1.76146
 Alpha virt. eigenvalues --    1.77005   1.77427   1.78227   1.78340   1.79203
 Alpha virt. eigenvalues --    1.80846   1.81405   1.81809   1.82129   1.82843
 Alpha virt. eigenvalues --    1.83512   1.83908   1.84066   1.85339   1.86330
 Alpha virt. eigenvalues --    1.87100   1.87727   1.87776   1.88733   1.89396
 Alpha virt. eigenvalues --    1.90088   1.90609   1.91332   1.91946   1.92589
 Alpha virt. eigenvalues --    1.92941   1.93733   1.94386   1.94873   1.95352
 Alpha virt. eigenvalues --    1.95934   1.96101   1.97294   1.98285   1.98920
 Alpha virt. eigenvalues --    1.99089   1.99913   2.00081   2.01383   2.03093
 Alpha virt. eigenvalues --    2.04122   2.04206   2.04863   2.05214   2.05677
 Alpha virt. eigenvalues --    2.06260   2.06868   2.08496   2.09887   2.10051
 Alpha virt. eigenvalues --    2.10924   2.11814   2.12453   2.13221   2.13741
 Alpha virt. eigenvalues --    2.14659   2.16249   2.16415   2.17825   2.18688
 Alpha virt. eigenvalues --    2.18932   2.20698   2.21173   2.21454   2.22928
 Alpha virt. eigenvalues --    2.23496   2.25013   2.25249   2.25286   2.26743
 Alpha virt. eigenvalues --    2.28123   2.29172   2.30515   2.33818   2.34581
 Alpha virt. eigenvalues --    2.35572   2.36471   2.37494   2.38020   2.38977
 Alpha virt. eigenvalues --    2.39284   2.41329   2.42223   2.42778   2.44414
 Alpha virt. eigenvalues --    2.45390   2.45750   2.48164   2.48786   2.49634
 Alpha virt. eigenvalues --    2.52245   2.52656   2.54656   2.55053   2.56205
 Alpha virt. eigenvalues --    2.57225   2.57633   2.58582   2.58956   2.60399
 Alpha virt. eigenvalues --    2.61771   2.63537   2.64291   2.64599   2.66645
 Alpha virt. eigenvalues --    2.67707   2.69704   2.69941   2.70614   2.70866
 Alpha virt. eigenvalues --    2.71616   2.72060   2.72359   2.72864   2.73707
 Alpha virt. eigenvalues --    2.73957   2.74866   2.75248   2.75786   2.76232
 Alpha virt. eigenvalues --    2.76503   2.76829   2.77261   2.77537   2.77709
 Alpha virt. eigenvalues --    2.78291   2.79594   2.79875   2.80829   2.80844
 Alpha virt. eigenvalues --    2.82253   2.82569   2.83294   2.84546   2.85832
 Alpha virt. eigenvalues --    2.86327   2.86690   2.87300   2.88426   2.89169
 Alpha virt. eigenvalues --    2.89851   2.91210   2.92088   2.93039   2.93998
 Alpha virt. eigenvalues --    2.94986   2.95495   2.97178   2.98906   2.99643
 Alpha virt. eigenvalues --    3.01330   3.03541   3.04163   3.05433   3.06864
 Alpha virt. eigenvalues --    3.07825   3.09591   3.12083   3.12263   3.13708
 Alpha virt. eigenvalues --    3.16000   3.16407   3.17874   3.19069   3.19795
 Alpha virt. eigenvalues --    3.21235   3.21912   3.22584   3.22903   3.24208
 Alpha virt. eigenvalues --    3.25379   3.28576   3.30691   3.32683   3.32983
 Alpha virt. eigenvalues --    3.34623   3.35442   3.36930   3.37784   3.38986
 Alpha virt. eigenvalues --    3.39184   3.39985   3.41569   3.42888   3.44403
 Alpha virt. eigenvalues --    3.45698   3.47615   3.48346   3.49466   3.53375
 Alpha virt. eigenvalues --    3.55384   3.56567   3.57191   3.59965   3.61155
 Alpha virt. eigenvalues --    3.62234   3.64081   3.69739   3.71098   3.72997
 Alpha virt. eigenvalues --    3.78162   3.83083   3.84942   3.88222   3.92035
 Alpha virt. eigenvalues --    3.96681   4.00527   4.03056   4.05617   4.06115
 Alpha virt. eigenvalues --    4.08247   4.09008   4.09779   4.14054   4.19852
 Alpha virt. eigenvalues --    4.23520   4.26545   4.30733   4.32207   4.46171
 Alpha virt. eigenvalues --    4.58041   4.66232   4.70527   4.73346   4.75967
 Alpha virt. eigenvalues --    4.76589   4.80188   4.86591   4.90738  23.41663
 Alpha virt. eigenvalues --   23.63288  23.67187  23.78024  23.79363  23.83286
 Alpha virt. eigenvalues --   23.83766  23.85753  23.88338  23.88734  23.91982
 Alpha virt. eigenvalues --   23.92992  23.93492  23.96480  23.98643  24.01546
 Alpha virt. eigenvalues --   24.03295  24.07021  24.07617  24.09174  24.09379
 Alpha virt. eigenvalues --   24.09468  24.10267  24.11819  24.12823  24.14439
 Alpha virt. eigenvalues --   24.18179  24.19065  24.21743  24.21787
          Condensed to atoms (all electrons):
               1          2          3          4          5          6
     1  C   16.525201   0.250401  -0.984909   1.366707  -3.040706  -1.068444
     2  C    0.250401  11.721557   1.126606  -1.515253  -1.702941   2.706862
     3  C   -0.984909   1.126606  11.795329   0.761423   2.230852  -2.179559
     4  C    1.366707  -1.515253   0.761423  12.587860  -0.276028  -1.672032
     5  C   -3.040706  -1.702941   2.230852  -0.276028  12.150481  -0.416593
     6  C   -1.068444   2.706862  -2.179559  -1.672032  -0.416593  12.415374
     7  C   -2.710040  -1.732728   0.731768  -1.734145   0.970361  -1.858761
     8  C   -0.865792  -1.162500  -1.817850   0.794072   0.202690   0.796501
     9  C    0.609629   0.848449   2.174820  -0.325959  -0.367761   0.035126
    10  C    0.333026  -2.747066  -1.035943  -2.541580   0.687869  -2.558450
    11  C   -4.239301  -0.166178  -1.312030  -1.317364  -0.305433   0.491482
    12  C    0.002404  -0.494386  -0.319524   0.213975  -0.031591  -0.121128
    13  C   -0.287570  -0.258459  -0.674661   0.043148   0.036888   0.068114
    14  C   -0.284573   0.247126  -0.641857   0.268014  -0.190272   0.352897
    15  C    0.999735  -0.782716  -0.588432   0.254969  -0.751729  -0.680334
    16  C    2.513200  -0.967696  -0.709729   0.350278  -0.317919  -0.451212
    17  C   -0.504835   1.327769  -0.249726  -0.318245  -1.334476   0.357547
    18  C    0.261199   1.841721   0.105050  -1.156455  -1.245425  -0.559569
    19  C   -0.074007  -0.225453  -0.391663   0.185753  -0.003843   0.038741
    20  C    0.436584   0.237321  -0.693498   0.199850  -0.021732   0.031706
    21  C    0.028356  -0.032120  -0.001122   0.152363  -0.032837   0.021040
    22  C    0.000100   0.065533  -0.063898  -0.053071   0.002160  -0.006853
    23  C   -0.682714  -0.773487  -0.194108   0.050065   0.008296  -0.217538
    24  C    0.033417  -0.282303  -0.100817  -0.016207  -0.290157   0.011272
    25  C    0.351611  -0.241840  -0.004856   0.058614  -0.025579  -0.013084
    26  C   -0.699921   0.267521  -0.482253  -0.097046  -0.032612  -0.076954
    27  C   -1.944416  -1.146282  -0.340006  -0.093242  -0.146462   0.043630
    28  C   -0.304376  -0.311485  -0.097781  -0.015268  -0.005486  -0.001671
    29  C   -0.071306  -0.070541  -0.036306   0.003962   0.002379  -0.009562
    30  C   -0.014176  -0.054310   0.004046   0.004869  -0.011111   0.000894
    31  H   -0.000011  -0.000004  -0.000029  -0.000002   0.000002  -0.000000
    32  H   -0.000160   0.000878   0.000209   0.000098  -0.000034   0.000003
    33  H   -0.011931  -0.037103   0.051292  -0.004568  -0.000220  -0.000345
    34  H    0.000467  -0.000256   0.000039  -0.000003   0.000028   0.000004
    35  H    0.001448   0.000027   0.000174  -0.000006   0.000241  -0.000014
    36  H    0.038909   0.006436   0.001268   0.000254   0.002302   0.000478
    37  H   -0.029738   0.005236   0.000970   0.006706   0.047167   0.008367
    38  H   -0.052643   0.025337  -0.040051  -0.041405   0.344577   0.026112
    39  H   -0.042082  -0.015658   0.031098  -0.106607   0.036017   0.372572
    40  H    0.010741   0.013585   0.060006  -0.045955  -0.003590   0.023163
    41  H    0.000174  -0.002481  -0.004305  -0.047026  -0.000581  -0.000992
[...]
 001234,-0.00000798,-0.00000618,0.00021386,-0.00015007,0.00013699,-0.00
 000119,-0.00000611,0.00000017,-0.00000468,-0.00000384,0.00000141,0.000
 00213,-0.00000628,-0.00000175,0.00000279,-0.00000271,-0.00000074,0.000
 00528,-0.00001092,0.00001454,0.00000097,0.00000452,0.00000321,-0.00000
 572,0.00000546,0.00001229,-0.00001606,-0.00000184,-0.00001858,-0.00024
 609,-0.00018897,-0.00006828,0.09094527,0.00020045,0.00000757,0.0000395
 9,0.00011918,0.00000435,-0.00010696,-0.00003323,0.00007426,0.00007205,
 0.00014745,-0.00017035,-0.00001045,-0.00012912,-0.00008929,-0.00000927
 ,-0.00001658,0.00019167,0.00005546,0.00034871,0.00017272,0.00023022,0.
 00052119,-0.00071826,-0.00153054,-0.00004854,-0.00022259,0.00005390,0.
 00001904,-0.00002398,0.00009962,-0.00041887,-0.00013716,0.00000829,0.0
 0142168,-0.00222964,-0.00002154,-0.00579801,-0.00478947,0.02451664,-0.
 00160015,0.00048687,-0.00022881,-0.00017593,0.00000753,-0.00002286,0.0
 0009085,-0.00008792,-0.00005396,-0.00031853,0.00004721,0.00000157,-0.0
 0003563,0.00028947,0.00009501,-0.00594817,-0.04164563,0.02163212,0.000
 02380,-0.00055271,-0.00009749,-0.00018991,0.00082854,-0.00056695,-0.00
 579145,-0.00073127,0.00441669,-0.00000728,0.00002185,0.00000338,0.0000
 0241,-0.00000166,-0.00001895,-0.00023086,0.00000249,0.00005116,0.00032
 202,-0.00008677,-0.00007724,-0.00000566,0.00018409,0.00017161,-0.00015
 836,-0.00008729,0.00003081,0.00006905,-0.00015414,-0.00009573,0.000071
 81,0.00018488,0.00002217,0.00000363,0.00000205,0.00000484,-0.00002230,
 0.00001039,0.00002547,-0.00003813,0.00005765,0.00005809,0.00000704,-0.
 00000280,0.00000731,-0.00000105,0.00000472,0.00000615,0.00000042,-0.00
 000313,0.00000499,-0.00000488,-0.00000702,0.00001381,-0.00000818,0.000
 00339,-0.00001620,0.00000577,-0.00000211,-0.00000678,0.00001602,-0.000
 01877,0.00000210,-0.00001102,0.00000937,-0.00002262,-0.00021564,0.0005
 3439,0.00082583,0.00678382,0.04781707,-0.00010128,-0.00002012,-0.00002
 514,-0.00010334,0.00003310,0.00004347,-0.00006381,-0.00005141,-0.00004
 829,-0.00009430,0.00004966,-0.00000560,0.00002289,0.00005909,0.0000090
 0,0.00005036,-0.00006845,-0.00000954,-0.00024510,-0.00030987,-0.000291
 84,-0.00083930,0.00097057,0.00097091,0.00023289,0.00015547,-0.00009159
 ,-0.00001113,0.00010405,-0.00005721,0.00024426,0.00006035,0.00002629,-
 0.00107747,0.00009093,-0.00134471,0.00099564,0.00482725,-0.01315927,0.
 00123979,0.00083501,0.00219389,0.00009606,-0.00000822,0.00001346,-0.00
 004581,0.00004838,0.00002440,0.00015943,-0.00001360,0.00002168,0.00004
 126,-0.00022075,-0.00002338,0.08380898,0.01854414,-0.24649034,-0.00054
 582,0.00075752,-0.00032153,-0.00054917,-0.00252745,0.00070416,0.002896
 69,0.00087847,0.00554055,-0.00000114,-0.00001811,-0.00000512,0.0000060
 4,-0.00000117,0.00001501,0.00013365,0.00001925,-0.00001866,-0.00016371
 ,0.00005178,0.00003138,-0.00001572,-0.00014658,-0.00004934,0.00005726,
 0.00003397,0.00000828,-0.00005234,0.00005651,0.00004040,-0.00001703,-0
 .00005979,-0.00002554,0.00000116,-0.00000174,-0.00000231,0.00000717,-0
 .00000931,-0.00000588,-0.00004481,0.00001760,-0.00004254,0.00000016,0.
 00000234,-0.00000024,0.00000354,0.00000015,-0.00000317,-0.00000044,0.0
 0000447,-0.00000165,0.00000260,0.00000604,-0.00000487,0.00000536,0.000
 00248,0.00000716,-0.00000917,0.00000782,0.00000219,-0.00001923,0.00001
 909,-0.00000350,-0.00001020,-0.00001301,0.00002629,-0.00002765,-0.0005
 6082,-0.00112627,-0.09332962,-0.02281615,0.27090313,-0.00007142,-0.000
 03138,-0.00000301,-0.00004006,0.00004114,0.00001380,0.00008351,-0.0001
 1134,0.00004865,-0.00004572,0.00007875,-0.00001328,0.00002764,0.000077
 16,0.00002346,0.00004062,-0.00008084,-0.00003188,-0.00010260,0.0001295
 4,-0.00018197,-0.00024106,-0.00035926,-0.00016523,-0.00000180,0.000216
 16,-0.00010010,-0.00002965,-0.00003356,0.00004852,0.00004941,0.0001117
 7,0.00012075,-0.00010453,-0.00035858,0.00019245,-0.00489748,-0.0036178
 4,0.00105664,-0.00033756,0.00182056,-0.00087179,0.00007542,-0.00001087
 ,0.00000396,-0.00001785,0.00006895,0.00002580,0.00013389,-0.00002921,0
 .00002142,-0.00000859,-0.00003060,-0.00001132,-0.01103163,0.02350433,-
 0.01234179,-0.00065598,-0.00254222,-0.00023329,0.01021576,-0.01494303,
 0.00663783,-0.12283014,0.10650906,-0.05825755,-0.00000754,-0.00002014,
 -0.00000392,0.00000583,0.00000988,0.00001177,0.00002627,0.00002283,-0.
 00007361,-0.00017426,0.00014237,0.00012575,0.00027644,-0.00072897,0.00
 036426,0.00007394,0.00006863,-0.00003417,-0.00004830,0.00001661,0.0000
 3284,-0.00002563,-0.00006246,-0.00007245,-0.00000394,-0.00000393,0.000
 00609,0.00000940,-0.00001360,0.00004427,-0.00005971,-0.00001834,-0.000
 03161,0.00000229,-0.00000396,0.00000866,0.00000091,-0.00000477,-0.0000
 0413,0.00000074,0.00000140,-0.00000225,0.00000423,0.00000425,-0.000001
 84,0.00000541,0.00000348,-0.00000005,-0.00000630,0.00000356,0.00000796
 ,-0.00001386,0.00002070,0.00000757,0.00000818,-0.00001130,-0.00000358,
 0.00000622,0.00002560,0.00009951,0.00052236,0.00013178,0.00075865,0.12
 744521,-0.00004679,-0.00002088,-0.00000826,0.00004292,-0.00001540,-0.0
 0001081,-0.00003902,0.00004379,-0.00001841,0.00011441,0.00003191,0.000
 01662,0.00002990,-0.00000356,0.00000511,-0.00001345,0.00000037,0.00000
 215,0.00012729,-0.00007204,-0.00002768,-0.00011521,-0.00004130,0.00021
 749,-0.00008773,0.00008336,0.00000765,-0.00001914,-0.00011072,-0.00002
 715,-0.00020857,-0.00051081,0.00021284,-0.00053096,0.00027639,-0.00070
 122,-0.00167132,0.00056561,-0.00012201,-0.00010455,0.00037518,-0.00007
 051,0.00005097,-0.00002744,-0.00000517,-0.00001618,0.00008714,0.000032
 34,0.00005623,-0.00011051,-0.00015044,0.00005469,0.00009618,-0.0000534
 3,-0.00373564,0.00489243,-0.00205638,-0.00456156,-0.00084213,0.0039056
 0,0.01497790,-0.01665943,0.01176511,0.10301833,-0.21753673,0.09387755,
 0.00000072,0.00000284,-0.00000453,-0.00002637,0.00000180,-0.00000930,-
 0.00000586,-0.00006996,0.00002415,0.00001078,0.00016663,0.00034772,0.0
 0046464,-0.00017990,-0.00007655,0.00031044,-0.00021007,-0.00005813,0.0
 0003353,0.00003922,-0.00000005,-0.00009158,-0.00002097,0.00003277,-0.0
 0002715,-0.00000971,-0.00000125,0.00000788,0.00004957,-0.00004180,0.00
 057479,-0.00015212,0.00031200,-0.00000759,-0.00000829,0.00000017,-0.00
 000505,-0.00000910,-0.00000015,-0.00000036,-0.00000834,0.00000253,0.00
 000327,-0.00000489,-0.00000322,0.00000130,-0.00000664,0.00000240,0.000
 00601,-0.00000207,-0.00000257,0.00000396,0.00000127,0.00000119,0.00000
 154,0.00000456,-0.00000079,0.00002043,-0.00004624,-0.00012283,0.000331
 43,0.00019098,0.00019169,-0.11008969,0.22948445,0.00004555,0.00004505,
 0.00000009,0.00010435,-0.00003377,0.00003885,-0.00018860,0.00011421,-0
 .00004466,0.00020229,0.00001898,0.00002945,-0.00001661,-0.00006145,-0.
 00001168,-0.00002899,0.00007448,0.00002824,0.00026589,-0.00010592,-0.0
 0000286,-0.00021858,-0.00005592,0.00058700,-0.00013573,0.00012072,-0.0
 0003115,-0.00002872,-0.00018145,-0.00007073,-0.00052349,-0.00127133,0.
 00012720,-0.00054898,-0.00023384,-0.00123749,-0.00056868,-0.00013690,0
 .00086208,-0.00003735,0.00047904,0.00025991,-0.00006922,-0.00003969,-0
 .00002504,-0.00000467,-0.00003777,0.00002136,-0.00027874,-0.00004199,-
 0.00020735,0.00027632,0.00033182,-0.00004802,-0.00062889,0.00130069,0.
 00080980,0.00031020,0.00292244,0.00839277,-0.00523317,0.00862286,0.001
 89011,-0.05716414,0.09446929,-0.08093552,0.00000378,0.00002081,-0.0000
 0440,-0.00000627,-0.00001914,-0.00002049,-0.00003093,-0.00007927,0.000
 15927,0.00047686,-0.00019580,-0.00008687,-0.00014799,0.00124135,-0.000
 54232,0.00000604,-0.00015456,-0.00000002,0.00014217,-0.00002403,-0.000
 08096,0.00002951,0.00014618,0.00018771,0.00001076,0.00000345,-0.000012
 95,-0.00001513,0.00008679,-0.00013292,0.00094095,-0.00027760,0.0004933
 4,-0.00000623,0.00001191,-0.00002360,0.00000478,0.00001138,0.00001017,
 -0.00000409,0.00000396,0.00000674,-0.00000158,0.00000601,-0.00000023,-
 0.00000453,-0.00000030,0.00001025,-0.00000116,0.00000153,-0.00001088,-
 0.00000282,0.00000403,0.00001108,-0.00001030,-0.00000072,0.00000704,0.
 00005658,-0.00011303,-0.00028591,-0.00104815,0.00007172,0.00019615,0.0
 6241613,-0.10450512,0.07517942,-0.00009339,-0.00000711,0.00000134,0.00
 003923,0.00007398,-0.00000045,-0.00006144,-0.00009671,-0.00003722,0.00
 000030,0.00010639,0.00005322,0.00005582,0.00004581,0.00002734,-0.00000
 459,-0.00008433,-0.00001930,-0.00006358,0.00028658,-0.00031139,0.00016
 666,-0.00013888,0.00010169,-0.00005849,0.00010126,-0.00001195,-0.00000
 854,-0.00006967,0.00000027,-0.00036862,-0.00026917,0.00017968,0.000605
 44,0.00217423,-0.00089145,0.00052647,0.00011110,0.00012455,-0.00016169
 ,-0.00006515,-0.00007947,0.00004862,0.00001246,-0.00000151,-0.00002410
 ,-0.00000796,0.00002258,0.00002179,-0.00003075,0.00001334,-0.00001139,
 -0.00008146,-0.00011870,0.00191041,-0.00228186,-0.00086280,-0.01151241
 ,-0.00274358,-0.00022908,-0.32911927,-0.01354338,-0.03581366,-0.012664
 51,0.00065715,-0.00251390,-0.00004637,-0.00004057,-0.00002076,0.000070
 31,0.00001616,0.00002786,-0.00008166,0.00000233,-0.00003507,0.00012326
 ,0.00020814,0.00004096,0.00022498,-0.00048039,0.00048560,0.00018014,-0
 .00015549,0.00043762,0.00010627,-0.00000284,-0.00016245,0.00034278,0.0
 0012997,0.00015124,0.00003337,-0.00001313,0.00006166,-0.00000136,-0.00
 033270,-0.00009864,-0.00030378,0.00006008,-0.00008918,-0.00000625,-0.0
 0000824,-0.00002772,0.00000412,0.00000617,-0.00000229,0.00000447,0.000
 00992,-0.00000237,0.00000139,0.00000972,-0.00000204,-0.00000053,0.0000
 0653,-0.00000007,-0.00000619,0.00000479,0.00000189,-0.00000846,0.00000
 442,-0.00000315,-0.00000044,-0.00000475,-0.00000322,-0.00000739,-0.000
 00069,0.00000757,0.00004294,-0.00009065,0.00004162,0.00093431,0.000254
 08,0.00115563,0.34997405,0.00013471,0.00008027,0.00002752,-0.00001090,
 -0.00011640,0.00000930,0.00020092,0.00008492,0.00005280,-0.00002877,-0
 .00013092,-0.00003837,-0.00005811,-0.00002987,-0.00002239,0.00003405,0
 .00007183,0.00001670,0.00015329,-0.00045349,0.00002804,-0.00011562,-0.
 00003221,-0.00005808,0.00005790,-0.00001979,0.00000988,-0.00000264,0.0
 0006137,-0.00000116,0.00119546,-0.00003055,0.00021098,0.00013673,-0.00
 298540,0.00308498,0.00005438,-0.00065748,0.00028577,0.00009048,0.00028
 798,-0.00018178,-0.00012895,-0.00000769,-0.00001540,0.00005456,-0.0000
 3187,-0.00003154,-0.00011997,0.00003573,-0.00002220,-0.00000043,0.0001
 7458,0.00019154,-0.00104814,-0.00136026,0.00503547,0.02465484,0.003750
 04,0.00227773,-0.01272889,-0.05297084,0.00531473,-0.02828080,0.0015523
 2,-0.00270935,0.00000586,0.00001633,0.00001662,-0.00003028,-0.00002765
 ,-0.00005146,-0.00004990,-0.00002696,0.00007241,0.00012202,-0.00018446
 ,-0.00012762,0.00016941,0.00093479,-0.00113850,-0.00015625,0.00022455,
 0.00015663,-0.00013247,-0.00010729,-0.00000580,-0.00023328,-0.00016387
 ,-0.00005690,0.00001337,-0.00002072,0.00005944,0.00002667,-0.00003705,
 0.00020997,0.00043806,0.00002844,0.00003794,0.00000611,0.00000103,0.00
 001446,0.00000157,-0.00000056,0.00000395,-0.00000456,-0.00000284,0.000
 00266,-0.00000370,-0.00000521,0.00000957,0.00000070,-0.00000159,0.0000
 0333,0.00000088,-0.00000601,-0.00000055,0.00000109,0.00000262,0.000001
 74,0.00000667,-0.00000139,0.00000428,0.00006825,0.00001527,0.00003534,
 -0.00142955,-0.00024556,-0.00011650,0.00056730,-0.00022904,-0.00272668
 ,0.01634767,0.05271522,-0.00020662,-0.00005474,-0.00002097,0.00008059,
 0.00004524,-0.00000955,-0.00011846,-0.00010406,-0.00002349,0.00008052,
 0.00019780,0.00004077,0.00012795,0.00004537,0.00003065,-0.00004266,-0.
 00012521,-0.00004165,-0.00007062,0.00021613,-0.00022122,0.00028818,-0.
 00028147,0.00015238,-0.00019722,0.00014657,0.00000716,0.00000083,-0.00
 020938,-0.00000578,-0.00067433,-0.00030359,0.00048172,-0.00140353,0.00
 276599,0.00081293,0.00074117,0.00042533,-0.00030349,-0.00043004,-0.000
 10251,-0.00030601,0.00017947,-0.00002119,0.00001404,-0.00009244,0.0000
 1585,0.00001993,0.00010729,-0.00010264,-0.00008669,0.00012140,0.000034
 45,-0.00015619,-0.00088661,0.00577195,0.00904525,-0.01111166,-0.003160
 51,0.00160590,-0.03578481,0.00732965,-0.04449560,0.00944845,0.00040330
 ,0.00525570,0.00003692,-0.00001851,-0.00003190,0.00001582,0.00004361,0
 .00005301,0.00026391,-0.00007051,-0.00016629,-0.00014677,-0.00012218,0
 .00020078,-0.00001954,-0.00061659,-0.00049813,0.00005519,0.00071589,-0
 .00004128,-0.00002563,0.00034076,0.00013986,0.00004776,-0.00034467,0.0
 0000076,0.00001687,0.00004738,-0.00006246,0.00006521,0.00009740,-0.000
 70429,0.00010190,-0.00001135,-0.00004555,-0.00001491,-0.00003007,-0.00
 001124,-0.00000501,-0.00001173,0.00000635,0.00000576,-0.00000049,0.000
 00207,0.00000363,0.00000503,-0.00000740,0.00000160,0.00000099,-0.00000
 132,-0.00000010,-0.00000050,0.00000765,-0.00000183,-0.00000189,-0.0000
 0356,-0.00000442,0.00000201,-0.00000793,-0.00007879,0.00001530,0.00002
 731,-0.00194101,-0.00023302,-0.00034703,0.00086794,-0.00290570,-0.0057
 4192,0.03831673,-0.00991111,0.03530653,-0.00000673,-0.00003841,-0.0000
 0350,-0.00001216,0.00004437,0.00005083,-0.00000082,-0.00018337,0.00004
 237,0.00000070,0.00006548,-0.00002724,-0.00006211,0.00009322,0.0000242
 1,0.00007040,-0.00000517,0.00000205,0.00018681,0.00036526,-0.00033419,
 0.00035817,-0.00059443,0.00062756,-0.00008814,0.00007198,-0.00007154,0
 .00006274,-0.00002386,0.00003393,-0.00010557,0.00013017,-0.00032824,-0
 .00102587,0.00111940,-0.00071844,0.00313071,0.01092852,0.00755127,0.00
 033782,0.00161251,-0.00137873,0.00000893,-0.00002449,-0.00000806,0.000
 00026,0.00001266,0.00002218,-0.00010663,0.00001413,0.00001716,0.000041
 04,0.00014691,0.00005909,-0.05481701,-0.04356707,-0.02727057,0.0005533
 5,0.00014872,-0.00096510,-0.00498804,0.00182455,-0.00147158,-0.0094934
 1,-0.03125314,-0.01475243,0.00000130,-0.00002327,-0.00001010,0.0000281
 4,0.00002138,0.00002689,0.00007017,0.00006810,-0.00003973,-0.00004396,
 -0.00007394,-0.00013546,0.00023697,-0.00003191,0.00015674,-0.00005384,
 0.00015768,0.00000895,-0.00007110,0.00003629,0.00003811,0.00003020,-0.
 00007488,-0.00004322,-0.00000252,0.00000213,0.00000102,0.00000542,-0.0
 0006250,-0.00001239,-0.00012992,-0.00014281,0.00008997,-0.00000046,-0.
 00000667,0.00000436,-0.00000321,-0.00000426,-0.00000190,0.00000212,-0.
 00000222,-0.00000543,0.00000221,-0.00000140,0.00000122,0.00000612,-0.0
 0000096,-0.00000677,-0.00000199,0.00000715,0.00000464,-0.00000211,-0.0
 0000557,-0.00000441,-0.00001202,0.00000661,0.00000441,-0.00023270,-0.0
 0045304,-0.00039817,0.00308755,0.01099202,0.00656211,0.00080761,0.0009
 0635,0.00050595,-0.00080266,0.00002027,0.00228191,0.06303426,0.0000040
 0,0.00004567,-0.00001473,-0.00000955,-0.00011887,-0.00003367,0.0000521
 5,0.00006401,-0.00017765,-0.00003025,0.00006108,0.00004545,0.00007237,
 -0.00003899,-0.00002548,-0.00005876,-0.00007435,-0.00001544,0.00010172
 ,0.00017360,0.00019003,0.00006888,-0.00023784,0.00138459,-0.00025625,0
 .00005882,-0.00003566,-0.00002903,-0.00013179,-0.00007851,-0.00040143,
 -0.00074826,-0.00005715,0.00310873,-0.00162609,0.00089078,-0.00368719,
 -0.02207619,-0.00767901,-0.00247606,0.00208820,0.00061517,0.00001236,0
 .00000570,0.00000863,-0.00001617,-0.00000432,-0.00002208,0.00015267,-0
 .00003130,-0.00001475,0.00005197,-0.00018269,0.00014979,-0.04128281,-0
 .22999447,-0.10163295,0.00041195,-0.00033731,0.00028284,0.00009432,0.0
 0186631,-0.00126887,-0.00473971,-0.00214904,0.00003268,0.00000550,0.00
 001059,0.00000514,-0.00001679,-0.00001398,-0.00000963,-0.00001783,-0.0
 0002154,0.00002315,-0.00003462,0.00007944,0.00011381,-0.00023173,0.000
 04098,-0.00015653,0.00004319,-0.00011272,-0.00004943,0.00001683,0.0000
 2110,0.00000233,-0.00002666,-0.00001016,0.00003410,-0.00000743,-0.0000
 0539,0.00000450,-0.00002583,0.00002253,-0.00001405,0.00019440,0.000132
 28,-0.00010177,-0.00000417,0.00000261,-0.00000393,-0.00000300,-0.00000
 030,-0.00000095,-0.00000229,-0.00000426,-0.00000011,-0.00000296,-0.000
 00646,-0.00000245,0.00000225,-0.00000919,0.00000970,0.00000771,-0.0000
 1084,-0.00000298,0.00001069,-0.00000102,0.00000759,0.00001965,0.000007
 67,0.00000626,0.00101101,-0.00013271,-0.00122725,0.00069010,0.00087401
 ,-0.00086412,-0.00046993,0.00051462,0.00018753,-0.00007949,-0.00015029
 ,0.00007763,0.04777752,0.25216114,0.00003885,-0.00003448,0.00002309,0.
 00000611,0.00007526,0.00003933,-0.00000160,-0.00005053,0.00000724,0.00
 003268,-0.00005588,-0.00001755,-0.00008410,0.00003023,0.00001368,0.000
 04711,0.00007333,0.00002463,0.00008585,0.00017356,-0.00012339,0.000384
 11,-0.00000255,-0.00034988,0.00002744,-0.00011207,-0.00002645,0.000036
 91,0.00005222,0.00004740,0.00013204,0.00052837,-0.00001785,-0.00130527
 ,0.00170717,-0.00176219,0.00279207,0.01663005,0.00655069,0.00067029,0.
 00044663,0.00094830,-0.00003559,-0.00000604,-0.00000679,0.00002826,-0.
 00000513,0.00000932,-0.00016180,0.00002950,0.00002829,-0.00001657,0.00
 020238,-0.00008314,-0.02751125,-0.10274350,-0.09459693,-0.00012504,0.0
 0054953,-0.00055561,-0.00041291,-0.00045668,0.00010651,0.00164600,0.00
 045101,0.00001270,-0.00000198,-0.00000718,-0.00000316,0.00002148,0.000
 01661,0.00001331,-0.00000614,0.00004327,0.00000372,0.00005962,-0.00006
 680,-0.00010845,0.00010251,-0.00004740,0.00009731,-0.00004648,0.000106
 93,0.00004765,-0.00003547,-0.00003432,-0.00000540,0.00004156,-0.000001
 06,-0.00004883,0.00000069,0.00000570,0.00000150,0.00002418,-0.00002605
 ,0.00000915,-0.00008892,-0.00007289,0.00009060,0.00000140,-0.00000735,
 0.00000439,-0.00000287,-0.00000128,0.00000007,0.00000268,-0.00000222,-
 0.00000244,0.00000116,-0.00000192,0.00000206,0.00000011,0.00000175,-0.
 00001120,0.00000142,0.00000431,0.00000016,0.00000433,-0.00000870,-0.00
 000324,0.00000685,0.00000479,0.00000781,0.00005929,-0.00028892,0.00023
 053,-0.00586881,-0.02658506,-0.01727325,-0.00050589,0.00002637,0.00024
 996,0.00008542,0.00004159,0.00013022,0.02987025,0.10941747,0.10629616\
 \-0.00000334,-0.00000354,-0.00000115,-0.00000451,-0.00000046,0.0000000
 8,0.00000071,0.00000352,-0.00000070,0.00000226,0.00000129,-0.00000199,
 0.00000071,-0.00000073,-0.00000022,-0.00000179,-0.00000235,-0.00000210
 ,0.00001049,0.00000146,0.00000565,0.00000229,-0.00000520,-0.00000366,-
 0.00000113,-0.00000076,-0.00000467,0.00000030,-0.00000353,-0.00000441,
 -0.00001939,-0.00001078,0.00001083,-0.00002096,0.00000462,-0.00000653,
 -0.00000091,-0.00000134,-0.00000431,-0.00000008,0.00000126,-0.00000587
 ,0.00000115,0.00000060,0.00000043,-0.00000192,0.00000077,0.00000520,0.
 00000801,-0.00000177,0.00000575,-0.00000637,-0.00000753,-0.00001345,0.
 00000211,0.00000220,-0.00000463,0.00001792,0.00000044,0.00000621,0.000
 00085,0.00000129,0.00000013,-0.00000184,-0.00000012,0.00000288,-0.0000
 0138,0.00000056,0.00000337,-0.00000203,0.00000181,0.00000385,0.0000026
 6,-0.00000181,0.00000588,-0.00000162,0.00000611,0.00001061,-0.00000052
 ,0.00000137,-0.00000481,0.00000391,0.00000347,-0.00000766,0.00000053,0
 .00000646,0.00000589,-0.00000257,-0.00000158,0.00000245,0.00000150,0.0
 0000307,0.00000378,0.00000297,0.00000215,0.00000247,0.00001794,0.00000
 815,-0.00000249,-0.00000041,0.00000259,0.00000510,-0.00000171,0.000000
 54,0.00000644,-0.00000260,-0.00000080,0.00000622,-0.00000239,-0.000001
 13,0.00000350,-0.00000180,-0.00000166,0.00000083,-0.00000093,-0.000001
 81,-0.00000209,0.00000036,-0.00000163,-0.00000478,0.00000107,-0.000001
 22,-0.00000566,0.00000103,-0.00000060,-0.00000437,0.00000015,-0.000001
 50,-0.00000359,0.00000063,-0.00000147,-0.00000415,-0.00000047,0.000000
 18,-0.00000024,0.00000110,-0.00000058,-0.00000405\\\@


 I DO NOT KNOW WHAT I MAY APPEAR TO THE WORLD; BUT TO MYSELF
 I SEEM TO HAVE BEEN ONLY LIKE A BOY PLAYING ON THE SEASHORE,
 AND DIVERTING MYSELF IN NOW AND THEN FINDING A SMOOTHER PEBBLE
 OR A PRETTIER SHELL THAN ORDINARY, WHILST THE GREAT OCEAN OF
 TRUTH LAY ALL UNDISCOVERED BEFORE ME.
                                          -- NEWTON (1642-1726)
 Job cpu time:       1 days  0 hours 49 minutes 32.8 seconds.
 Elapsed time:       0 days  1 hours 14 minutes 41.5 seconds.
 File lengths (MBytes):  RWF=   2281 Int=      0 D2E=      0 Chk=     58 Scr=      1
 Normal termination of Gaussian 16 at Fri Sep  6 19:53:11 2019.
