 Entering Gaussian System, Link 0=/share/apps/gaussian16/g16/g16
 Initial command:
 /share/apps/gaussian16/g16/l1.exe "/home/amen01//scratch/556/Gau-10658.inp" -scrdir="/home/amen01//scratch/556/"
 Entering Link 1 = /share/apps/gaussian16/g16/l1.exe PID=     10659.
  
 Copyright (c) 1988-2017, Gaussian, Inc.  All Rights Reserved.
  
 This is part of the Gaussian(R) 16 program.  It is based on
 the Gaussian(R) 09 system (copyright 2009, Gaussian, Inc.),
 the Gaussian(R) 03 system (copyright 2003, Gaussian, Inc.),
 the Gaussian(R) 98 system (copyright 1998, Gaussian, Inc.),
 the Gaussian(R) 94 system (copyright 1995, Gaussian, Inc.),
 the Gaussian 92(TM) system (copyright 1992, Gaussian, Inc.),
 the Gaussian 90(TM) system (copyright 1990, Gaussian, Inc.),
 the Gaussian 88(TM) system (copyright 1988, Gaussian, Inc.),
 the Gaussian 86(TM) system (copyright 1986, Carnegie Mellon
 University), and the Gaussian 82(TM) system (copyright 1983,
 Carnegie Mellon University). Gaussian is a federally registered
 trademark of Gaussian, Inc.
  
 This software contains proprietary and confidential information,
 including trade secrets, belonging to Gaussian, Inc.
  
 This software is provided under written license and may be
 used, copied, transmitted, or stored only in accord with that
 written license.
  
 The following legend is applicable only to US Government
 contracts under FAR:
  
                    RESTRICTED RIGHTS LEGEND
  
 Use, reproduction and disclosure by the US Government is
 subject to restrictions as set forth in subparagraphs (a)
 and (c) of the Commercial Computer Software - Restricted
 Rights clause in FAR 52.227-19.
  
 Gaussian, Inc.
 340 Quinnipiac St., Bldg. 40, Wallingford CT 06492
  
  
 ---------------------------------------------------------------
 Warning -- This program may not be used in any manner that
 competes with the business of Gaussian, Inc. or will provide
 assistance to any competitor of Gaussian, Inc.  The licensee
 of this program is prohibited from giving any competitor of
 Gaussian, Inc. access to this program.  By using this program,
 the user acknowledges that Gaussian, Inc. is engaged in the
 business of creating and licensing software in the field of
 computational chemistry and represents and warrants to the
 licensee that it is not a competitor of Gaussian, Inc. and that
 it will not use this program in any manner prohibited above.
 ---------------------------------------------------------------
  

 Cite this work as:
 Gaussian 16, Revision B.01,
 M. J. Frisch, G. W. Trucks, H. B. Schlegel, G. E. Scuseria, 
 M. A. Robb, J. R. Cheeseman, G. Scalmani, V. Barone, 
 G. A. Petersson, H. Nakatsuji, X. Li, M. Caricato, A. V. Marenich, 
 J. Bloino, B. G. Janesko, R. Gomperts, B. Mennucci, H. P. Hratchian, 
 J. V. Ortiz, A. F. Izmaylov, J. L. Sonnenberg, D. Williams-Young, 
 F. Ding, F. Lipparini, F. Egidi, J. Goings, B. Peng, A. Petrone, 
 T. Henderson, D. Ranasinghe, V. G. Zakrzewski, J. Gao, N. Rega, 
 G. Zheng, W. Liang, M. Hada, M. Ehara, K. Toyota, R. Fukuda, 
 J. Hasegawa, M. Ishida, T. Nakajima, Y. Honda, O. Kitao, H. Nakai, 
 T. Vreven, K. Throssell, J. A. Montgomery, Jr., J. E. Peralta, 
 F. Ogliaro, M. J. Bearpark, J. J. Heyd, E. N. Brothers, K. N. Kudin, 
 V. N. Staroverov, T. A. Keith, R. Kobayashi, J. Normand, 
 K. Raghavachari, A. P. Rendell, J. C. Burant, S. S. Iyengar, 
 J. Tomasi, M. Cossi, J. M. Millam, M. Klene, C. Adamo, R. Cammi, 
 J. W. Ochterski, R. L. Martin, K. Morokuma, O. Farkas, 
 J. B. Foresman, and D. J. Fox, Gaussian, Inc., Wallingford CT, 2016.
 
 ******************************************
 Gaussian 16:  ES64L-G16RevB.01 20-Dec-2017
                19-Jun-2019 
 ******************************************
 %nprocshared=20
 Will use up to   20 processors via shared memory.
 %mem=100GB
 %chk=7-memb-haddTSguess-4a.chk
 ----------------------------------------------------------------------
 # opt=(ts,modredundant,calcfc,noeigen) freq b3lyp/6-311+g(d,p) int=gri
 d=fine
 ----------------------------------------------------------------------
 1/5=1,10=4,11=1,18=120,26=3,38=1/1,3;
 2/9=110,12=2,17=6,18=5,40=1/2;
 3/5=4,6=6,7=111,11=2,25=1,30=1,71=2,74=-5,75=-4,140=1/1,2,3;
 4//1;
 5/5=2,38=5/2;
 8/6=4,10=90,11=11/1;
 11/6=1,8=1,9=11,15=111,16=1/1,2,10;
 10/6=1,13=1/2;
 6/7=2,8=2,9=2,10=2,28=1/1;
 7/10=1,18=20,25=1/1,2,3,16;
 1/5=1,10=4,11=1,18=20,26=3/3(2);
 2/9=110/2;
 99//99;
 2/9=110/2;
 3/5=4,6=6,7=111,11=2,25=1,30=1,71=1,74=-5,75=-4/1,2,3;
 4/5=5,16=3,69=1/1;
 5/5=2,38=5/2;
 7//1,2,3,16;
 1/5=1,11=1,18=20,26=3/3(-5);
 2/9=110/2;
 6/7=2,8=2,9=2,10=2,19=2,28=1/1;
 99/9=1/99;
 ---------------------
 7-memb-haddTSguess-4a
 ---------------------
 Symbolic Z-matrix:
 Charge =  0 Multiplicity = 1
 C                    -1.67252  -2.77322   0.26179 
 C                    -1.46844  -1.41336   0.07111 
 C                    -2.51752  -0.52213  -0.19117 
 C                    -3.8554   -0.8321   -0.1889 
 C                    -3.07641  -3.15836   0.22836 
 C                    -4.10368  -2.24864   0.02696 
 C                    -1.98195   0.75757  -0.31812 
 C                    -2.75995   1.89701  -0.39641 
 C                    -4.18169   1.61837  -0.44712 
 C                    -4.70188   0.32968  -0.3539 
 C                    -0.58705   0.69316  -0.10906 
 C                     0.11624   1.84257   0.08162 
 C                    -0.61656   3.07659  -0.06298 
 C                    -1.99891   3.10449  -0.30896 
 C                    -0.47085  -3.49994   0.42596 
 C                     0.78955  -2.8558    0.36892 
 C                     0.93557  -1.41126   0.24415 
 C                    -0.25338  -0.71352   0.11011 
 C                     0.13279   4.31379   0.14537 
 C                     1.51807   1.70845   0.6705 
 C                     2.17603   3.08893   0.98889 
 C                     1.38781   4.31522   0.61037 
 C                     1.99381  -3.63836   0.32055 
 C                     3.18039  -3.06448   0.00427 
 C                     3.32421  -1.64581  -0.21592 
 C                     2.23126  -0.76943   0.04543 
 C                     2.4469    0.65959  -0.02825 
 C                     3.63381   1.0848   -0.6113 
 C                     4.54101  -1.13892  -0.71178 
 C                     4.66636   0.20587  -0.97246 
 H                     5.57626   0.60234  -1.40856 
 H                     3.80841   2.13993  -0.76776 
 H                     5.3571   -1.82437  -0.91334 
 H                     4.06707  -3.6792   -0.11063 
 H                     1.92613  -4.71108   0.46784 
 H                    -0.48189  -4.57947   0.54176 
 H                    -3.33893  -4.20102   0.37617 
 H                    -5.12377  -2.61946   0.03501 
 H                    -5.78036   0.2113   -0.38327 
 H                    -4.88064   2.4437   -0.53912 
 H                    -2.48692   4.07259  -0.37233 
 H                    -0.36585   5.25333  -0.07208 
 H                     1.89728   5.26312   0.75972 
 H                     1.32538   1.24445   1.64608 
 H                     3.2667    2.81978   1.96989 
 H                     3.62778   2.65041   2.60289 
 
 Add virtual bond connecting atoms H45        and C21        Dist= 2.82D+00.
 The following ModRedundant input section has been read:
 B      45      46 0.7400 B                                                    
 
 Iteration  1 RMS(Cart)=  0.00085563 RMS(Int)=  0.00000017
 Iteration  2 RMS(Cart)=  0.00000006 RMS(Int)=  0.00000000

 GradGradGradGradGradGradGradGradGradGradGradGradGradGradGradGradGradGrad
 Berny optimization.
 Initialization pass.
                           ----------------------------
                           !    Initial Parameters    !
                           ! (Angstroms and Degrees)  !
 --------------------------                            --------------------------
 ! Name  Definition              Value          Derivative Info.                !
 --------------------------------------------------------------------------------
 ! R1    R(1,2)                  1.3882         calculate D2E/DX2 analytically  !
 ! R2    R(1,5)                  1.4561         calculate D2E/DX2 analytically  !
 ! R3    R(1,15)                 1.4139         calculate D2E/DX2 analytically  !
 ! R4    R(2,3)                  1.4013         calculate D2E/DX2 analytically  !
 ! R5    R(2,18)                 1.4027         calculate D2E/DX2 analytically  !
 ! R6    R(3,4)                  1.3733         calculate D2E/DX2 analytically  !
 ! R7    R(3,7)                  1.393          calculate D2E/DX2 analytically  !
 ! R8    R(4,6)                  1.4542         calculate D2E/DX2 analytically  !
 ! R9    R(4,10)                 1.4469         calculate D2E/DX2 analytically  !
 ! R10   R(5,6)                  1.3869         calculate D2E/DX2 analytically  !
 ! R11   R(5,37)                 1.0853         calculate D2E/DX2 analytically  !
 ! R12   R(6,38)                 1.0854         calculate D2E/DX2 analytically  !
 ! R13   R(7,8)                  1.3819         calculate D2E/DX2 analytically  !
 ! R14   R(7,11)                 1.4119         calculate D2E/DX2 analytically  !
 ! R15   R(8,9)                  1.4497         calculate D2E/DX2 analytically  !
 ! R16   R(8,14)                 1.43           calculate D2E/DX2 analytically  !
 ! R17   R(9,10)                 1.3928         calculate D2E/DX2 analytically  !
 ! R18   R(9,40)                 1.0854         calculate D2E/DX2 analytically  !
 ! R19   R(10,39)                1.0854         calculate D2E/DX2 analytically  !
 ! R20   R(11,12)                1.3609         calculate D2E/DX2 analytically  !
 ! R21   R(11,18)                1.4622         calculate D2E/DX2 analytically  !
 ! R22   R(12,13)                1.4425         calculate D2E/DX2 analytically  !
 ! R23   R(12,20)                1.5264         calculate D2E/DX2 analytically  !
 ! R24   R(13,14)                1.4043         calculate D2E/DX2 analytically  !
 ! R25   R(13,19)                1.4614         calculate D2E/DX2 analytically  !
 ! R26   R(14,41)                1.086          calculate D2E/DX2 analytically  !
 ! R27   R(15,16)                1.4166         calculate D2E/DX2 analytically  !
 ! R28   R(15,36)                1.0858         calculate D2E/DX2 analytically  !
 ! R29   R(16,17)                1.4573         calculate D2E/DX2 analytically  !
 ! R30   R(16,23)                1.437          calculate D2E/DX2 analytically  !
 ! R31   R(17,18)                1.3851         calculate D2E/DX2 analytically  !
 ! R32   R(17,26)                1.4595         calculate D2E/DX2 analytically  !
 ! R33   R(19,22)                1.3384         calculate D2E/DX2 analytically  !
 ! R34   R(19,42)                1.0857         calculate D2E/DX2 analytically  !
 ! R35   R(20,21)                1.5621         calculate D2E/DX2 analytically  !
 ! R36   R(20,27)                1.5656         calculate D2E/DX2 analytically  !
 ! R37   R(20,44)                1.0974         calculate D2E/DX2 analytically  !
 ! R38   R(21,22)                1.5061         calculate D2E/DX2 analytically  !
 ! R39   R(21,45)                1.4914         calculate D2E/DX2 analytically  !
 ! R40   R(22,43)                1.0865         calculate D2E/DX2 analytically  !
 ! R41   R(23,24)                1.3555         calculate D2E/DX2 analytically  !
 ! R42   R(23,35)                1.0849         calculate D2E/DX2 analytically  !
 ! R43   R(24,25)                1.4428         calculate D2E/DX2 analytically  !
 ! R44   R(24,34)                1.085          calculate D2E/DX2 analytically  !
 ! R45   R(25,26)                1.4251         calculate D2E/DX2 analytically  !
 ! R46   R(25,29)                1.4083         calculate D2E/DX2 analytically  !
 ! R47   R(26,27)                1.4471         calculate D2E/DX2 analytically  !
 ! R48   R(27,28)                1.3891         calculate D2E/DX2 analytically  !
 ! R49   R(28,30)                1.4033         calculate D2E/DX2 analytically  !
 ! R50   R(28,32)                1.0809         calculate D2E/DX2 analytically  !
 ! R51   R(29,30)                1.3755         calculate D2E/DX2 analytically  !
 ! R52   R(29,33)                1.0847         calculate D2E/DX2 analytically  !
 ! R53   R(30,31)                1.0841         calculate D2E/DX2 analytically  !
 ! R54   R(45,46)                0.74           calculate D2E/DX2 analytically  !
 ! A1    A(2,1,5)              113.4321         calculate D2E/DX2 analytically  !
 ! A2    A(2,1,15)             113.2338         calculate D2E/DX2 analytically  !
 ! A3    A(5,1,15)             133.3241         calculate D2E/DX2 analytically  !
 ! A4    A(1,2,3)              122.5917         calculate D2E/DX2 analytically  !
 ! A5    A(1,2,18)             127.7508         calculate D2E/DX2 analytically  !
 ! A6    A(3,2,18)             109.6564         calculate D2E/DX2 analytically  !
 ! A7    A(2,3,4)              125.8359         calculate D2E/DX2 analytically  !
 ! A8    A(2,3,7)              108.2693         calculate D2E/DX2 analytically  !
 ! A9    A(4,3,7)              125.5935         calculate D2E/DX2 analytically  !
 ! A10   A(3,4,6)              112.7322         calculate D2E/DX2 analytically  !
 ! A11   A(3,4,10)             112.8622         calculate D2E/DX2 analytically  !
 ! A12   A(6,4,10)             134.3611         calculate D2E/DX2 analytically  !
 ! A13   A(1,5,6)              122.954          calculate D2E/DX2 analytically  !
 ! A14   A(1,5,37)             118.9585         calculate D2E/DX2 analytically  !
 ! A15   A(6,5,37)             118.085          calculate D2E/DX2 analytically  !
 ! A16   A(4,6,5)              122.2786         calculate D2E/DX2 analytically  !
 ! A17   A(4,6,38)             119.6255         calculate D2E/DX2 analytically  !
 ! A18   A(5,6,38)             118.0958         calculate D2E/DX2 analytically  !
 ! A19   A(3,7,8)              123.1038         calculate D2E/DX2 analytically  !
 ! A20   A(3,7,11)             108.9303         calculate D2E/DX2 analytically  !
 ! A21   A(8,7,11)             127.0264         calculate D2E/DX2 analytically  !
 ! A22   A(7,8,9)              113.3054         calculate D2E/DX2 analytically  !
 ! A23   A(7,8,14)             113.1506         calculate D2E/DX2 analytically  !
 ! A24   A(9,8,14)             133.345          calculate D2E/DX2 analytically  !
 ! A25   A(8,9,10)             122.8043         calculate D2E/DX2 analytically  !
 ! A26   A(8,9,40)             119.2318         calculate D2E/DX2 analytically  !
 ! A27   A(10,9,40)            117.9493         calculate D2E/DX2 analytically  !
 ! A28   A(4,10,9)             122.1438         calculate D2E/DX2 analytically  !
 ! A29   A(4,10,39)            119.7909         calculate D2E/DX2 analytically  !
 ! A30   A(9,10,39)            118.048          calculate D2E/DX2 analytically  !
 ! A31   A(7,11,12)            119.5215         calculate D2E/DX2 analytically  !
 ! A32   A(7,11,18)            106.9487         calculate D2E/DX2 analytically  !
 ! A33   A(12,11,18)           132.3431         calculate D2E/DX2 analytically  !
 ! A34   A(11,12,13)           116.4845         calculate D2E/DX2 analytically  !
 ! A35   A(11,12,20)           117.0291         calculate D2E/DX2 analytically  !
 ! A36   A(13,12,20)           125.4789         calculate D2E/DX2 analytically  !
 ! A37   A(12,13,14)           122.318          calculate D2E/DX2 analytically  !
 ! A38   A(12,13,19)           116.7099         calculate D2E/DX2 analytically  !
 ! A39   A(14,13,19)           120.8569         calculate D2E/DX2 analytically  !
 ! A40   A(8,14,13)            121.1852         calculate D2E/DX2 analytically  !
 ! A41   A(8,14,41)            120.6647         calculate D2E/DX2 analytically  !
 ! A42   A(13,14,41)           118.0512         calculate D2E/DX2 analytically  !
 ! A43   A(1,15,16)            121.1846         calculate D2E/DX2 analytically  !
 ! A44   A(1,15,36)            120.9821         calculate D2E/DX2 analytically  !
 ! A45   A(16,15,36)           117.738          calculate D2E/DX2 analytically  !
 ! A46   A(15,16,17)           122.9113         calculate D2E/DX2 analytically  !
 ! A47   A(15,16,23)           119.9576         calculate D2E/DX2 analytically  !
 ! A48   A(17,16,23)           116.9345         calculate D2E/DX2 analytically  !
 ! A49   A(16,17,18)           114.9379         calculate D2E/DX2 analytically  !
 ! A50   A(16,17,26)           122.4473         calculate D2E/DX2 analytically  !
 ! A51   A(18,17,26)           121.8258         calculate D2E/DX2 analytically  !
 ! A52   A(2,18,11)            106.1485         calculate D2E/DX2 analytically  !
 ! A53   A(2,18,17)            119.6643         calculate D2E/DX2 analytically  !
 ! A54   A(11,18,17)           134.0279         calculate D2E/DX2 analytically  !
 ! A55   A(13,19,22)           122.0912         calculate D2E/DX2 analytically  !
 ! A56   A(13,19,42)           117.9426         calculate D2E/DX2 analytically  !
 ! A57   A(22,19,42)           119.9568         calculate D2E/DX2 analytically  !
 ! A58   A(12,20,21)           112.8191         calculate D2E/DX2 analytically  !
 ! A59   A(12,20,27)           115.5652         calculate D2E/DX2 analytically  !
 ! A60   A(12,20,44)           102.6429         calculate D2E/DX2 analytically  !
 ! A61   A(21,20,27)           115.6673         calculate D2E/DX2 analytically  !
 ! A62   A(21,20,44)           105.4525         calculate D2E/DX2 analytically  !
 ! A63   A(27,20,44)           102.5733         calculate D2E/DX2 analytically  !
 ! A64   A(20,21,22)           116.609          calculate D2E/DX2 analytically  !
 ! A65   A(20,21,45)           106.4162         calculate D2E/DX2 analytically  !
 ! A66   A(22,21,45)           134.0246         calculate D2E/DX2 analytically  !
 ! A67   A(19,22,21)           125.2535         calculate D2E/DX2 analytically  !
 ! A68   A(19,22,43)           119.2361         calculate D2E/DX2 analytically  !
 ! A69   A(21,22,43)           115.4939         calculate D2E/DX2 analytically  !
 ! A70   A(16,23,24)           120.7239         calculate D2E/DX2 analytically  !
 ! A71   A(16,23,35)           118.7909         calculate D2E/DX2 analytically  !
 ! A72   A(24,23,35)           120.3255         calculate D2E/DX2 analytically  !
 ! A73   A(23,24,25)           122.6257         calculate D2E/DX2 analytically  !
 ! A74   A(23,24,34)           120.014          calculate D2E/DX2 analytically  !
 ! A75   A(25,24,34)           117.3509         calculate D2E/DX2 analytically  !
 ! A76   A(24,25,26)           120.0151         calculate D2E/DX2 analytically  !
 ! A77   A(24,25,29)           119.587          calculate D2E/DX2 analytically  !
 ! A78   A(26,25,29)           120.3885         calculate D2E/DX2 analytically  !
 ! A79   A(17,26,25)           115.8093         calculate D2E/DX2 analytically  !
 ! A80   A(17,26,27)           124.9935         calculate D2E/DX2 analytically  !
 ! A81   A(25,26,27)           118.9252         calculate D2E/DX2 analytically  !
 ! A82   A(20,27,26)           123.398          calculate D2E/DX2 analytically  !
 ! A83   A(20,27,28)           119.2876         calculate D2E/DX2 analytically  !
 ! A84   A(26,27,28)           116.8075         calculate D2E/DX2 analytically  !
 ! A85   A(27,28,30)           123.0271         calculate D2E/DX2 analytically  !
 ! A86   A(27,28,32)           119.8422         calculate D2E/DX2 analytically  !
 ! A87   A(30,28,32)           117.0856         calculate D2E/DX2 analytically  !
 ! A88   A(25,29,30)           119.8236         calculate D2E/DX2 analytically  !
 ! A89   A(25,29,33)           119.2121         calculate D2E/DX2 analytically  !
 ! A90   A(30,29,33)           120.9335         calculate D2E/DX2 analytically  !
 ! A91   A(28,30,29)           119.77           calculate D2E/DX2 analytically  !
 ! A92   A(28,30,31)           119.4757         calculate D2E/DX2 analytically  !
 ! A93   A(29,30,31)           120.6806         calculate D2E/DX2 analytically  !
 ! A94   A(21,45,46)           161.8597         calculate D2E/DX2 analytically  !
 ! D1    D(5,1,2,3)             -2.8979         calculate D2E/DX2 analytically  !
 ! D2    D(5,1,2,18)           176.6827         calculate D2E/DX2 analytically  !
 ! D3    D(15,1,2,3)           176.1067         calculate D2E/DX2 analytically  !
 ! D4    D(15,1,2,18)           -4.3126         calculate D2E/DX2 analytically  !
 ! D5    D(2,1,5,6)             -0.0853         calculate D2E/DX2 analytically  !
 ! D6    D(2,1,5,37)          -179.4941         calculate D2E/DX2 analytically  !
 ! D7    D(15,1,5,6)          -178.828          calculate D2E/DX2 analytically  !
 ! D8    D(15,1,5,37)            1.7632         calculate D2E/DX2 analytically  !
 ! D9    D(2,1,15,16)           -1.0281         calculate D2E/DX2 analytically  !
 ! D10   D(2,1,15,36)         -177.3991         calculate D2E/DX2 analytically  !
 ! D11   D(5,1,15,16)          177.7165         calculate D2E/DX2 analytically  !
 ! D12   D(5,1,15,36)            1.3454         calculate D2E/DX2 analytically  !
 ! D13   D(1,2,3,4)              5.499          calculate D2E/DX2 analytically  !
 ! D14   D(1,2,3,7)            179.4639         calculate D2E/DX2 analytically  !
 ! D15   D(18,2,3,4)          -174.1489         calculate D2E/DX2 analytically  !
 ! D16   D(18,2,3,7)            -0.184          calculate D2E/DX2 analytically  !
 ! D17   D(1,2,18,11)         -178.185          calculate D2E/DX2 analytically  !
 ! D18   D(1,2,18,17)            5.779          calculate D2E/DX2 analytically  !
 ! D19   D(3,2,18,11)            1.4398         calculate D2E/DX2 analytically  !
 ! D20   D(3,2,18,17)         -174.5961         calculate D2E/DX2 analytically  !
 ! D21   D(2,3,4,6)             -4.1978         calculate D2E/DX2 analytically  !
 ! D22   D(2,3,4,10)           173.7306         calculate D2E/DX2 analytically  !
 ! D23   D(7,3,4,6)           -177.1454         calculate D2E/DX2 analytically  !
 ! D24   D(7,3,4,10)             0.783          calculate D2E/DX2 analytically  !
 ! D25   D(2,3,7,8)           -170.8175         calculate D2E/DX2 analytically  !
 ! D26   D(2,3,7,11)            -1.2143         calculate D2E/DX2 analytically  !
 ! D27   D(4,3,7,8)              3.1658         calculate D2E/DX2 analytically  !
 ! D28   D(4,3,7,11)           172.769          calculate D2E/DX2 analytically  !
 ! D29   D(3,4,6,5)              1.0225         calculate D2E/DX2 analytically  !
 ! D30   D(3,4,6,38)          -179.1009         calculate D2E/DX2 analytically  !
 ! D31   D(10,4,6,5)          -176.3071         calculate D2E/DX2 analytically  !
 ! D32   D(10,4,6,38)            3.5694         calculate D2E/DX2 analytically  !
 ! D33   D(3,4,10,9)            -2.4517         calculate D2E/DX2 analytically  !
 ! D34   D(3,4,10,39)          179.0896         calculate D2E/DX2 analytically  !
 ! D35   D(6,4,10,9)           174.8754         calculate D2E/DX2 analytically  !
 ! D36   D(6,4,10,39)           -3.5833         calculate D2E/DX2 analytically  !
 ! D37   D(1,5,6,4)              0.9908         calculate D2E/DX2 analytically  !
 ! D38   D(1,5,6,38)          -178.8876         calculate D2E/DX2 analytically  !
 ! D39   D(37,5,6,4)          -179.5955         calculate D2E/DX2 analytically  !
 ! D40   D(37,5,6,38)            0.5262         calculate D2E/DX2 analytically  !
 ! D41   D(3,7,8,9)             -4.9123         calculate D2E/DX2 analytically  !
 ! D42   D(3,7,8,14)           170.6587         calculate D2E/DX2 analytically  !
 ! D43   D(11,7,8,9)          -172.5661         calculate D2E/DX2 analytically  !
 ! D44   D(11,7,8,14)            3.0049         calculate D2E/DX2 analytically  !
 ! D45   D(3,7,11,12)         -166.9694         calculate D2E/DX2 analytically  !
 ! D46   D(3,7,11,18)            2.0777         calculate D2E/DX2 analytically  !
 ! D47   D(8,7,11,12)            2.1156         calculate D2E/DX2 analytically  !
 ! D48   D(8,7,11,18)          171.1627         calculate D2E/DX2 analytically  !
 ! D49   D(7,8,9,10)             3.1944         calculate D2E/DX2 analytically  !
 ! D50   D(7,8,9,40)          -178.2229         calculate D2E/DX2 analytically  !
 ! D51   D(14,8,9,10)         -171.2025         calculate D2E/DX2 analytically  !
 ! D52   D(14,8,9,40)            7.3802         calculate D2E/DX2 analytically  !
 ! D53   D(7,8,14,13)           -4.6296         calculate D2E/DX2 analytically  !
 ! D54   D(7,8,14,41)          179.0579         calculate D2E/DX2 analytically  !
 ! D55   D(9,8,14,13)          169.7738         calculate D2E/DX2 analytically  !
 ! D56   D(9,8,14,41)           -6.5387         calculate D2E/DX2 analytically  !
 ! D57   D(8,9,10,4)             0.4538         calculate D2E/DX2 analytically  !
 ! D58   D(8,9,10,39)          178.9382         calculate D2E/DX2 analytically  !
 ! D59   D(40,9,10,4)         -178.1461         calculate D2E/DX2 analytically  !
 ! D60   D(40,9,10,39)           0.3383         calculate D2E/DX2 analytically  !
 ! D61   D(7,11,12,13)          -5.318          calculate D2E/DX2 analytically  !
 ! D62   D(7,11,12,20)         163.8412         calculate D2E/DX2 analytically  !
 ! D63   D(18,11,12,13)       -171.0831         calculate D2E/DX2 analytically  !
 ! D64   D(18,11,12,20)         -1.9239         calculate D2E/DX2 analytically  !
 ! D65   D(7,11,18,2)           -2.1397         calculate D2E/DX2 analytically  !
 ! D66   D(7,11,18,17)         173.0679         calculate D2E/DX2 analytically  !
 ! D67   D(12,11,18,2)         164.9345         calculate D2E/DX2 analytically  !
 ! D68   D(12,11,18,17)        -19.8579         calculate D2E/DX2 analytically  !
 ! D69   D(11,12,13,14)          3.665          calculate D2E/DX2 analytically  !
 ! D70   D(11,12,13,19)        179.7905         calculate D2E/DX2 analytically  !
 ! D71   D(20,12,13,14)       -164.4624         calculate D2E/DX2 analytically  !
 ! D72   D(20,12,13,19)         11.6632         calculate D2E/DX2 analytically  !
 ! D73   D(11,12,20,21)       -173.8895         calculate D2E/DX2 analytically  !
 ! D74   D(11,12,20,27)         49.8739         calculate D2E/DX2 analytically  !
 ! D75   D(11,12,20,44)        -60.896          calculate D2E/DX2 analytically  !
 ! D76   D(13,12,20,21)         -5.82           calculate D2E/DX2 analytically  !
 ! D77   D(13,12,20,27)       -142.0566         calculate D2E/DX2 analytically  !
 ! D78   D(13,12,20,44)        107.1735         calculate D2E/DX2 analytically  !
 ! D79   D(12,13,14,8)           1.5553         calculate D2E/DX2 analytically  !
 ! D80   D(12,13,14,41)        177.9613         calculate D2E/DX2 analytically  !
 ! D81   D(19,13,14,8)        -174.4127         calculate D2E/DX2 analytically  !
 ! D82   D(19,13,14,41)          1.9933         calculate D2E/DX2 analytically  !
 ! D83   D(12,13,19,22)         -8.1938         calculate D2E/DX2 analytically  !
 ! D84   D(12,13,19,42)        172.9246         calculate D2E/DX2 analytically  !
 ! D85   D(14,13,19,22)        167.9921         calculate D2E/DX2 analytically  !
 ! D86   D(14,13,19,42)        -10.8895         calculate D2E/DX2 analytically  !
 ! D87   D(1,15,16,17)           4.8619         calculate D2E/DX2 analytically  !
 ! D88   D(1,15,16,23)        -169.883          calculate D2E/DX2 analytically  !
 ! D89   D(36,15,16,17)       -178.6531         calculate D2E/DX2 analytically  !
 ! D90   D(36,15,16,23)          6.602          calculate D2E/DX2 analytically  !
 ! D91   D(15,16,17,18)         -3.4224         calculate D2E/DX2 analytically  !
 ! D92   D(15,16,17,26)       -173.4118         calculate D2E/DX2 analytically  !
 ! D93   D(23,16,17,18)        171.471          calculate D2E/DX2 analytically  !
 ! D94   D(23,16,17,26)          1.4815         calculate D2E/DX2 analytically  !
 ! D95   D(15,16,23,24)        166.9819         calculate D2E/DX2 analytically  !
 ! D96   D(15,16,23,35)         -8.4397         calculate D2E/DX2 analytically  !
 ! D97   D(17,16,23,24)         -8.0703         calculate D2E/DX2 analytically  !
 ! D98   D(17,16,23,35)        176.5081         calculate D2E/DX2 analytically  !
 ! D99   D(16,17,18,2)          -1.5151         calculate D2E/DX2 analytically  !
 ! D100  D(16,17,18,11)       -176.216          calculate D2E/DX2 analytically  !
 ! D101  D(26,17,18,2)         168.5431         calculate D2E/DX2 analytically  !
 ! D102  D(26,17,18,11)         -6.1579         calculate D2E/DX2 analytically  !
 ! D103  D(16,17,26,25)          8.8609         calculate D2E/DX2 analytically  !
 ! D104  D(16,17,26,27)       -177.2203         calculate D2E/DX2 analytically  !
 ! D105  D(18,17,26,25)       -160.448          calculate D2E/DX2 analytically  !
 ! D106  D(18,17,26,27)         13.4707         calculate D2E/DX2 analytically  !
 ! D107  D(13,19,22,21)         -0.7719         calculate D2E/DX2 analytically  !
 ! D108  D(13,19,22,43)       -179.2258         calculate D2E/DX2 analytically  !
 ! D109  D(42,19,22,21)        178.0877         calculate D2E/DX2 analytically  !
 ! D110  D(42,19,22,43)         -0.3662         calculate D2E/DX2 analytically  !
 ! D111  D(12,20,21,22)         -3.1704         calculate D2E/DX2 analytically  !
 ! D112  D(12,20,21,45)        160.1497         calculate D2E/DX2 analytically  !
 ! D113  D(27,20,21,22)        133.0192         calculate D2E/DX2 analytically  !
 ! D114  D(27,20,21,45)        -63.6606         calculate D2E/DX2 analytically  !
 ! D115  D(44,20,21,22)       -114.4349         calculate D2E/DX2 analytically  !
 ! D116  D(44,20,21,45)         48.8852         calculate D2E/DX2 analytically  !
 ! D117  D(12,20,27,26)        -69.1559         calculate D2E/DX2 analytically  !
 ! D118  D(12,20,27,28)        119.2796         calculate D2E/DX2 analytically  !
 ! D119  D(21,20,27,26)        155.8634         calculate D2E/DX2 analytically  !
 ! D120  D(21,20,27,28)        -15.701          calculate D2E/DX2 analytically  !
 ! D121  D(44,20,27,26)         41.655          calculate D2E/DX2 analytically  !
 ! D122  D(44,20,27,28)       -129.9094         calculate D2E/DX2 analytically  !
 ! D123  D(20,21,22,19)          6.6104         calculate D2E/DX2 analytically  !
 ! D124  D(20,21,22,43)       -174.8843         calculate D2E/DX2 analytically  !
 ! D125  D(45,21,22,19)       -150.876          calculate D2E/DX2 analytically  !
 ! D126  D(45,21,22,43)         27.6293         calculate D2E/DX2 analytically  !
 ! D127  D(20,21,45,46)        -71.8781         calculate D2E/DX2 analytically  !
 ! D128  D(22,21,45,46)         87.2122         calculate D2E/DX2 analytically  !
 ! D129  D(16,23,24,25)          3.9983         calculate D2E/DX2 analytically  !
 ! D130  D(16,23,24,34)       -174.8622         calculate D2E/DX2 analytically  !
 ! D131  D(35,23,24,25)        179.3497         calculate D2E/DX2 analytically  !
 ! D132  D(35,23,24,34)          0.4892         calculate D2E/DX2 analytically  !
 ! D133  D(23,24,25,26)          7.2127         calculate D2E/DX2 analytically  !
 ! D134  D(23,24,25,29)       -171.6717         calculate D2E/DX2 analytically  !
 ! D135  D(34,24,25,26)       -173.8982         calculate D2E/DX2 analytically  !
 ! D136  D(34,24,25,29)          7.2174         calculate D2E/DX2 analytically  !
 ! D137  D(24,25,26,17)        -13.0339         calculate D2E/DX2 analytically  !
 ! D138  D(24,25,26,27)        172.6567         calculate D2E/DX2 analytically  !
 ! D139  D(29,25,26,17)        165.8414         calculate D2E/DX2 analytically  !
 ! D140  D(29,25,26,27)         -8.468          calculate D2E/DX2 analytically  !
 ! D141  D(24,25,29,30)        177.4886         calculate D2E/DX2 analytically  !
 ! D142  D(24,25,29,33)         -0.5133         calculate D2E/DX2 analytically  !
 ! D143  D(26,25,29,30)         -1.3915         calculate D2E/DX2 analytically  !
 ! D144  D(26,25,29,33)       -179.3935         calculate D2E/DX2 analytically  !
 ! D145  D(17,26,27,20)         27.1624         calculate D2E/DX2 analytically  !
 ! D146  D(17,26,27,28)       -161.0795         calculate D2E/DX2 analytically  !
 ! D147  D(25,26,27,20)       -159.0932         calculate D2E/DX2 analytically  !
 ! D148  D(25,26,27,28)         12.6649         calculate D2E/DX2 analytically  !
 ! D149  D(20,27,28,30)        164.4309         calculate D2E/DX2 analytically  !
 ! D150  D(20,27,28,32)        -13.0517         calculate D2E/DX2 analytically  !
 ! D151  D(26,27,28,30)         -7.682          calculate D2E/DX2 analytically  !
 ! D152  D(26,27,28,32)        174.8353         calculate D2E/DX2 analytically  !
 ! D153  D(27,28,30,29)         -2.0491         calculate D2E/DX2 analytically  !
 ! D154  D(27,28,30,31)       -178.9472         calculate D2E/DX2 analytically  !
 ! D155  D(32,28,30,29)        175.4984         calculate D2E/DX2 analytically  !
 ! D156  D(32,28,30,31)         -1.3997         calculate D2E/DX2 analytically  !
 ! D157  D(25,29,30,28)          6.7354         calculate D2E/DX2 analytically  !
 ! D158  D(25,29,30,31)       -176.4046         calculate D2E/DX2 analytically  !
 ! D159  D(33,29,30,28)       -175.2977         calculate D2E/DX2 analytically  !
 ! D160  D(33,29,30,31)          1.5623         calculate D2E/DX2 analytically  !
 --------------------------------------------------------------------------------
 Trust Radius=3.00D-01 FncErr=1.00D-07 GrdErr=1.00D-06 EigMax=2.50D+02 EigMin=1.00D-04
 Number of steps in this run=    276 maximum allowed number of steps=    276.
 Search for a saddle point of order  1.
 GradGradGradGradGradGradGradGradGradGradGradGradGradGradGradGradGradGrad

                          Input orientation:                          
 ---------------------------------------------------------------------
 Center     Atomic      Atomic             Coordinates (Angstroms)
 Number     Number       Type             X           Y           Z
 ---------------------------------------------------------------------
      1          6           0       -1.672500   -2.773233    0.261714
      2          6           0       -1.468386   -1.413366    0.071122
      3          6           0       -2.517439   -0.522098   -0.191136
      4          6           0       -3.855326   -0.832040   -0.188924
      5          6           0       -3.076397   -3.158342    0.228219
      6          6           0       -4.103642   -2.248588    0.026843
      7          6           0       -1.981839    0.757598   -0.317993
      8          6           0       -2.759812    1.897059   -0.396237
      9          6           0       -4.181557    1.618452   -0.447006
     10          6           0       -4.701777    0.329768   -0.353879
     11          6           0       -0.586946    0.693147   -0.108895
     12          6           0        0.116362    1.842530    0.081875
     13          6           0       -0.616408    3.076574   -0.062673
     14          6           0       -1.998750    3.104518   -0.308692
     15          6           0       -0.470850   -3.499988    0.425876
     16          6           0        0.789565   -2.855871    0.368912
     17          6           0        0.935619   -1.411327    0.244233
     18          6           0       -0.253312   -0.713554    0.110200
     19          6           0        0.132962    4.313746    0.145774
     20          6           0        1.518172    1.708346    0.670788
     21          6           0        2.176152    3.088793    0.989281
     22          6           0        1.387968    4.315122    0.610811
     23          6           0        1.993810   -3.638453    0.320530
     24          6           0        3.180412   -3.064579    0.004320
     25          6           0        3.324268   -1.645899   -0.215780
     26          6           0        2.231329   -0.769512    0.045590
     27          6           0        2.447001    0.659508   -0.027998
     28          6           0        3.633937    1.084728   -0.610987
     29          6           0        4.541093   -1.139005   -0.711574
     30          6           0        4.666479    0.205798   -0.972169
     31          1           0        5.576400    0.602276   -1.408218
     32          1           0        3.808564    2.139864   -0.767378
     33          1           0        5.357175   -1.824460   -0.913151
     34          1           0        4.067082   -3.679311   -0.110591
     35          1           0        1.926103   -4.711181    0.467754
     36          1           0       -0.481916   -4.579525    0.541610
     37          1           0       -3.338943   -4.201005    0.375958
     38          1           0       -5.123740   -2.619387    0.034841
     39          1           0       -5.780258    0.211412   -0.383288
     40          1           0       -4.880487    2.443802   -0.538977
     41          1           0       -2.486737    4.072632   -0.372018
     42          1           0       -0.365652    5.253310   -0.071635
     43          1           0        1.897454    5.263002    0.760233
     44          1           0        1.325443    1.244291    1.646334
     45          1           0        3.266787    2.819561    1.970297
     46          1           0        3.623903    2.651994    2.596387
 ---------------------------------------------------------------------
                    Distance matrix (angstroms):
                    1          2          3          4          5
     1  C    0.000000
     2  C    1.388246   0.000000
     3  C    2.446754   1.401303   0.000000
     4  C    2.955678   2.470434   1.373321   0.000000
     5  C    1.456145   2.378092   2.727283   2.488457   0.000000
     6  C    2.498173   2.764802   2.354638   1.454243   1.386880
     7  C    3.591451   2.264537   1.393048   2.460399   4.102559
     8  C    4.840122   3.584009   2.439905   2.948069   5.103651
     9  C    5.107304   4.101423   2.723364   2.485547   4.949249
    10  C    4.379964   3.697831   2.350211   1.446888   3.891992
    11  C    3.651242   2.290575   2.282627   3.607618   4.598366
    12  C    4.953548   3.621105   3.550058   4.795932   5.934968
    13  C    5.953218   4.572016   4.071961   5.077775   6.708975
    14  C    5.914369   4.564737   3.665406   4.354045   6.377539
    15  C    1.413890   2.339855   3.665660   4.353229   2.635273
    16  C    2.465783   2.695894   4.086126   5.097263   3.880328
    17  C    2.942343   2.410231   3.592198   4.845240   4.375910
    18  C    2.505859   1.402736   2.292102   3.616354   3.736405
    19  C    7.314261   5.947243   5.524810   6.519017   8.132581
    20  C    5.516546   4.361675   4.690837   6.005593   6.707501
    21  C    7.050164   5.864733   6.038353   7.289706   8.197266
    22  C    7.728720   6.423830   6.268495   7.390872   8.713759
    23  C    3.767479   4.123108   5.506800   6.507526   5.093725
    24  C    4.868458   4.933790   6.242429   7.383981   6.261515
    25  C    5.144567   4.806861   5.948872   7.225625   6.591899
    26  C    4.393345   3.755407   4.761097   6.091491   5.823385
    27  C    5.370096   4.431352   5.105729   6.478421   6.719341
    28  C    6.618440   5.721839   6.371624   7.742170   7.983514
    29  C    6.498210   6.066442   7.104527   8.418268   7.936441
    30  C    7.111944   6.430141   7.262818   8.620426   8.527045
    31  H    8.168800   7.475311   8.261704   9.617765   9.575545
    32  H    7.432335   6.416753   6.887410   8.240268   8.744420
    33  H    7.190049   6.908406   8.014175   9.294061   8.614354
    34  H    5.822576   5.984056   7.302767   8.418886   7.170460
    35  H    4.092437   4.749259   6.142281   6.993131   5.243443
    36  H    2.181404   3.349484   4.598150   5.094822   2.974779
    37  H    2.197412   3.370882   3.811931   3.454804   1.085313
    38  H    3.462109   3.849340   3.352982   2.203078   2.125907
    39  H    5.118380   4.630187   3.349768   2.198166   4.363490
    40  H    6.176548   5.185788   3.808090   3.450310   5.935263
    41  H    6.923184   5.597284   4.598392   5.095328   7.279764
    42  H    8.139064   6.758769   6.164398   7.015915   8.842733
    43  H    8.807620   7.508505   7.339194   8.434744   9.794961
    44  H    5.200513   4.165323   4.611309   5.875346   6.385172
    45  H    7.654747   6.629207   7.021093   8.289808   8.888539
    46  H    7.933201   6.988242   7.453941   8.708348   9.179447
                    6          7          8          9         10
     6  C    0.000000
     7  C    3.695689   0.000000
     8  C    4.378500   1.381932   0.000000
     9  C    3.896743   2.365687   1.449675   0.000000
    10  C    2.674066   2.753614   2.495881   1.392842   0.000000
    11  C    4.586870   1.411949   2.500664   3.727162   4.138102
    12  C    5.877815   2.395708   2.916152   4.336131   5.068806
    13  C    6.366017   2.703191   2.469151   3.870933   4.931530
    14  C    5.761849   2.346999   1.429978   2.644271   3.873969
    15  C    3.862953   4.578588   5.919742   6.381982   5.759843
    16  C    4.942598   4.605397   5.981127   6.737755   6.389488
    17  C    5.112966   3.678572   5.001183   5.986891   5.930378
    18  C    4.145880   2.309857   3.654357   4.602156   4.592682
    19  C    7.811990   4.163370   3.808188   5.121628   6.284619
    20  C    6.904837   3.759213   4.413084   5.808998   6.452765
    21  C    8.297573   4.942905   5.263424   6.681712   7.531414
    22  C    8.577942   4.987409   4.905635   6.277787   7.341571
    23  C    6.260743   5.961440   7.331616   8.146123   7.812329
    24  C    7.329651   6.431311   7.750133   8.736879   8.589458
    25  C    7.456269   5.825978   7.042809   8.188215   8.266784
    26  C    6.505372   4.496113   5.676029   6.860767   7.031069
    27  C    7.167353   4.439407   5.364516   6.710657   7.163794
    28  C    8.449139   5.632921   6.448723   7.835413   8.373780
    29  C    8.746878   6.804458   7.913302   9.151950   9.365676
    30  C    9.161717   6.703175   7.638185   8.975474   9.389455
    31  H   10.192647   7.638043   8.496647   9.857701  10.335706
    32  H    9.082527   5.970039   6.583332   8.013522   8.710529
    33  H    9.516855   7.802715   8.944405  10.151765  10.302232
    34  H    8.296179   7.504573   8.819523   9.809155   9.644936
    35  H    6.528139   6.767345   8.146970   8.843334   8.367499
    36  H    4.337643   5.610131   6.929251   7.285576   6.535310
    37  H    2.125695   5.187586   6.173983   5.937453   4.787262
    38  H    1.085429   4.626020   5.115884   4.367971   3.004442
    39  H    3.005137   3.838043   3.458998   2.130650   1.085355
    40  H    4.789798   3.360696   2.194667   1.085433   2.129634
    41  H    6.536918   3.353698   2.192778   2.983460   4.349226
    42  H    8.382168   4.783740   4.135431   5.283391   6.566803
    43  H    9.642354   6.042363   5.861495   7.189892   8.314319
    44  H    6.655668   3.877314   4.613840   5.903315   6.415963
    45  H    9.153489   6.085723   6.539984   7.922363   8.665960
    46  H    9.504379   6.595960   7.090667   8.441307   9.133113
                   11         12         13         14         15
    11  C    0.000000
    12  C    1.360926   0.000000
    13  C    2.384058   1.442467   0.000000
    14  C    2.801396   2.493763   1.404342   0.000000
    15  C    4.228692   5.385690   6.596290   6.818619   0.000000
    16  C    3.836484   4.755057   6.112032   6.615141   1.416608
    17  C    2.621395   3.359334   4.758596   5.413788   2.524610
    18  C    1.462231   2.582833   3.811403   4.218968   2.812684
    19  C    3.700252   2.472098   1.461369   2.492582   7.842033
    20  C    2.463749   1.526399   2.639402   3.908634   5.580585
    21  C    3.818353   2.572797   2.984148   4.372045   7.122926
    22  C    4.187717   2.830276   2.450531   3.712264   8.035257
    23  C    5.060382   5.798530   7.214685   7.861560   2.470793
    24  C    5.322246   5.785684   7.220394   8.060983   3.701216
    25  C    4.558525   4.748515   6.152570   7.135097   4.272270
    26  C    3.178979   3.361125   4.786826   5.746928   3.860296
    27  C    3.035212   2.616006   3.902292   5.081492   5.101104
    28  C    4.268640   3.664376   4.725836   5.991502   6.240511
    29  C    5.478758   5.394196   6.692682   7.806366   5.655759
    30  C    5.346141   4.949087   6.080907   7.298497   6.486874
    31  H    6.299471   5.794016   6.803199   8.053141   7.534036
    32  H    4.674088   3.800262   4.577598   5.904730   7.179496
    33  H    6.505209   6.473253   7.773489   8.875236   6.210174
    34  H    6.385794   6.792346   8.220667   9.102412   4.573049
    35  H    5.987879   6.809934   8.209436   8.780233   2.685913
    36  H    5.313685   6.466227   7.681087   7.878345   1.085779
    37  H    5.635716   6.967779   7.782529   7.458923   2.952943
    38  H    5.619256   6.882557   7.264264   6.530442   4.751605
    39  H    5.222820   6.135720   5.914161   4.761873   6.528327
    40  H    4.656636   5.071044   4.337008   2.965465   7.463544
    41  H    3.885790   3.457673   2.141485   1.085996   7.876866
    42  H    4.565681   3.448089   2.191149   2.709338   8.768056
    43  H    5.273633   3.915621   3.431784   4.580618   9.083538
    44  H    2.653644   2.065745   3.169977   4.281686   5.217698
    45  H    4.867847   3.800776   4.390697   5.744638   7.502790
    46  H    5.374653   4.390996   5.023057   6.344958   7.702273
                   16         17         18         19         20
    16  C    0.000000
    17  C    1.457253   0.000000
    18  C    2.396675   1.385067   0.000000
    19  C    7.203078   5.781904   5.042243   0.000000
    20  C    4.631854   3.202135   3.052542   2.997092   0.000000
    21  C    6.135675   4.727059   4.597055   2.527180   1.562053
    22  C    7.199982   5.755972   5.313378   1.338395   2.610715
    23  C    1.437005   2.466918   3.694433   8.168891   5.379328
    24  C    2.427475   2.798195   4.162811   7.984149   5.097846
    25  C    2.868905   2.443825   3.711416   6.769972   3.911386
    26  C    2.556582   1.459537   2.486110   5.500245   2.653157
    27  C    3.906728   2.578127   3.032505   4.328790   1.565594
    28  C    4.957719   3.773938   4.343344   4.822454   2.551138
    29  C    4.264861   3.739942   4.882893   7.063933   4.376800
    30  C    5.118865   4.244295   5.120652   6.219148   3.856008
    31  H    6.166908   5.321845   6.166243   6.769116   4.692001
    32  H    5.946669   4.678474   5.040930   4.366882   2.738690
    33  H    4.854951   4.589158   5.810243   8.129655   5.452295
    34  H    3.413223   3.882746   5.245024   8.912462   6.011184
    35  H    2.177995   3.452544   4.567135   9.206972   6.435678
    36  H    2.148830   3.483579   3.896679   8.923286   6.599572
    37  H    4.342121   5.106030   4.664125   9.198266   7.654993
    38  H    5.927454   6.182159   5.230578   8.701354   7.952905
    39  H    7.289486   6.937584   5.625498   7.216317   7.524558
    40  H    7.814108   7.021576   5.639244   5.394464   6.553416
    41  H    7.699824   6.493543   5.303612   2.681244   4.766193
    42  H    8.202891   6.797827   5.970690   1.085662   4.082494
    43  H    8.203454   6.762991   6.384948   2.095729   3.575953
    44  H    4.327852   3.028226   2.947089   3.618736   1.097352
    45  H    6.396216   5.129722   5.322965   3.922031   2.445644
    46  H    6.582682   5.410183   5.704458   4.577510   3.005413
                   21         22         23         24         25
    21  C    0.000000
    22  C    1.506106   0.000000
    23  C    6.762863   7.981896   0.000000
    24  C    6.312105   7.618443   1.355486   0.000000
    25  C    5.018730   6.321889   2.455203   1.442842   0.000000
    26  C    3.972419   5.185001   2.891856   2.483907   1.425091
    27  C    2.647572   3.859163   4.335819   3.795756   2.473815
    28  C    2.949961   4.119782   5.085881   4.219128   2.776402
    29  C    5.134211   6.437266   3.714988   2.464101   1.408338
    30  C    4.284936   5.490082   4.857211   3.722539   2.408825
    31  H    4.846902   5.950182   5.814405   4.602374   3.398279
    32  H    2.578970   3.534181   6.153522   5.298710   3.856268
    33  H    6.154527   7.468033   4.015565   2.667948   2.156599
    34  H    7.112845   8.462212   2.118016   1.085027   2.167395
    35  H    7.821387   9.043461   1.084898   2.121169   3.437737
    36  H    8.128273   9.089334   2.657765   3.999548   4.864857
    37  H    9.161527   9.742857   5.362630   6.628089   7.160803
    38  H    9.315722   9.530031   7.195807   8.316133   8.507604
    39  H    8.571331   8.319383   8.703618   9.548610   9.293549
    40  H    7.248981   6.642092   9.218923   9.778319   9.173228
    41  H    4.956169   4.004760   8.945154   9.121294   8.154373
    42  H    3.503061   2.102644   9.207839   9.042544   7.825303
    43  H    2.203933   1.086453   8.912830   8.459669   7.121890
    44  H    2.134856   3.241330   5.103495   4.970260   3.976929
    45  H    1.491430   2.759504   6.785878   6.204484   4.972179
    46  H    2.206710   3.421682   6.885235   6.292433   5.144896
                   26         27         28         29         30
    26  C    0.000000
    27  C    1.447076   0.000000
    28  C    2.415908   1.389067   0.000000
    29  C    2.458625   2.843791   2.403755   0.000000
    30  C    2.813720   2.454261   1.403251   1.375546   0.000000
    31  H    3.896776   3.420735   2.154415   2.142249   1.084108
    32  H    3.407793   2.142893   1.080863   3.360163   2.125692
    33  H    3.435551   3.927175   3.394735   1.084652   2.145342
    34  H    3.444026   4.632152   4.809790   2.653116   4.024384
    35  H    3.975945   5.418616   6.137829   4.581422   5.810312
    36  H    4.703608   6.029135   7.095949   6.215969   7.190050
    37  H    6.550742   7.567358   8.805345   8.523705   9.237107
    38  H    7.584140   8.250528   9.530712   9.806002  10.239342
    39  H    8.082801   8.247109   9.457357  10.414494  10.463323
    40  H    7.825920   7.558894   8.622510  10.081293   9.815339
    41  H    6.773544   6.009121   6.815228   8.755962   8.153594
    42  H    6.559911   5.386644   5.802127   8.083771   7.184057
    43  H    6.083865   4.702709   4.727958   7.081012   6.020301
    44  H    2.727345   2.098392   3.232662   4.645453   4.370074
    45  H    4.202155   3.054678   3.131688   4.948386   4.177200
    46  H    4.489158   3.498928   3.569828   5.114247   4.450330
                   31         32         33         34         35
    31  H    0.000000
    32  H    2.429012   0.000000
    33  H    2.486402   4.258557   0.000000
    34  H    4.721638   5.861826   2.397690   0.000000
    35  H    6.713923   7.211520   4.691728   2.446023   0.000000
    36  H    8.207075   8.079100   6.618285   4.682856   2.412747
    37  H   10.282905   9.622925   9.106714   7.440303   5.290503
    38  H   11.267410  10.152836  10.553680   9.252881   7.366363
    39  H   11.409511   9.788358  11.334370  10.591610   9.183910
    40  H   10.653323   8.697364  11.098098  10.850577   9.926579
    41  H    8.839190   6.597175   9.828300  10.154483   9.865787
    42  H    7.663326   5.253730   9.140772   9.972079  10.238855
    43  H    6.321329   3.967358   8.062382   9.242867   9.978512
    44  H    5.273814   3.576863   5.676535   5.902984   6.100614
    45  H    4.654571   2.872346   5.852428   6.870655   7.795328
    46  H    4.904127   3.407535   5.946405   6.899968   7.850475
                   36         37         38         39         40
    36  H    0.000000
    37  H    2.886749   0.000000
    38  H    5.064137   2.409020   0.000000
    39  H    7.202843   5.099598   2.935859   0.000000
    40  H    8.357166   6.882364   5.101404   2.411928   0.000000
    41  H    8.928261   8.350976   7.204335   5.075079   2.900172
    42  H    9.852625   9.920931   9.199462   7.405121   5.338115
    43  H   10.128402  10.822890  10.580899   9.261397   7.454952
    44  H    6.197079   7.281593   7.688750   7.461716   6.687898
    45  H    8.416673   9.770666  10.184747   9.705196   8.533213
    46  H    8.565905  10.018739  10.529494  10.162340   9.066339
                   41         42         43         44         45
    41  H    0.000000
    42  H    2.446065   0.000000
    43  H    4.681892   2.411171   0.000000
    44  H    5.158099   4.677975   4.154806   0.000000
    45  H    6.337166   4.825684   3.051185   2.520960   0.000000
    46  H    6.940430   5.459096   3.628974   2.857822   0.740000
                   46
    46  H    0.000000
 Stoichiometry    C30H16
 Framework group  C1[X(C30H16)]
 Deg. of freedom   132
 Full point group                 C1      NOp   1
 Largest Abelian subgroup         C1      NOp   1
 Largest concise Abelian subgroup C1      NOp   1
                         Standard orientation:                         
 ---------------------------------------------------------------------
 Center     Atomic      Atomic             Coordinates (Angstroms)
 Number     Number       Type             X           Y           Z
 ---------------------------------------------------------------------
      1          6           0       -1.688040   -2.761610    0.273394
      2          6           0       -1.480147   -1.403274    0.076086
      3          6           0       -2.527574   -0.509164   -0.182979
      4          6           0       -3.866551   -0.814129   -0.170949
      5          6           0       -3.093533   -3.141636    0.250440
      6          6           0       -4.118693   -2.228881    0.052042
      7          6           0       -1.988088    0.768025   -0.318361
      8          6           0       -2.762345    1.910046   -0.396146
      9          6           0       -4.185403    1.636517   -0.436682
     10          6           0       -4.709758    0.350150   -0.335091
     11          6           0       -0.592127    0.699225   -0.117964
     12          6           0        0.116625    1.846737    0.063715
     13          6           0       -0.612507    3.082910   -0.081037
     14          6           0       -1.996290    3.115009   -0.318291
     15          6           0       -0.488046   -3.492163    0.432732
     16          6           0        0.774342   -2.852958    0.365119
     17          6           0        0.924913   -1.409470    0.233759
     18          6           0       -0.262276   -0.707826    0.104582
     19          6           0        0.142742    4.318108    0.117672
     20          6           0        1.521689    1.709682    0.644150
     21          6           0        2.186786    3.088927    0.952919
     22          6           0        1.400709    4.316666    0.574638
     23          6           0        1.975359   -3.640188    0.312126
     24          6           0        3.162009   -3.071976   -0.013972
     25          6           0        3.309673   -1.654721   -0.240635
     26          6           0        2.221674   -0.773258    0.024254
     27          6           0        2.442133    0.654650   -0.056402
     28          6           0        3.626854    1.073154   -0.648682
     29          6           0        4.525145   -1.154310   -0.746239
     30          6           0        4.653807    0.188977   -1.012982
     31          1           0        5.562360    0.580347   -1.456435
     32          1           0        3.804359    2.127008   -0.810388
     33          1           0        5.337382   -1.843580   -0.950319
     34          1           0        4.045651   -3.690443   -0.132123
     35          1           0        1.904648   -4.712066    0.464048
     36          1           0       -0.502345   -4.571185    0.552830
     37          1           0       -3.358964   -4.182726    0.404009
     38          1           0       -5.140078   -2.595858    0.068060
     39          1           0       -5.788836    0.235682   -0.357109
     40          1           0       -4.881864    2.464085   -0.527450
     41          1           0       -2.481105    4.084669   -0.382336
     42          1           0       -0.353795    5.258647   -0.100269
     43          1           0        1.914634    5.263233    0.717015
     44          1           0        1.333530    1.250208    1.622752
     45          1           0        3.282708    2.819533    1.927980
     46          1           0        3.643224    2.653120    2.552428
 ---------------------------------------------------------------------
 Rotational constants (GHZ):           0.2351345           0.1781895           0.1047193
 Standard basis: 6-311+G(d,p) (5D, 7F)
 There are   786 symmetry adapted cartesian basis functions of A   symmetry.
 There are   756 symmetry adapted basis functions of A   symmetry.
   756 basis functions,  1208 primitive gaussians,   786 cartesian basis functions
    98 alpha electrons       98 beta electrons
       nuclear repulsion energy      2625.7442031590 Hartrees.
 NAtoms=   46 NActive=   46 NUniq=   46 SFac= 1.00D+00 NAtFMM=   60 NAOKFM=F Big=F
 Integral buffers will be    131072 words long.
 Raffenetti 2 integral format.
 Two-electron integral symmetry is turned on.
 One-electron integrals computed using PRISM.
 NBasis=   756 RedAO= T EigKep=  1.26D-06  NBF=   756
 NBsUse=   734 1.00D-06 EigRej=  9.95D-07 NBFU=   734
 ExpMin= 4.38D-02 ExpMax= 4.56D+03 ExpMxC= 6.82D+02 IAcc=2 IRadAn=         4 AccDes= 0.00D+00
 Harris functional with IExCor=  402 and IRadAn=       4 diagonalized for initial guess.
 HarFok:  IExCor=  402 AccDes= 0.00D+00 IRadAn=         4 IDoV= 1 UseB2=F ITyADJ=14
 ICtDFT=  3500011 ScaDFX=  1.000000  1.000000  1.000000  1.000000
 FoFCou: FMM=F IPFlag=           0 FMFlag=      100000 FMFlg1=           0
         NFxFlg=           0 DoJE=T BraDBF=F KetDBF=T FulRan=T
         wScrn=  0.000000 ICntrl=       500 IOpCl=  0 I1Cent=   200000004 NGrid=           0
         NMat0=    1 NMatS0=      1 NMatT0=    0 NMatD0=    1 NMtDS0=    0 NMtDT0=    0
 Petite list used in FoFCou.
 Requested convergence on RMS density matrix=1.00D-08 within 128 cycles.
 Requested convergence on MAX density matrix=1.00D-06.
 Requested convergence on             energy=1.00D-06.
 No special actions if energy rises.
 SCF Done:  E(RB3LYP) =  -1152.92204381     A.U. after   20 cycles
            NFock= 20  Conv=0.14D-08     -V/T= 2.0045
 DoSCS=F DFT=T ScalE2(SS,OS)=  1.000000  1.000000
 Range of M.O.s used for correlation:     1   734
 NBasis=   756 NAE=    98 NBE=    98 NFC=     0 NFV=     0
 NROrb=    734 NOA=    98 NOB=    98 NVA=   636 NVB=   636

 **** Warning!!: The largest alpha MO coefficient is  0.14681813D+03


 **** Warning!!: The smallest alpha delta epsilon is  0.53058511D-01

 Symmetrizing basis deriv contribution to polar:
 IMax=3 JMax=2 DiffMx= 0.00D+00
 G2DrvN: will do    47 centers at a time, making    1 passes.
 Calling FoFCou, ICntrl=  3107 FMM=F I1Cent=   0 AccDes= 0.00D+00.
 End of G2Drv F.D. properties file   721 does not exist.
 End of G2Drv F.D. properties file   722 does not exist.
 End of G2Drv F.D. properties file   788 does not exist.
          IDoAtm=1111111111111111111111111111111111111111111111
          Differentiating once with respect to nuclear coordinates.
 CalDSu exits because no D1Ps are significant.
          There are   141 degrees of freedom in the 1st order CPHF.  IDoFFX=6 NUNeed=     0.
    135 vectors produced by pass  0 Test12= 6.23D-14 1.00D-09 XBig12= 3.06D-01 1.78D-01.
 AX will form   135 AO Fock derivatives at one time.
    135 vectors produced by pass  1 Test12= 6.23D-14 1.00D-09 XBig12= 1.01D-01 6.19D-02.
    135 vectors produced by pass  2 Test12= 6.23D-14 1.00D-09 XBig12= 1.05D-03 4.42D-03.
    135 vectors produced by pass  3 Test12= 6.23D-14 1.00D-09 XBig12= 7.14D-06 3.08D-04.
    135 vectors produced by pass  4 Test12= 6.23D-14 1.00D-09 XBig12= 2.78D-08 1.54D-05.
    135 vectors produced by pass  5 Test12= 6.23D-14 1.00D-09 XBig12= 1.14D-10 9.12D-07.
    111 vectors produced by pass  6 Test12= 6.23D-14 1.00D-09 XBig12= 2.20D-11 6.32D-07.
     80 vectors produced by pass  7 Test12= 6.23D-14 1.00D-09 XBig12= 2.87D-12 8.80D-08.
     36 vectors produced by pass  8 Test12= 6.23D-14 1.00D-09 XBig12= 1.21D-13 2.12D-08.
      5 vectors produced by pass  9 Test12= 6.23D-14 1.00D-09 XBig12= 1.03D-15 1.83D-09.
      4 vectors produced by pass 10 Test12= 6.23D-14 1.00D-09 XBig12= 3.24D-16 1.42D-09.
      2 vectors produced by pass 11 Test12= 6.23D-14 1.00D-09 XBig12= 3.94D-16 1.35D-09.
      1 vectors produced by pass 12 Test12= 6.23D-14 1.00D-09 XBig12= 2.56D-16 1.14D-09.
 InvSVY:  IOpt=1 It=  1 EMax= 6.66D-16
 Solved reduced A of dimension  1049 with   141 vectors.
 End of Minotr F.D. properties file   721 does not exist.
 End of Minotr F.D. properties file   722 does not exist.
 End of Minotr F.D. properties file   788 does not exist.

 **********************************************************************

            Population analysis using the SCF Density.

 **********************************************************************

 Orbital symmetries:
       Occupied  (A) (A) (A) (A) (A) (A) (A) (A) (A) (A) (A) (A)
                 (A) (A) (A) (A) (A) (A) (A) (A) (A) (A) (A) (A)
                 (A) (A) (A) (A) (A) (A) (A) (A) (A) (A) (A) (A)
                 (A) (A) (A) (A) (A) (A) (A) (A) (A) (A) (A) (A)
                 (A) (A) (A) (A) (A) (A) (A) (A) (A) (A) (A) (A)
                 (A) (A) (A) (A) (A) (A) (A) (A) (A) (A) (A) (A)
                 (A) (A) (A) (A) (A) (A) (A) (A) (A) (A) (A) (A)
                 (A) (A) (A) (A) (A) (A) (A) (A) (A) (A) (A) (A)
                 (A) (A)
       Virtual   (A) (A) (A) (A) (A) (A) (A) (A) (A) (A) (A) (A)
                 (A) (A) (A) (A) (A) (A) (A) (A) (A) (A) (A) (A)
                 (A) (A) (A) (A) (A) (A) (A) (A) (A) (A) (A) (A)
                 (A) (A) (A) (A) (A) (A) (A) (A) (A) (A) (A) (A)
                 (A) (A) (A) (A) (A) (A) (A) (A) (A) (A) (A) (A)
                 (A) (A) (A) (A) (A) (A) (A) (A) (A) (A) (A) (A)
                 (A) (A) (A) (A) (A) (A) (A) (A) (A) (A) (A) (A)
                 (A) (A) (A) (A) (A) (A) (A) (A) (A) (A) (A) (A)
                 (A) (A) (A) (A) (A) (A) (A) (A) (A) (A) (A) (A)
                 (A) (A) (A) (A) (A) (A) (A) (A) (A) (A) (A) (A)
                 (A) (A) (A) (A) (A) (A) (A) (A) (A) (A) (A) (A)
                 (A) (A) (A) (A) (A) (A) (A) (A) (A) (A) (A) (A)
                 (A) (A) (A) (A) (A) (A) (A) (A) (A) (A) (A) (A)
                 (A) (A) (A) (A) (A) (A) (A) (A) (A) (A) (A) (A)
                 (A) (A) (A) (A) (A) (A) (A) (A) (A) (A) (A) (A)
                 (A) (A) (A) (A) (A) (A) (A) (A) (A) (A) (A) (A)
                 (A) (A) (A) (A) (A) (A) (A) (A) (A) (A) (A) (A)
                 (A) (A) (A) (A) (A) (A) (A) (A) (A) (A) (A) (A)
                 (A) (A) (A) (A) (A) (A) (A) (A) (A) (A) (A) (A)
                 (A) (A) (A) (A) (A) (A) (A) (A) (A) (A) (A) (A)
                 (A) (A) (A) (A) (A) (A) (A) (A) (A) (A) (A) (A)
                 (A) (A) (A) (A) (A) (A) (A) (A) (A) (A) (A) (A)
                 (A) (A) (A) (A) (A) (A) (A) (A) (A) (A) (A) (A)
                 (A) (A) (A) (A) (A) (A) (A) (A) (A) (A) (A) (A)
                 (A) (A) (A) (A) (A) (A) (A) (A) (A) (A) (A) (A)
                 (A) (A) (A) (A) (A) (A) (A) (A) (A) (A) (A) (A)
                 (A) (A) (A) (A) (A) (A) (A) (A) (A) (A) (A) (A)
                 (A) (A) (A) (A) (A) (A) (A) (A) (A) (A) (A) (A)
                 (A) (A) (A) (A) (A) (A) (A) (A) (A) (A) (A) (A)
                 (A) (A) (A) (A) (A) (A) (A) (A) (A) (A) (A) (A)
                 (A) (A) (A) (A) (A) (A) (A) (A) (A) (A) (A) (A)
                 (A) (A) (A) (A) (A) (A) (A) (A) (A) (A) (A) (A)
                 (A) (A) (A) (A) (A) (A) (A) (A) (A) (A) (A) (A)
                 (A) (A) (A) (A) (A) (A) (A) (A) (A) (A) (A) (A)
                 (A) (A) (A) (A) (A) (A) (A) (A) (A) (A) (A) (A)
                 (A) (A) (A) (A) (A) (A) (A) (A) (A) (A) (A) (A)
                 (A) (A) (A) (A) (A) (A) (A) (A) (A) (A) (A) (A)
                 (A) (A) (A) (A) (A) (A) (A) (A) (A) (A) (A) (A)
                 (A) (A) (A) (A) (A) (A) (A) (A) (A) (A) (A) (A)
                 (A) (A) (A) (A) (A) (A) (A) (A) (A) (A) (A) (A)
                 (A) (A) (A) (A) (A) (A) (A) (A) (A) (A) (A) (A)
                 (A) (A) (A) (A) (A) (A) (A) (A) (A) (A) (A) (A)
                 (A) (A) (A) (A) (A) (A) (A) (A) (A) (A) (A) (A)
                 (A) (A) (A) (A) (A) (A) (A) (A) (A) (A) (A) (A)
                 (A) (A) (A) (A) (A) (A) (A) (A) (A) (A) (A) (A)
                 (A) (A) (A) (A) (A) (A) (A) (A) (A) (A) (A) (A)
                 (A) (A) (A) (A) (A) (A) (A) (A) (A) (A) (A) (A)
                 (A) (A) (A) (A) (A) (A) (A) (A) (A) (A) (A) (A)
                 (A) (A) (A) (A) (A) (A) (A) (A) (A) (A) (A) (A)
                 (A) (A) (A) (A) (A) (A) (A) (A) (A) (A) (A) (A)
                 (A) (A) (A) (A) (A) (A) (A) (A) (A) (A) (A) (A)
                 (A) (A) (A) (A) (A) (A) (A) (A) (A) (A) (A) (A)
                 (A) (A) (A) (A) (A) (A) (A) (A) (A) (A) (A) (A)
 The electronic state is 1-A.
 Alpha  occ. eigenvalues --  -10.21792 -10.21322 -10.21280 -10.20952 -10.20947
 Alpha  occ. eigenvalues --  -10.20673 -10.20671 -10.20472 -10.20436 -10.20364
 Alpha  occ. eigenvalues --  -10.20298 -10.20198 -10.20101 -10.20075 -10.19983
 Alpha  occ. eigenvalues --  -10.19939 -10.19849 -10.19671 -10.19481 -10.19236
 Alpha  occ. eigenvalues --  -10.19000 -10.18946 -10.18537 -10.18463 -10.18169
 Alpha  occ. eigenvalues --  -10.18051 -10.17948 -10.17856 -10.17563 -10.17511
 Alpha  occ. eigenvalues --   -0.93389  -0.89245  -0.88670  -0.85936  -0.84398
 Alpha  occ. eigenvalues --   -0.84057  -0.80875  -0.80317  -0.79374  -0.77620
 Alpha  occ. eigenvalues --   -0.75665  -0.75138  -0.73284  -0.71985  -0.71217
 Alpha  occ. eigenvalues --   -0.67000  -0.65866  -0.64198  -0.63724  -0.63365
 Alpha  occ. eigenvalues --   -0.60647  -0.59980  -0.59428  -0.56817  -0.55826
 Alpha  occ. eigenvalues --   -0.53338  -0.52674  -0.51520  -0.51252  -0.50514
 Alpha  occ. eigenvalues --   -0.49596  -0.48267  -0.48029  -0.46648  -0.45779
 Alpha  occ. eigenvalues --   -0.45324  -0.44910  -0.44425  -0.44232  -0.43668
 Alpha  occ. eigenvalues --   -0.43305  -0.43107  -0.41800  -0.41500  -0.41229
 Alpha  occ. eigenvalues --   -0.40869  -0.40693  -0.39274  -0.38875  -0.38086
 Alpha  occ. eigenvalues --   -0.37559  -0.36313  -0.35735  -0.35088  -0.34917
 Alpha  occ. eigenvalues --   -0.34785  -0.33783  -0.33444  -0.33244  -0.30849
 Alpha  occ. eigenvalues --   -0.29843  -0.28632  -0.26708  -0.25070  -0.23846
 Alpha  occ. eigenvalues --   -0.22972  -0.21422  -0.17307
 Alpha virt. eigenvalues --   -0.12001  -0.09452  -0.06421  -0.04913  -0.03333
 Alpha virt. eigenvalues --   -0.01385  -0.00648  -0.00224   0.00293   0.00581
 Alpha virt. eigenvalues --    0.00646   0.01332   0.01660   0.01899   0.02756
 Alpha virt. eigenvalues --    0.03037   0.03260   0.03475   0.04067   0.04437
 Alpha virt. eigenvalues --    0.04504   0.04680   0.05121   0.05515   0.06002
 Alpha virt. eigenvalues --    0.06338   0.06716   0.06810   0.06960   0.07502
 Alpha virt. eigenvalues --    0.07992   0.08410   0.08565   0.08858   0.08982
 Alpha virt. eigenvalues --    0.09402   0.09533   0.10115   0.10160   0.10682
 Alpha virt. eigenvalues --    0.10987   0.11528   0.11844   0.12110   0.12753
 Alpha virt. eigenvalues --    0.12970   0.13018   0.13744   0.14060   0.14297
 Alpha virt. eigenvalues --    0.14352   0.14770   0.14884   0.15276   0.15653
 Alpha virt. eigenvalues --    0.15829   0.15967   0.16005   0.16243   0.16303
 Alpha virt. eigenvalues --    0.16445   0.17054   0.17247   0.17438   0.17723
 Alpha virt. eigenvalues --    0.17990   0.18178   0.18335   0.18592   0.18871
 Alpha virt. eigenvalues --    0.19098   0.19328   0.19421   0.19497   0.19751
 Alpha virt. eigenvalues --    0.19878   0.20024   0.20400   0.20608   0.20760
 Alpha virt. eigenvalues --    0.20878   0.21144   0.21412   0.21546   0.21842
 Alpha virt. eigenvalues --    0.22178   0.22403   0.22737   0.22964   0.23001
 Alpha virt. eigenvalues --    0.23341   0.23466   0.23642   0.24130   0.24220
 Alpha virt. eigenvalues --    0.24616   0.24714   0.24922   0.25131   0.25178
 Alpha virt. eigenvalues --    0.25495   0.25748   0.25935   0.26182   0.26462
 Alpha virt. eigenvalues --    0.26688   0.26749   0.27338   0.27670   0.27911
 Alpha virt. eigenvalues --    0.28344   0.28611   0.28797   0.28952   0.29205
 Alpha virt. eigenvalues --    0.29707   0.29778   0.30182   0.30404   0.30476
 Alpha virt. eigenvalues --    0.30760   0.31103   0.31410   0.32103   0.32394
 Alpha virt. eigenvalues --    0.32579   0.32720   0.33242   0.33370   0.33773
 Alpha virt. eigenvalues --    0.34345   0.34460   0.34623   0.35216   0.35337
 Alpha virt. eigenvalues --    0.36120   0.36430   0.36923   0.37175   0.38101
 Alpha virt. eigenvalues --    0.38535   0.38825   0.39455   0.39901   0.40476
 Alpha virt. eigenvalues --    0.40977   0.41249   0.42061   0.42381   0.42756
 Alpha virt. eigenvalues --    0.43380   0.44154   0.44496   0.45221   0.45917
 Alpha virt. eigenvalues --    0.46962   0.47257   0.48223   0.49105   0.49269
 Alpha virt. eigenvalues --    0.49932   0.50397   0.50411   0.51710   0.52222
 Alpha virt. eigenvalues --    0.52651   0.52777   0.53204   0.53375   0.54057
 Alpha virt. eigenvalues --    0.54140   0.54896   0.54976   0.55818   0.56104
 Alpha virt. eigenvalues --    0.56389   0.57124   0.57509   0.57675   0.57952
 Alpha virt. eigenvalues --    0.58274   0.58352   0.58721   0.59282   0.59633
 Alpha virt. eigenvalues --    0.60144   0.60359   0.60546   0.61120   0.61710
 Alpha virt. eigenvalues --    0.61959   0.62511   0.62680   0.63104   0.63568
 Alpha virt. eigenvalues --    0.63891   0.64527   0.65018   0.65221   0.65842
 Alpha virt. eigenvalues --    0.66142   0.66517   0.67137   0.67304   0.67571
 Alpha virt. eigenvalues --    0.67763   0.68180   0.68987   0.69108   0.69396
 Alpha virt. eigenvalues --    0.69698   0.70289   0.70600   0.70713   0.71063
 Alpha virt. eigenvalues --    0.71470   0.71577   0.71717   0.72269   0.72821
 Alpha virt. eigenvalues --    0.73394   0.73915   0.74276   0.74465   0.74756
 Alpha virt. eigenvalues --    0.74923   0.75242   0.75610   0.76038   0.76780
 Alpha virt. eigenvalues --    0.77162   0.77721   0.77905   0.78471   0.79609
 Alpha virt. eigenvalues --    0.80758   0.81322   0.81678   0.82210   0.82369
 Alpha virt. eigenvalues --    0.83108   0.83799   0.84379   0.85647   0.86296
 Alpha virt. eigenvalues --    0.86705   0.87245   0.87388   0.88093   0.88280
 Alpha virt. eigenvalues --    0.88965   0.89951   0.90365   0.90601   0.90918
 Alpha virt. eigenvalues --    0.91512   0.91902   0.92402   0.92881   0.93353
 Alpha virt. eigenvalues --    0.93505   0.93987   0.94087   0.94374   0.94872
 Alpha virt. eigenvalues --    0.95106   0.95345   0.95683   0.95707   0.96447
 Alpha virt. eigenvalues --    0.97009   0.97716   0.98149   0.99434   0.99992
 Alpha virt. eigenvalues --    1.00164   1.00634   1.01707   1.01928   1.02188
 Alpha virt. eigenvalues --    1.02382   1.03076   1.03820   1.04222   1.04987
 Alpha virt. eigenvalues --    1.05145   1.05843   1.06822   1.07226   1.07502
 Alpha virt. eigenvalues --    1.08651   1.09401   1.10726   1.11130   1.11800
 Alpha virt. eigenvalues --    1.12367   1.12770   1.13219   1.14403   1.14815
 Alpha virt. eigenvalues --    1.15212   1.16197   1.16782   1.17398   1.17634
 Alpha virt. eigenvalues --    1.20565   1.20979   1.22131   1.23688   1.24911
 Alpha virt. eigenvalues --    1.25421   1.27285   1.28649   1.30001   1.30642
 Alpha virt. eigenvalues --    1.31818   1.34129   1.34323   1.34618   1.36943
 Alpha virt. eigenvalues --    1.38158   1.38874   1.39502   1.40158   1.40894
 Alpha virt. eigenvalues --    1.42299   1.42562   1.43192   1.44606   1.44794
 Alpha virt. eigenvalues --    1.46155   1.46222   1.46684   1.47117   1.47986
 Alpha virt. eigenvalues --    1.48476   1.48985   1.49297   1.50315   1.51032
 Alpha virt. eigenvalues --    1.51211   1.51774   1.52561   1.52815   1.53406
 Alpha virt. eigenvalues --    1.55092   1.55205   1.56014   1.56743   1.57135
 Alpha virt. eigenvalues --    1.57341   1.57819   1.58730   1.59806   1.60613
 Alpha virt. eigenvalues --    1.61451   1.62028   1.63210   1.63963   1.64717
 Alpha virt. eigenvalues --    1.64911   1.66092   1.66229   1.67364   1.68325
 Alpha virt. eigenvalues --    1.69223   1.69318   1.71054   1.72226   1.72623
 Alpha virt. eigenvalues --    1.72666   1.73079   1.74131   1.74644   1.75393
 Alpha virt. eigenvalues --    1.75911   1.76620   1.76927   1.77049   1.77900
 Alpha virt. eigenvalues --    1.78333   1.79276   1.80672   1.81256   1.82176
 Alpha virt. eigenvalues --    1.82822   1.83338   1.83558   1.84374   1.84926
 Alpha virt. eigenvalues --    1.86026   1.86179   1.86987   1.87464   1.87714
 Alpha virt. eigenvalues --    1.88356   1.90077   1.90743   1.90768   1.91705
 Alpha virt. eigenvalues --    1.92036   1.92268   1.93112   1.93659   1.93928
 Alpha virt. eigenvalues --    1.94830   1.95402   1.95946   1.96769   1.97337
 Alpha virt. eigenvalues --    1.97595   1.98038   1.98694   1.99307   2.00220
 Alpha virt. eigenvalues --    2.00587   2.01315   2.03124   2.03631   2.04377
 Alpha virt. eigenvalues --    2.04743   2.05641   2.06378   2.07443   2.07845
 Alpha virt. eigenvalues --    2.08408   2.09098   2.10502   2.11004   2.11855
 Alpha virt. eigenvalues --    2.12354   2.12554   2.14449   2.15039   2.15389
 Alpha virt. eigenvalues --    2.17113   2.17376   2.18163   2.18871   2.19441
 Alpha virt. eigenvalues --    2.20193   2.21191   2.21397   2.22889   2.23879
 Alpha virt. eigenvalues --    2.25089   2.25819   2.27316   2.28837   2.29387
 Alpha virt. eigenvalues --    2.30003   2.32707   2.33317   2.34650   2.35584
 Alpha virt. eigenvalues --    2.36903   2.38185   2.39602   2.40347   2.41355
 Alpha virt. eigenvalues --    2.42229   2.42873   2.44357   2.45268   2.46701
 Alpha virt. eigenvalues --    2.46940   2.48699   2.50061   2.51998   2.54053
 Alpha virt. eigenvalues --    2.54385   2.55944   2.56297   2.57437   2.57864
 Alpha virt. eigenvalues --    2.59477   2.61357   2.62488   2.62906   2.64631
 Alpha virt. eigenvalues --    2.66120   2.66754   2.67799   2.68772   2.70157
 Alpha virt. eigenvalues --    2.70839   2.71656   2.71870   2.72149   2.72380
 Alpha virt. eigenvalues --    2.72942   2.73061   2.73370   2.74564   2.74797
 Alpha virt. eigenvalues --    2.74910   2.75152   2.75581   2.76183   2.76414
 Alpha virt. eigenvalues --    2.76734   2.77388   2.77739   2.78103   2.78473
 Alpha virt. eigenvalues --    2.79669   2.80178   2.81519   2.82356   2.82894
 Alpha virt. eigenvalues --    2.83374   2.84655   2.85093   2.85830   2.86615
 Alpha virt. eigenvalues --    2.86880   2.87246   2.88855   2.89317   2.89633
 Alpha virt. eigenvalues --    2.91734   2.93091   2.93587   2.94567   2.95739
 Alpha virt. eigenvalues --    2.98025   2.99624   3.00229   3.01474   3.02885
 Alpha virt. eigenvalues --    3.04458   3.05353   3.06813   3.08374   3.09226
 Alpha virt. eigenvalues --    3.10528   3.12491   3.12948   3.13869   3.16185
 Alpha virt. eigenvalues --    3.17453   3.18749   3.19849   3.20666   3.21211
 Alpha virt. eigenvalues --    3.22625   3.23120   3.25323   3.26388   3.27187
 Alpha virt. eigenvalues --    3.30198   3.33462   3.34131   3.35367   3.36254
 Alpha virt. eigenvalues --    3.37794   3.40188   3.40958   3.42781   3.43564
 Alpha virt. eigenvalues --    3.44103   3.46380   3.47165   3.48043   3.48929
 Alpha virt. eigenvalues --    3.49479   3.52641   3.54702   3.56266   3.57614
 Alpha virt. eigenvalues --    3.60418   3.61767   3.62693   3.65928   3.67404
 Alpha virt. eigenvalues --    3.68380   3.70170   3.79926   3.82476   3.82955
 Alpha virt. eigenvalues --    3.87277   3.93205   3.97426   4.02559   4.04654
 Alpha virt. eigenvalues --    4.05247   4.05750   4.07267   4.08842   4.13305
 Alpha virt. eigenvalues --    4.14411   4.18914   4.22488   4.27059   4.32520
 Alpha virt. eigenvalues --    4.35597   4.43557   4.60675   4.63256   4.72249
 Alpha virt. eigenvalues --    4.75938   4.78102   4.81415   4.82711   4.84440
 Alpha virt. eigenvalues --    4.88106  23.38600  23.60491  23.63870  23.72274
 Alpha virt. eigenvalues --   23.75965  23.79400  23.81151  23.83590  23.84942
 Alpha virt. eigenvalues --   23.87956  23.89492  23.91911  23.93531  23.94897
 Alpha virt. eigenvalues --   23.96750  23.98260  24.00929  24.04074  24.04758
 Alpha virt. eigenvalues --   24.08065  24.08963  24.10002  24.10496  24.11267
 Alpha virt. eigenvalues --   24.14835  24.18269  24.19504  24.20969  24.21488
 Alpha virt. eigenvalues --   24.22360
          Condensed to atoms (all electrons):
               1          2          3          4          5          6
     1  C   10.625882   0.125089   0.275748   1.248244  -0.915674  -2.003137
     2  C    0.125089   8.129177   0.376847   0.387348   0.730616   1.394317
     3  C    0.275748   0.376847   7.612666   0.461613   0.944958   0.068635
     4  C    1.248244   0.387348   0.461613  11.147747  -1.931513  -1.078979
     5  C   -0.915674   0.730616   0.944958  -1.931513  10.119054   2.305094
     6  C   -2.003137   1.394317   0.068635  -1.078979   2.305094   9.587289
     7  C    0.272805  -0.231798  -0.356695   0.488909  -0.810201  -0.795551
     8  C   -0.149580   0.258231   0.176064   0.305083  -0.163402   0.075783
     9  C    0.315216  -1.126119   1.398435  -1.487282  -0.194727  -0.636537
    10  C    0.004501  -1.252398  -1.061566  -1.675144  -0.575786  -1.366254
    11  C   -0.413683   0.537595  -0.725285   0.212504  -0.285955   0.045410
    12  C   -0.171443  -0.252380  -0.317306  -0.013506  -0.161511  -0.209233
    13  C    0.108830  -0.323654  -0.630614  -0.322451  -0.171794  -0.067128
    14  C   -0.066274  -0.125680  -0.536702  -0.703890  -0.058551  -0.027117
    15  C    1.807994   0.160501  -0.011384  -0.389788  -0.209131  -0.141849
    16  C   -1.757414  -0.987248  -0.553891  -0.453742  -1.019203  -0.347982
    17  C   -1.054696   0.880195  -0.021815  -0.289236  -0.120113   0.209797
    18  C    0.502344  -0.432471  -0.564601   0.342800  -0.770543  -0.715716
    19  C    0.055931  -0.083795   0.217994  -0.119817  -0.033893  -0.020404
    20  C   -0.059641   0.194673  -0.523348   0.062546   0.047016   0.029414
    21  C   -0.036981   0.107311   0.009895   0.020851   0.001076  -0.012508
    22  C    0.004601  -0.092544  -0.071924  -0.050935   0.001809   0.000974
    23  C   -1.427178  -1.089657  -0.057840  -0.186717  -0.291761  -0.203488
    24  C    0.044549  -0.156479   0.007861  -0.014332  -0.110497  -0.036137
    25  C   -0.173805  -0.538999   0.186570  -0.106593   0.062142   0.018416
    26  C   -1.259627  -0.051375  -0.469696   0.047826  -0.357109  -0.106411
    27  C   -0.157986  -0.177591   0.010255  -0.054666  -0.030696  -0.013773
    28  C    0.016268  -0.036365   0.028534   0.000844  -0.002317   0.005105
    29  C   -0.135502  -0.328277   0.026027  -0.020340  -0.000037   0.001691
    30  C    0.003172   0.004919   0.007559   0.000530  -0.004197  -0.000540
    31  H   -0.000004   0.000004  -0.000016  -0.000000  -0.000000   0.000000
    32  H   -0.000073  -0.000457  -0.000249   0.000004  -0.000006  -0.000001
    33  H    0.000624   0.000215   0.000025  -0.000000   0.000040   0.000003
    34  H    0.001282  -0.000681   0.000174  -0.000001   0.000122  -0.000003
    35  H    0.043180   0.004826   0.001195  -0.000010   0.007043   0.000758
    36  H   -0.017633   0.029386  -0.007429   0.005357   0.004489   0.003468
    37  H   -0.129603   0.024226  -0.000082  -0.029716   0.411903   0.002395
    38  H   -0.004716   0.005975   0.025895  -0.104500  -0.002115   0.399865
    39  H    0.007390  -0.017042   0.035297  -0.095260   0.003965   0.005775
    40  H    0.001540  -0.006115  -0.004016  -0.049271  -0.001527  -0.002856
    41  H   -0.000159   0.004040  -0.009046   0.012093   0.000144   0.000522
    42  H    0.000002  -0.000139  -0.000195   0.000064   0.000010  -0.000004
    43  H    0.000017  -0.000045  -0.000058   0.000030   0.000003   0.000002
[...]
 2636,-0.00002210,-0.00000050,-0.00001799,0.00004741,-0.00000094,0.0000
 1944,-0.00000211,-0.00001842,-0.00001029,0.00000863,0.00000612,0.00004
 417,0.00001809,-0.00000042,-0.00000093,0.00000421,-0.00000079,0.000003
 12,0.00001132,-0.00000456,0.00000309,-0.00000355,-0.00000089,0.0000036
 6,-0.00000653,-0.00000155,0.00000291,-0.00000523,0.00000450,-0.0000086
 2,-0.00001121,-0.00000325,-0.00001264,-0.00002550,-0.00001836,-0.00000
 952,0.00001443,-0.00000631,0.00002424,-0.00000296,-0.00019029,0.000367
 78,0.00039151,0.00181559,0.11537381,0.00001739,-0.00001478,0.00000651,
 0.00001301,-0.00002305,-0.00000521,0.00002055,0.00006842,-0.00004598,-
 0.00009278,0.00003574,-0.00000435,-0.00002042,-0.00000884,-0.00000320,
 0.00001848,-0.00000522,0.00001038,-0.00011325,-0.00004905,-0.00005480,
 -0.00006147,-0.00004494,0.00010321,0.00009457,0.00004273,0.00005465,0.
 00000132,-0.00010214,0.00000252,-0.00003247,0.00018755,0.00011041,0.00
 040605,0.00030523,0.00017535,0.00105288,0.00133125,-0.00076824,0.00014
 278,0.00002385,-0.00019863,-0.00001579,-0.00000314,0.00000147,-0.00001
 425,0.00001135,-0.00000162,0.00001336,0.00000428,0.00000316,0.00001261
 ,0.00003744,0.00002127,0.00118038,0.00332993,0.00086557,0.00285725,-0.
 00196536,-0.00021486,-0.00666114,-0.02466504,-0.00360384,-0.10773038,-
 0.25610801,-0.04699414,-0.00000123,0.00000124,0.00000427,0.00003347,0.
 00000148,-0.00000035,-0.00005952,-0.00006765,0.00000341,0.00029612,-0.
 00007559,-0.00015069,-0.00076673,-0.00040946,0.00046084,-0.00001064,-0
 .00003177,-0.00003856,0.00002274,-0.00001600,-0.00001869,0.00002265,0.
 00002268,0.00000761,0.00003434,-0.00001149,-0.00000736,0.00000734,-0.0
 0003491,-0.00000887,0.00000761,-0.00000962,-0.00000502,0.00000776,-0.0
 0001647,-0.00000088,-0.00000312,-0.00000893,-0.00000153,-0.00000123,-0
 .00000847,-0.00000073,-0.00000062,-0.00000738,-0.00000158,-0.00000842,
 -0.00000526,-0.00000221,-0.00000715,-0.00000540,-0.00000749,-0.0000084
 2,0.00000736,-0.00000719,-0.00000088,-0.00001279,-0.00004214,-0.000311
 46,0.00074283,0.00039606,0.11055893,0.27770716,-0.00009746,-0.00004956
 ,0.00000028,-0.00007551,0.00016854,-0.00000818,-0.00013844,-0.00047243
 ,0.00015708,0.00028786,-0.00011973,0.00001142,0.00020951,0.00011523,0.
 00003139,-0.00015203,0.00007354,-0.00004506,0.00073356,0.00033621,0.00
 013452,-0.00023310,0.00020206,-0.00067191,-0.00024408,-0.00012680,-0.0
 0013530,-0.00010170,0.00034645,-0.00000171,-0.00049205,-0.00050753,-0.
 00064033,0.00112493,0.00105634,-0.00003847,-0.00379068,0.00058735,0.00
 520613,-0.00014466,-0.00064644,0.00043267,0.00005541,-0.00004140,-0.00
 000756,-0.00006210,-0.00005403,0.00000951,0.00008218,0.00006975,-0.000
 04485,-0.00003697,0.00007741,-0.00001864,-0.00253946,-0.00965970,0.004
 38853,-0.00143569,0.00179534,0.00823304,0.00499640,-0.00340308,-0.0009
 5984,-0.03186089,-0.03795806,-0.04912262,0.00003294,-0.00008509,0.0000
 0779,-0.00007146,0.00005029,-0.00000623,0.00003274,0.00002213,-0.00003
 394,-0.00004848,0.00011726,-0.00003290,0.00043782,0.00055869,-0.000225
 30,0.00030964,-0.00013574,-0.00019974,0.00007444,-0.00011928,-0.000014
 35,-0.00020048,-0.00012476,0.00006041,0.00002881,-0.00000479,-0.000013
 31,-0.00031320,0.00003089,0.00025314,0.00000893,-0.00003982,0.00002215
 ,0.00000203,-0.00000605,0.00000887,-0.00000678,-0.00000022,0.00000263,
 -0.00000423,0.00000449,0.00000020,-0.00000778,-0.00000004,-0.00000609,
 0.00000621,0.00001495,0.00000374,0.00000621,0.00000856,0.00001448,-0.0
 0000782,-0.00000742,0.00000932,-0.00010456,0.00008519,0.00018137,0.001
 74818,-0.00019451,-0.00344567,0.03110269,0.05052478,0.03708843,0.00006
 857,-0.00010784,-0.00000011,-0.00059215,0.00018369,0.00004441,0.000199
 50,-0.00070157,-0.00013343,0.00023497,0.00002384,-0.00000308,0.0000278
 0,-0.00009663,-0.00000494,0.00007713,0.00004825,0.00005332,0.00164350,
 0.00059482,0.00107637,0.00014432,0.00122972,-0.00021534,-0.00010226,-0
 .00028302,-0.00005492,-0.00022202,0.00024254,-0.00007845,-0.00108298,-
 0.00066474,-0.00004591,-0.00940993,0.01019363,-0.03081685,-0.00042051,
 0.00070010,-0.00032472,-0.00178460,-0.00054994,0.00044820,-0.00013634,
 -0.00004655,-0.00001494,0.00017000,-0.00001656,0.00006105,0.00043752,-
 0.00012970,0.00029847,0.00008491,0.00058742,-0.00035530,-0.00113834,-0
 .00021623,0.00010169,-0.02950253,-0.00704310,0.01048060,-0.00207660,-0
 .00265308,0.01088922,-0.00066919,-0.00094376,0.00010045,-0.00007984,0.
 00006631,-0.00000240,0.00011947,-0.00001336,-0.00001529,-0.00083326,-0
 .00016987,-0.00016715,0.00067674,-0.00107556,-0.00038180,-0.00358620,0
 .00120257,0.01860617,-0.00102856,0.00148437,0.00046943,0.00005743,0.00
 050818,-0.00002032,-0.00040724,-0.00034935,-0.00111700,-0.00006971,0.0
 0004131,0.00012264,0.00012762,0.00006498,0.00067825,0.00006137,0.00002
 975,0.00011144,-0.00000269,-0.00001474,0.00000596,0.00000331,0.0000006
 0,-0.00000500,0.00000646,-0.00000479,-0.00000727,0.00000870,-0.0000066
 0,-0.00000549,-0.00000642,-0.00000640,-0.00000927,-0.00000122,-0.00000
 709,-0.00000470,-0.00001323,0.00000274,-0.00000469,-0.00011220,0.00001
 099,0.00018671,0.00008908,-0.00005261,0.00005720,0.00019664,-0.0001636
 9,-0.00079977,0.04924977,-0.00022678,0.00007621,-0.00006198,-0.0003640
 0,-0.00013713,0.00015654,-0.00009595,-0.00027640,-0.00008127,0.0002522
 4,-0.00020604,0.00006711,0.00012608,-0.00011547,0.00000488,0.00003573,
 0.00014210,0.00000803,0.00124159,-0.00001218,0.00035661,0.00028261,0.0
 0095359,-0.00001391,-0.00015515,-0.00024900,-0.00001062,-0.00009517,0.
 00031926,-0.00006774,-0.00223117,-0.00037235,-0.00078944,0.00122199,0.
 00300588,-0.00040858,0.00157621,-0.00003106,-0.00036420,-0.00091215,-0
 .00055270,-0.00006863,0.00013337,0.00010465,0.00000017,-0.00002792,-0.
 00045836,0.00014797,0.00016603,0.00027936,-0.00006730,-0.00021488,0.00
 051753,0.00037896,-0.00199406,-0.00006099,0.00098512,-0.00527167,-0.05
 610752,0.06747131,-0.00200274,-0.00533521,0.02492851,0.00014954,-0.002
 03988,-0.00000495,-0.00007897,0.00001644,0.00002430,-0.00005019,0.0001
 8481,-0.00000769,0.00043588,0.00038546,0.00040532,0.00000438,0.0004580
 9,-0.00055684,0.00682403,0.00091941,-0.02391586,0.00063732,-0.00152897
 ,-0.00042836,0.00045926,-0.00019842,-0.00027247,0.00054279,-0.00027753
 ,0.00119663,0.00012334,-0.00005614,-0.00003405,-0.00028040,-0.00018616
 ,-0.00054640,-0.00007101,-0.00003388,-0.00011597,0.00000428,0.00002943
 ,-0.00000969,-0.00001881,-0.00000201,-0.00000965,0.00001251,-0.0000008
 2,-0.00001787,0.00000895,-0.00000311,0.00000371,-0.00000467,-0.0000067
 3,-0.00000397,-0.00000412,-0.00000442,-0.00000069,-0.00000892,0.000000
 78,-0.00000105,0.00002289,-0.00000683,-0.00000865,0.00028242,-0.000097
 95,-0.00002963,0.00042843,-0.00046549,-0.00162717,-0.00019131,0.062471
 87,0.00002886,-0.00030471,0.00005049,0.00032852,0.00028505,-0.00002205
 ,0.00027202,0.00021993,-0.00010613,-0.00016059,-0.00006223,-0.00009110
 ,0.00015500,0.00004115,0.00003247,-0.00007511,0.00011230,0.00000574,-0
 .00075127,0.00009961,0.00049151,0.00019394,0.00007703,-0.00004020,-0.0
 0005815,-0.00006560,-0.00003841,0.00002654,0.00002947,0.00002190,0.001
 51694,0.00158447,0.00266648,-0.00688516,0.00415285,-0.01101845,-0.0004
 3869,-0.00088473,-0.00055194,-0.00030473,0.00015983,-0.00000225,-0.000
 17577,-0.00000211,0.00000256,-0.00002496,0.00035263,0.00001832,-0.0008
 6222,-0.00061844,-0.00046792,0.00014902,-0.00127106,-0.00053984,-0.000
 70184,-0.00030996,-0.00012705,0.00791618,0.05898270,-0.26472770,0.0019
 9805,0.00737072,-0.00414823,0.00153452,-0.00035953,0.00072725,0.000087
 38,-0.00005310,-0.00003247,-0.00008490,-0.00001367,0.00002757,0.000818
 30,-0.00008989,0.00009162,0.00027931,0.00158111,0.00122291,0.00654827,
 -0.00295079,-0.01590987,-0.00001852,-0.00157407,-0.00010586,-0.0001943
 6,-0.00019706,-0.00004836,0.00044570,0.00005631,0.00061389,0.00010673,
 -0.00005531,-0.00002977,-0.00014006,0.00000431,-0.00044409,-0.00004717
 ,-0.00003286,-0.00008640,0.00000577,0.00000748,-0.00000470,-0.00000478
 ,-0.00000348,0.00000085,-0.00000474,-0.00000019,0.00000651,0.00000235,
 -0.00000200,-0.00001028,0.00000017,0.00000885,-0.00000119,0.00000311,-
 0.00000150,-0.00000311,0.00000361,0.00000056,0.00000073,-0.00009308,0.
 00000431,0.00005444,0.00009350,0.00000350,-0.00007583,-0.00013402,0.00
 008297,-0.00017603,-0.00736657,-0.06296587,0.29508488,0.00000575,-0.00
 014604,-0.00001476,0.00007565,0.00017143,-0.00002738,-0.00008332,0.000
 04820,0.00031048,-0.00001343,-0.00010809,-0.00002313,0.00014969,0.0000
 5339,0.00003709,-0.00010173,0.00013741,-0.00006246,0.00015938,-0.00034
 090,0.00011194,-0.00012321,0.00030902,-0.00032658,-0.00013009,-0.00000
 514,-0.00008246,-0.00005329,0.00013108,0.00000451,-0.00038447,0.000564
 83,-0.00119227,0.00201635,-0.00314510,0.00018396,0.00012515,0.00076148
 ,0.00078520,-0.00066933,-0.00007554,0.00018539,-0.00004084,-0.00001974
 ,-0.00000385,0.00004097,0.00000826,-0.00001373,0.00001369,0.00002830,-
 0.00001173,0.00005707,0.00007788,0.00001275,0.00003518,0.00159707,-0.0
 0287775,-0.00849851,-0.00179572,-0.00748827,-0.01784160,0.00104914,0.0
 2139807,-0.00956660,-0.00095407,-0.01517631,-0.00001389,0.00000516,0.0
 0000229,-0.00001896,0.00000939,-0.00002841,-0.00013933,0.00004759,0.00
 005734,0.00015223,-0.00027178,0.00000891,-0.00105795,0.00027992,0.0007
 2637,-0.00036896,0.00036779,0.00054020,-0.00006334,0.00015024,0.000015
 07,0.00027333,0.00025812,-0.00006469,-0.00003333,0.00000305,0.00005640
 ,0.00055623,0.00059440,0.00007657,-0.00000966,0.00005738,-0.00002626,-
 0.00000264,0.00000493,0.00000071,0.00000448,0.00000732,0.00000869,-0.0
 0000310,0.00001140,0.00000271,-0.00000235,0.00000591,0.00000149,0.0000
 1096,0.00000992,-0.00000497,0.00001331,0.00000777,0.00001055,0.0000007
 5,-0.00000880,0.00001318,-0.00002330,0.00002052,0.00006620,-0.00123082
 ,0.00002555,0.00100309,0.00012974,-0.00066166,0.00190423,0.00051001,0.
 00082708,-0.00159279,0.05119118,0.00005315,-0.00005533,-0.00000404,0.0
 0003174,0.00002631,-0.00001324,-0.00004039,0.00006941,0.00005534,-0.00
 005688,0.00003272,-0.00003285,-0.00001046,0.00000455,0.00000101,0.0000
 0190,-0.00000130,-0.00000498,-0.00007418,-0.00016713,0.00006469,-0.000
 12613,-0.00008014,-0.00006834,0.00006641,0.00004709,-0.00001459,-0.000
 02587,-0.00006836,0.00001840,-0.00044049,0.00043299,-0.00031736,0.0003
 0056,-0.00208725,-0.00008458,-0.00018360,-0.00021090,-0.00020084,0.000
 08889,0.00011471,0.00007620,-0.00005436,-0.00001718,0.00000064,0.00004
 826,0.00002860,-0.00000573,-0.00005326,0.00000056,-0.00000821,0.000036
 04,0.00009244,-0.00000467,0.00100537,-0.00105745,-0.00021903,-0.009829
 17,-0.00136105,-0.00368719,0.00353962,-0.01959303,0.01174515,0.0100731
 6,0.00151040,0.00076010,-0.00004008,0.00004838,-0.00001128,0.00003099,
 -0.00001208,-0.00001208,-0.00014459,0.00005362,0.00006232,0.00005854,-
 0.00023658,0.00010259,-0.00049064,0.00066490,0.00007776,0.00014308,0.0
 0008866,-0.00005994,0.00005348,0.00016470,-0.00004960,0.00022582,-0.00
 006186,-0.00007647,-0.00000177,-0.00001428,-0.00000650,0.00021044,-0.0
 0034584,-0.00063148,-0.00000170,0.00002798,-0.00000829,-0.00000010,0.0
 0000615,-0.00000016,0.00000654,0.00000176,0.00000431,-0.00000004,0.000
 00237,0.00000187,-0.00000098,0.00000103,0.00000257,0.00000158,-0.00000
 147,-0.00000050,0.00000284,-0.00000081,0.00000291,-0.00000409,-0.00000
 055,0.00000002,-0.00003400,0.00001460,0.00000781,0.00006175,-0.0000373
 0,0.00088490,0.00045086,-0.00000621,0.00034073,-0.00058681,-0.00022058
 ,-0.00111795,-0.00252109,0.03838813,0.00025533,-0.00010016,-0.00000720
 ,0.00017488,0.00004309,-0.00007695,0.00013226,0.00048909,0.00056559,-0
 .00033111,0.00031873,-0.00010526,-0.00024353,-0.00000770,-0.00001988,0
 .00015455,-0.00014128,-0.00005950,-0.00059303,0.00015865,-0.00005371,-
 0.00043459,-0.00073851,-0.00058691,0.00037578,0.00018289,-0.00003329,0
 .00000733,-0.00043449,0.00011585,0.00182074,0.00028785,-0.00177985,0.0
 0211723,0.00164598,-0.00041616,-0.00186125,-0.00007857,0.00076514,0.00
 077798,-0.00000169,0.00042245,-0.00020153,0.00004167,-0.00000441,0.000
 23328,0.00011931,-0.00001949,-0.00023671,0.00002297,0.00009289,0.00014
 858,-0.00005107,0.00000998,0.00363645,0.00169505,-0.00017811,-0.000428
 32,-0.01128145,-0.00028339,0.03230083,0.01252923,0.06394140,-0.0049097
 8,0.00546850,-0.01734001,-0.00013437,0.00022792,-0.00002570,0.00010841
 ,-0.00005644,-0.00007966,-0.00042437,0.00022331,0.00025488,0.00016837,
 -0.00060787,0.00000988,-0.00182394,0.00091050,0.00007546,-0.00079372,0
 .00014925,0.00132063,-0.00010070,0.00062761,-0.00021818,0.00087666,0.0
 0039153,-0.00025194,-0.00003652,-0.00004527,0.00015965,0.00131650,-0.0
 0084956,-0.00189919,-0.00003279,0.00019728,-0.00003471,-0.00001516,0.0
 0003987,0.00001381,0.00002686,0.00002616,0.00002017,0.00000158,0.00002
 289,0.00001151,0.00000804,0.00002067,0.00001873,0.00002132,0.00000679,
 -0.00000009,0.00001669,-0.00000700,0.00002061,0.00001843,-0.00000352,0
 .00002233,0.00002346,0.00001721,0.00020766,-0.00049011,-0.00026059,0.0
 0314176,0.00038490,-0.00216673,0.00024348,0.00042238,0.00001276,-0.003
 37767,-0.02399455,0.00347136,0.06550382,0.00029951,0.00015918,0.000033
 51,-0.00008764,-0.00042419,0.00000717,0.00003019,0.00034124,-0.0000247
 7,-0.00035660,0.00064950,-0.00007348,-0.00058577,-0.00008376,-0.000098
 46,0.00036871,-0.00049385,0.00006949,-0.00096441,0.00043626,-0.0001638
 2,-0.00052599,-0.00165051,0.00002727,0.00088311,0.00024660,0.00010888,
 0.00003178,-0.00086437,0.00012904,0.00096918,0.00024187,-0.00007843,-0
 .00158280,0.00232318,-0.00106718,-0.00265172,-0.00245500,-0.00052400,0
 .00249953,0.00044064,0.00059489,-0.00015882,0.00003841,0.00001492,0.00
 009051,0.00013654,0.00001371,-0.00029040,-0.00019234,0.00014665,0.0001
 1166,0.00002543,-0.00006062,0.00701789,0.00330282,0.00149031,0.0020314
 9,-0.00589644,0.00655248,0.00864565,0.00054598,0.00337336,-0.00754532,
 0.00620957,-0.00399774,-0.00007892,0.00014398,-0.00001319,0.00013159,-
 0.00005325,0.00001929,-0.00005386,0.00002568,0.00007693,-0.00000062,0.
 00006361,-0.00016098,0.00020654,0.00039194,-0.00101917,-0.00006383,-0.
 00036017,0.00002131,0.00011789,0.00010688,-0.00005826,0.00017813,-0.00
 006452,-0.00004834,0.00005257,-0.00002002,-0.00006235,0.00007987,-0.00
 034538,-0.00034061,0.00000779,-0.00000084,-0.00000861,0.00001525,-0.00
 000331,-0.00001156,0.00000579,-0.00001989,-0.00000907,0.00000615,-0.00
 002699,-0.00000754,0.00000334,-0.00001723,0.00001020,-0.00002367,-0.00
 003190,-0.00000417,-0.00003442,-0.00003596,-0.00000503,-0.00001614,0.0
 0003529,-0.00002077,0.00005512,0.00001931,0.00001999,0.00044364,-0.000
 14084,0.00075563,-0.00013176,-0.00007487,-0.00021536,-0.00091681,-0.00
 149890,-0.00239430,-0.01504705,-0.00177035,-0.00844274,0.00683369,0.00
 005996,-0.00006909,0.00001106,0.00006234,0.00004596,-0.00002111,0.0000
 7930,0.00016649,0.00004026,-0.00023618,0.00014743,-0.00004589,-0.00004
 308,0.00003829,-0.00000386,0.00002261,-0.00003733,0.00000149,-0.000452
 71,0.00013677,-0.00014011,-0.00033143,-0.00049753,0.00016527,0.0002323
 1,0.00014833,0.00003420,0.00001225,-0.00027234,0.00003157,0.00066318,0
 .00024048,-0.00017790,-0.00000092,0.00074555,0.00002715,-0.00047151,-0
 .00065458,-0.00063520,0.00068138,0.00033250,0.00004516,-0.00006034,0.0
 0002153,0.00000954,0.00001538,0.00000581,-0.00000480,0.00005305,-0.000
 00213,0.00000107,-0.00000974,-0.00000991,0.00001274,-0.00035200,0.0003
 8285,0.00118371,0.00145517,-0.00246633,0.00295392,-0.00165659,0.003440
 52,-0.01010380,-0.00120491,0.00139217,0.00601675,-0.00001973,-0.000011
 89,0.00001070,0.00001048,0.00004058,-0.00002215,-0.00005882,-0.0000450
 0,0.00006764,0.00024372,-0.00006149,-0.00006051,-0.00002002,-0.0000357
 7,-0.00057594,0.00006785,-0.00036999,0.00026784,0.00004955,-0.00000973
 ,-0.00008751,-0.00006795,-0.00009585,0.00002289,0.00005112,-0.00000874
 ,0.00002263,-0.00033760,0.00039304,0.00018850,0.00000915,-0.00002539,0
 .00000294,0.00000720,-0.00001589,0.00000117,-0.00000624,-0.00000878,0.
 00000039,-0.00000330,-0.00000597,-0.00000400,-0.00000031,-0.00000637,-
 0.00000121,-0.00000537,-0.00000028,-0.00000351,-0.00000406,-0.00000572
 ,-0.00000454,-0.00000480,0.00000914,-0.00000312,-0.00000445,-0.0000034
 3,-0.00010634,0.00029139,0.00003747,-0.00050553,-0.00065808,0.00032192
 ,-0.00120254,-0.00112092,-0.00082154,-0.00228102,0.00242272,-0.0161853
 7,-0.01251622,0.00064096,0.01367959,0.00024213,0.00023807,0.00003799,-
 0.00014884,-0.00062599,0.00005678,0.00014588,0.00038788,-0.00058629,-0
 .00044574,0.00059154,-0.00002051,-0.00066471,-0.00022428,-0.00011264,0
 .00046956,-0.00047011,0.00016233,-0.00101752,0.00023645,-0.00021997,-0
 .00014342,-0.00125409,0.00042358,0.00091119,0.00014047,0.00021037,0.00
 009738,-0.00093870,0.00011142,0.00074049,-0.00007600,0.00173110,-0.003
 45356,0.00399512,-0.00114328,-0.00115519,-0.00127842,-0.00051642,0.002
 10006,0.00011299,0.00011724,-0.00011412,0.00005615,0.00003240,0.000020
 48,0.00006090,0.00002131,-0.00022927,-0.00022593,0.00015908,-0.0000063
 9,0.00003093,-0.00010090,0.00250499,0.00244840,0.00295937,0.00688951,-
 0.00058519,0.01375783,-0.03927444,-0.00623680,-0.07315003,0.00038335,0
 .00071709,0.01312940,-0.00007433,0.00012688,0.00000415,0.00016210,-0.0
 0005879,0.00004665,0.00006706,-0.00010333,0.00000965,-0.00003760,0.000
 15546,-0.00016857,0.00174531,0.00005701,-0.00129396,0.00068776,-0.0010
 0660,0.00009166,0.00015626,-0.00013895,-0.00010323,-0.00015531,-0.0003
 5326,0.00010134,0.00012256,-0.00001854,-0.00009339,-0.00119379,0.00061
 370,0.00026494,0.00002637,-0.00010540,-0.00000905,0.00002903,-0.000028
 64,-0.00002632,-0.00000600,-0.00004236,-0.00002381,0.00000954,-0.00005
 160,-0.00001747,0.00000827,-0.00003524,0.00000184,-0.00005036,-0.00005
 411,-0.00000733,-0.00006428,-0.00005087,-0.00002522,-0.00001971,0.0000
 5176,-0.00004976,0.00009771,-0.00002434,-0.00011125,0.00169004,-0.0002
 4381,-0.00192529,0.00027234,0.00152049,-0.00065258,-0.00225926,-0.0036
 5741,0.00106676,0.02548896,-0.01104075,-0.11008644,0.00544553,0.017388
 23,0.15594653\\0.00000030,0.00000018,0.00000024,0.00000027,-0.00000045
 ,0.00000036,0.00000025,-0.00000042,-0.00000072,0.00000081,-0.00000076,
 0.00000015,0.00000096,-0.00000089,-0.00000002,-0.00000012,-0.00000043,
 -0.00000018,0.00000008,-0.00000047,-0.00000027,0.00000005,-0.00000078,
 -0.00000040,-0.00000013,-0.00000044,-0.00000084,-0.00000029,-0.0000014
 4,-0.00000075,0.00000006,0.00000012,-0.00000008,-0.00000082,-0.0000002
 9,-0.00000035,-0.00000057,-0.00000036,-0.00000039,-0.00000084,-0.00000
 046,-0.00000080,0.00000044,-0.00000039,0.00000056,0.00000092,0.0000004
 2,0.00000048,-0.00000006,0.00000048,0.00000025,-0.00000014,-0.00000015
 ,-0.00000009,0.00000016,0.00000013,-0.00000048,0.00000044,0.00000169,0
 .00000020,-0.00000132,-0.00000005,0.00000099,-0.00000120,-0.00000026,-
 0.00000122,0.00000056,0.00000021,0.00000078,0.00000075,0.00000050,0.00
 000052,0.00000047,0.00000061,0.00000064,-0.00000015,0.00000020,0.00000
 062,-0.00000006,0.00000070,-0.00000010,0.00000036,0.00000050,0.0000003
 0,0.00000025,0.00000060,0.00000046,0.00000015,0.00000061,0.00000041,0.
 00000008,0.00000079,0.00000052,-0.00000037,0.00000045,-0.00000015,0.00
 000046,0.00000076,0.00000082,0.00000077,0.00000066,0.00000099,0.000000
 86,0.00000034,0.00000091,0.00000081,-0.00000009,0.00000059,0.00000081,
 -0.00000068,0.00000033,0.00000049,-0.00000097,-0.00000007,0.00000002,-
 0.00000120,-0.00000053,-0.00000035,-0.00000101,-0.00000079,-0.00000071
 ,-0.00000053,-0.00000081,-0.00000092,-0.00000010,-0.00000063,-0.000001
 03,0.00000054,-0.00000061,-0.00000040,0.00000070,0.00000017,-0.0000010
 0,0.00000122,0.00000325,-0.00000113,0.00000024,-0.00000426\\\@


 WHAT THE SLIME CONTAINS, THE GLOWING REVEALS
 BY THE FLAME'S BRIGHT HUE WHEN YOU IGNITE IT.
   --  LEONARD THURNEYSSER, 1531-1596
 DESCRIBING HIS FLAME PHOTOLYSIS ANALYTIC METHOD
 Job cpu time:       0 days 23 hours  1 minutes 59.6 seconds.
 Elapsed time:       0 days  1 hours  9 minutes 17.8 seconds.
 File lengths (MBytes):  RWF=   2274 Int=      0 D2E=      0 Chk=     57 Scr=      1
 Normal termination of Gaussian 16 at Thu Jun 20 00:25:58 2019.
