 Entering Gaussian System, Link 0=/share/apps/gaussian16/g16/g16
 Initial command:
 /share/apps/gaussian16/g16/l1.exe "/home/amen01//scratch/557/Gau-44785.inp" -scrdir="/home/amen01//scratch/557/"
 Entering Link 1 = /share/apps/gaussian16/g16/l1.exe PID=     44786.
  
 Copyright (c) 1988-2017, Gaussian, Inc.  All Rights Reserved.
  
 This is part of the Gaussian(R) 16 program.  It is based on
 the Gaussian(R) 09 system (copyright 2009, Gaussian, Inc.),
 the Gaussian(R) 03 system (copyright 2003, Gaussian, Inc.),
 the Gaussian(R) 98 system (copyright 1998, Gaussian, Inc.),
 the Gaussian(R) 94 system (copyright 1995, Gaussian, Inc.),
 the Gaussian 92(TM) system (copyright 1992, Gaussian, Inc.),
 the Gaussian 90(TM) system (copyright 1990, Gaussian, Inc.),
 the Gaussian 88(TM) system (copyright 1988, Gaussian, Inc.),
 the Gaussian 86(TM) system (copyright 1986, Carnegie Mellon
 University), and the Gaussian 82(TM) system (copyright 1983,
 Carnegie Mellon University). Gaussian is a federally registered
 trademark of Gaussian, Inc.
  
 This software contains proprietary and confidential information,
 including trade secrets, belonging to Gaussian, Inc.
  
 This software is provided under written license and may be
 used, copied, transmitted, or stored only in accord with that
 written license.
  
 The following legend is applicable only to US Government
 contracts under FAR:
  
                    RESTRICTED RIGHTS LEGEND
  
 Use, reproduction and disclosure by the US Government is
 subject to restrictions as set forth in subparagraphs (a)
 and (c) of the Commercial Computer Software - Restricted
 Rights clause in FAR 52.227-19.
  
 Gaussian, Inc.
 340 Quinnipiac St., Bldg. 40, Wallingford CT 06492
  
  
 ---------------------------------------------------------------
 Warning -- This program may not be used in any manner that
 competes with the business of Gaussian, Inc. or will provide
 assistance to any competitor of Gaussian, Inc.  The licensee
 of this program is prohibited from giving any competitor of
 Gaussian, Inc. access to this program.  By using this program,
 the user acknowledges that Gaussian, Inc. is engaged in the
 business of creating and licensing software in the field of
 computational chemistry and represents and warrants to the
 licensee that it is not a competitor of Gaussian, Inc. and that
 it will not use this program in any manner prohibited above.
 ---------------------------------------------------------------
  

 Cite this work as:
 Gaussian 16, Revision B.01,
 M. J. Frisch, G. W. Trucks, H. B. Schlegel, G. E. Scuseria, 
 M. A. Robb, J. R. Cheeseman, G. Scalmani, V. Barone, 
 G. A. Petersson, H. Nakatsuji, X. Li, M. Caricato, A. V. Marenich, 
 J. Bloino, B. G. Janesko, R. Gomperts, B. Mennucci, H. P. Hratchian, 
 J. V. Ortiz, A. F. Izmaylov, J. L. Sonnenberg, D. Williams-Young, 
 F. Ding, F. Lipparini, F. Egidi, J. Goings, B. Peng, A. Petrone, 
 T. Henderson, D. Ranasinghe, V. G. Zakrzewski, J. Gao, N. Rega, 
 G. Zheng, W. Liang, M. Hada, M. Ehara, K. Toyota, R. Fukuda, 
 J. Hasegawa, M. Ishida, T. Nakajima, Y. Honda, O. Kitao, H. Nakai, 
 T. Vreven, K. Throssell, J. A. Montgomery, Jr., J. E. Peralta, 
 F. Ogliaro, M. J. Bearpark, J. J. Heyd, E. N. Brothers, K. N. Kudin, 
 V. N. Staroverov, T. A. Keith, R. Kobayashi, J. Normand, 
 K. Raghavachari, A. P. Rendell, J. C. Burant, S. S. Iyengar, 
 J. Tomasi, M. Cossi, J. M. Millam, M. Klene, C. Adamo, R. Cammi, 
 J. W. Ochterski, R. L. Martin, K. Morokuma, O. Farkas, 
 J. B. Foresman, and D. J. Fox, Gaussian, Inc., Wallingford CT, 2016.
 
 ******************************************
 Gaussian 16:  ES64L-G16RevB.01 20-Dec-2017
                19-Jun-2019 
 ******************************************
 %nprocshared=20
 Will use up to   20 processors via shared memory.
 %mem=100GB
 %chk=7-memb-haddTSguess-4b.chk
 ----------------------------------------------------------------------
 # opt=(ts,modredundant,calcfc,noeigen) freq b3lyp/6-311+g(d,p) int=gri
 d=fine
 ----------------------------------------------------------------------
 1/5=1,10=4,11=1,18=120,26=3,38=1/1,3;
 2/9=110,12=2,17=6,18=5,40=1/2;
 3/5=4,6=6,7=111,11=2,25=1,30=1,71=2,74=-5,75=-4,140=1/1,2,3;
 4//1;
 5/5=2,38=5/2;
 8/6=4,10=90,11=11/1;
 11/6=1,8=1,9=11,15=111,16=1/1,2,10;
 10/6=1,13=1/2;
 6/7=2,8=2,9=2,10=2,28=1/1;
 7/10=1,18=20,25=1/1,2,3,16;
 1/5=1,10=4,11=1,18=20,26=3/3(2);
 2/9=110/2;
 99//99;
 2/9=110/2;
 3/5=4,6=6,7=111,11=2,25=1,30=1,71=1,74=-5,75=-4/1,2,3;
 4/5=5,16=3,69=1/1;
 5/5=2,38=5/2;
 7//1,2,3,16;
 1/5=1,11=1,18=20,26=3/3(-5);
 2/9=110/2;
 6/7=2,8=2,9=2,10=2,19=2,28=1/1;
 99/9=1/99;
 ---------------------
 7-memb-haddTSguess-4b
 ---------------------
 Symbolic Z-matrix:
 Charge =  0 Multiplicity = 1
 C                     1.60996  -2.78311  -0.0283 
 C                     1.43985  -1.44914   0.35495 
 C                     2.53497  -0.57412   0.46934 
 C                     3.84058  -0.91411   0.20701 
 C                     2.99105  -3.20454  -0.1701 
 C                     4.04857  -2.32291  -0.06225 
 C                     2.03599   0.74009   0.4989 
 C                     2.86222   1.83698   0.23171 
 C                     4.27355   1.51721   0.10429 
 C                     4.73925   0.21786   0.09193 
 C                     0.63421   0.70503   0.42565 
 C                    -0.05515   1.87753   0.11226 
 C                     0.76486   3.05106  -0.16218 
 C                     2.1808    3.02514  -0.07291 
 C                     0.41925  -3.44909  -0.35821 
 C                    -0.82537  -2.77404  -0.33159 
 C                    -0.95005  -1.35683   0.00478 
 C                     0.24738  -0.70883   0.33467 
 C                     0.10207   4.21633  -0.64462 
 C                    -1.4856    1.89943  -0.03965 
 C                    -2.02589   3.04439  -0.58295 
 C                    -1.24168   4.19092  -0.88777 
 C                    -2.02076  -3.47463  -0.65872 
 C                    -3.22948  -2.85211  -0.57323 
 C                    -3.35442  -1.4856   -0.17049 
 C                    -2.22377  -0.70098   0.03388 
 C                    -2.34456   0.74915   0.58499 
 C                    -3.81891   1.2276    0.75782 
 C                    -4.69217  -1.01562   0.17878 
 C                    -4.89741   0.19339   0.70198 
 H                    -5.89162   0.50021   1.01253 
 H                    -4.9297    2.73699   0.19639 
 H                    -1.92617   0.66139   1.59805 
 H                    -5.51213  -1.71831   0.07061 
 H                    -4.13993  -3.40697  -0.77436 
 H                    -1.95788  -4.51907  -0.94505 
 H                     0.42946  -4.48715  -0.67641 
 H                     3.19981  -4.23948  -0.4216 
 H                     5.05457  -2.6917   -0.2351 
 H                     5.79917   0.04557  -0.06588 
 H                     4.98201   2.3256   -0.04578 
 H                     2.72526   3.92543  -0.3408 
 H                     0.68514   5.10788  -0.84943 
 H                    -1.73811   5.06459  -1.29509 
 H                    -3.08639   3.13288  -0.76877 
 H                    -4.50086   2.17157   0.59657 
 
 The following ModRedundant input section has been read:
 B      32      46 0.7400 B                                                    
 
 Iteration  1 RMS(Cart)=  0.00786315 RMS(Int)=  0.00000590
 Iteration  2 RMS(Cart)=  0.00000398 RMS(Int)=  0.00000000
 Iteration  3 RMS(Cart)=  0.00000000 RMS(Int)=  0.00000000

 GradGradGradGradGradGradGradGradGradGradGradGradGradGradGradGradGradGrad
 Berny optimization.
 Initialization pass.
                           ----------------------------
                           !    Initial Parameters    !
                           ! (Angstroms and Degrees)  !
 --------------------------                            --------------------------
 ! Name  Definition              Value          Derivative Info.                !
 --------------------------------------------------------------------------------
 ! R1    R(1,2)                  1.3983         calculate D2E/DX2 analytically  !
 ! R2    R(1,5)                  1.4509         calculate D2E/DX2 analytically  !
 ! R3    R(1,15)                 1.4036         calculate D2E/DX2 analytically  !
 ! R4    R(2,3)                  1.4064         calculate D2E/DX2 analytically  !
 ! R5    R(2,18)                 1.4037         calculate D2E/DX2 analytically  !
 ! R6    R(3,4)                  1.3744         calculate D2E/DX2 analytically  !
 ! R7    R(3,7)                  1.4061         calculate D2E/DX2 analytically  !
 ! R8    R(4,6)                  1.4493         calculate D2E/DX2 analytically  !
 ! R9    R(4,10)                 1.4499         calculate D2E/DX2 analytically  !
 ! R10   R(5,6)                  1.381          calculate D2E/DX2 analytically  !
 ! R11   R(5,38)                 1.0853         calculate D2E/DX2 analytically  !
 ! R12   R(6,39)                 1.0853         calculate D2E/DX2 analytically  !
 ! R13   R(7,8)                  1.399          calculate D2E/DX2 analytically  !
 ! R14   R(7,11)                 1.4041         calculate D2E/DX2 analytically  !
 ! R15   R(8,9)                  1.4527         calculate D2E/DX2 analytically  !
 ! R16   R(8,14)                 1.4032         calculate D2E/DX2 analytically  !
 ! R17   R(9,10)                 1.3803         calculate D2E/DX2 analytically  !
 ! R18   R(9,41)                 1.0853         calculate D2E/DX2 analytically  !
 ! R19   R(10,40)                1.0854         calculate D2E/DX2 analytically  !
 ! R20   R(11,12)                1.3958         calculate D2E/DX2 analytically  !
 ! R21   R(11,18)                1.4686         calculate D2E/DX2 analytically  !
 ! R22   R(12,13)                1.4577         calculate D2E/DX2 analytically  !
 ! R23   R(12,20)                1.4387         calculate D2E/DX2 analytically  !
 ! R24   R(13,14)                1.419          calculate D2E/DX2 analytically  !
 ! R25   R(13,19)                1.4247         calculate D2E/DX2 analytically  !
 ! R26   R(14,42)                1.0857         calculate D2E/DX2 analytically  !
 ! R27   R(15,16)                1.4161         calculate D2E/DX2 analytically  !
 ! R28   R(15,37)                1.0858         calculate D2E/DX2 analytically  !
 ! R29   R(16,17)                1.4619         calculate D2E/DX2 analytically  !
 ! R30   R(16,23)                1.4237         calculate D2E/DX2 analytically  !
 ! R31   R(17,18)                1.4009         calculate D2E/DX2 analytically  !
 ! R32   R(17,26)                1.433          calculate D2E/DX2 analytically  !
 ! R33   R(19,22)                1.3658         calculate D2E/DX2 analytically  !
 ! R34   R(19,43)                1.0848         calculate D2E/DX2 analytically  !
 ! R35   R(20,21)                1.3777         calculate D2E/DX2 analytically  !
 ! R36   R(20,27)                1.5656         calculate D2E/DX2 analytically  !
 ! R37   R(21,22)                1.4221         calculate D2E/DX2 analytically  !
 ! R38   R(21,45)                1.0803         calculate D2E/DX2 analytically  !
 ! R39   R(22,44)                1.0843         calculate D2E/DX2 analytically  !
 ! R40   R(23,24)                1.3623         calculate D2E/DX2 analytically  !
 ! R41   R(23,36)                1.0848         calculate D2E/DX2 analytically  !
 ! R42   R(24,25)                1.4301         calculate D2E/DX2 analytically  !
 ! R43   R(24,35)                1.085          calculate D2E/DX2 analytically  !
 ! R44   R(25,26)                1.3913         calculate D2E/DX2 analytically  !
 ! R45   R(25,29)                1.4603         calculate D2E/DX2 analytically  !
 ! R46   R(26,27)                1.556          calculate D2E/DX2 analytically  !
 ! R47   R(27,28)                1.5596         calculate D2E/DX2 analytically  !
 ! R48   R(27,33)                1.0996         calculate D2E/DX2 analytically  !
 ! R49   R(28,30)                1.4953         calculate D2E/DX2 analytically  !
 ! R50   R(28,46)                1.1756         calculate D2E/DX2 analytically  !
 ! R51   R(29,30)                1.3333         calculate D2E/DX2 analytically  !
 ! R52   R(29,34)                1.0853         calculate D2E/DX2 analytically  !
 ! R53   R(30,31)                1.0858         calculate D2E/DX2 analytically  !
 ! R54   R(32,46)                0.74           calculate D2E/DX2 analytically  !
 ! A1    A(2,1,5)              114.8144         calculate D2E/DX2 analytically  !
 ! A2    A(2,1,15)             114.4474         calculate D2E/DX2 analytically  !
 ! A3    A(5,1,15)             130.2937         calculate D2E/DX2 analytically  !
 ! A4    A(1,2,3)              121.4057         calculate D2E/DX2 analytically  !
 ! A5    A(1,2,18)             127.0494         calculate D2E/DX2 analytically  !
 ! A6    A(3,2,18)             109.5436         calculate D2E/DX2 analytically  !
 ! A7    A(2,3,4)              124.7673         calculate D2E/DX2 analytically  !
 ! A8    A(2,3,7)              107.8725         calculate D2E/DX2 analytically  !
 ! A9    A(4,3,7)              124.9132         calculate D2E/DX2 analytically  !
 ! A10   A(3,4,6)              114.3458         calculate D2E/DX2 analytically  !
 ! A11   A(3,4,10)             114.2555         calculate D2E/DX2 analytically  !
 ! A12   A(6,4,10)             130.9355         calculate D2E/DX2 analytically  !
 ! A13   A(1,5,6)              122.4011         calculate D2E/DX2 analytically  !
 ! A14   A(1,5,38)             118.8629         calculate D2E/DX2 analytically  !
 ! A15   A(6,5,38)             118.6563         calculate D2E/DX2 analytically  !
 ! A16   A(4,6,5)              121.679          calculate D2E/DX2 analytically  !
 ! A17   A(4,6,39)             119.5322         calculate D2E/DX2 analytically  !
 ! A18   A(5,6,39)             118.713          calculate D2E/DX2 analytically  !
 ! A19   A(3,7,8)              121.2808         calculate D2E/DX2 analytically  !
 ! A20   A(3,7,11)             109.2596         calculate D2E/DX2 analytically  !
 ! A21   A(8,7,11)             126.8133         calculate D2E/DX2 analytically  !
 ! A22   A(7,8,9)              114.704          calculate D2E/DX2 analytically  !
 ! A23   A(7,8,14)             114.7443         calculate D2E/DX2 analytically  !
 ! A24   A(9,8,14)             129.7288         calculate D2E/DX2 analytically  !
 ! A25   A(8,9,10)             122.3957         calculate D2E/DX2 analytically  !
 ! A26   A(8,9,41)             118.8388         calculate D2E/DX2 analytically  !
 ! A27   A(10,9,41)            118.6636         calculate D2E/DX2 analytically  !
 ! A28   A(4,10,9)             121.6743         calculate D2E/DX2 analytically  !
 ! A29   A(4,10,40)            119.5309         calculate D2E/DX2 analytically  !
 ! A30   A(9,10,40)            118.6983         calculate D2E/DX2 analytically  !
 ! A31   A(7,11,12)            118.934          calculate D2E/DX2 analytically  !
 ! A32   A(7,11,18)            106.8712         calculate D2E/DX2 analytically  !
 ! A33   A(12,11,18)           131.6596         calculate D2E/DX2 analytically  !
 ! A34   A(11,12,13)           116.1494         calculate D2E/DX2 analytically  !
 ! A35   A(11,12,20)           121.8413         calculate D2E/DX2 analytically  !
 ! A36   A(13,12,20)           121.8158         calculate D2E/DX2 analytically  !
 ! A37   A(12,13,14)           122.3288         calculate D2E/DX2 analytically  !
 ! A38   A(12,13,19)           117.4192         calculate D2E/DX2 analytically  !
 ! A39   A(14,13,19)           120.0293         calculate D2E/DX2 analytically  !
 ! A40   A(8,14,13)            120.9116         calculate D2E/DX2 analytically  !
 ! A41   A(8,14,42)            120.8107         calculate D2E/DX2 analytically  !
 ! A42   A(13,14,42)           118.0174         calculate D2E/DX2 analytically  !
 ! A43   A(1,15,16)            120.9955         calculate D2E/DX2 analytically  !
 ! A44   A(1,15,37)            120.9655         calculate D2E/DX2 analytically  !
 ! A45   A(16,15,37)           118.002          calculate D2E/DX2 analytically  !
 ! A46   A(15,16,17)           122.778          calculate D2E/DX2 analytically  !
 ! A47   A(15,16,23)           119.938          calculate D2E/DX2 analytically  !
 ! A48   A(17,16,23)           117.2787         calculate D2E/DX2 analytically  !
 ! A49   A(16,17,18)           115.4482         calculate D2E/DX2 analytically  !
 ! A50   A(16,17,26)           121.613          calculate D2E/DX2 analytically  !
 ! A51   A(18,17,26)           122.907          calculate D2E/DX2 analytically  !
 ! A52   A(2,18,11)            106.4434         calculate D2E/DX2 analytically  !
 ! A53   A(2,18,17)            119.0495         calculate D2E/DX2 analytically  !
 ! A54   A(11,18,17)           133.2373         calculate D2E/DX2 analytically  !
 ! A55   A(13,19,22)           120.1823         calculate D2E/DX2 analytically  !
 ! A56   A(13,19,43)           119.0828         calculate D2E/DX2 analytically  !
 ! A57   A(22,19,43)           120.6966         calculate D2E/DX2 analytically  !
 ! A58   A(12,20,21)           116.3738         calculate D2E/DX2 analytically  !
 ! A59   A(12,20,27)           119.4852         calculate D2E/DX2 analytically  !
 ! A60   A(21,20,27)           123.558          calculate D2E/DX2 analytically  !
 ! A61   A(20,21,22)           122.5673         calculate D2E/DX2 analytically  !
 ! A62   A(20,21,45)           121.3925         calculate D2E/DX2 analytically  !
 ! A63   A(22,21,45)           116.0036         calculate D2E/DX2 analytically  !
 ! A64   A(19,22,21)           121.2901         calculate D2E/DX2 analytically  !
 ! A65   A(19,22,44)           120.1548         calculate D2E/DX2 analytically  !
 ! A66   A(21,22,44)           118.5329         calculate D2E/DX2 analytically  !
 ! A67   A(16,23,24)           120.3785         calculate D2E/DX2 analytically  !
 ! A68   A(16,23,36)           119.0633         calculate D2E/DX2 analytically  !
 ! A69   A(24,23,36)           120.5278         calculate D2E/DX2 analytically  !
 ! A70   A(23,24,25)           122.1297         calculate D2E/DX2 analytically  !
 ! A71   A(23,24,35)           119.9474         calculate D2E/DX2 analytically  !
 ! A72   A(25,24,35)           117.8752         calculate D2E/DX2 analytically  !
 ! A73   A(24,25,26)           120.6131         calculate D2E/DX2 analytically  !
 ! A74   A(24,25,29)           117.0599         calculate D2E/DX2 analytically  !
 ! A75   A(26,25,29)           121.8584         calculate D2E/DX2 analytically  !
 ! A76   A(17,26,25)           117.4679         calculate D2E/DX2 analytically  !
 ! A77   A(17,26,27)           120.1814         calculate D2E/DX2 analytically  !
 ! A78   A(25,26,27)           120.9644         calculate D2E/DX2 analytically  !
 ! A79   A(20,27,26)           120.0543         calculate D2E/DX2 analytically  !
 ! A80   A(20,27,28)           109.7223         calculate D2E/DX2 analytically  !
 ! A81   A(20,27,33)           102.5603         calculate D2E/DX2 analytically  !
 ! A82   A(26,27,28)           113.4859         calculate D2E/DX2 analytically  !
 ! A83   A(26,27,33)           102.8498         calculate D2E/DX2 analytically  !
 ! A84   A(28,27,33)           106.3846         calculate D2E/DX2 analytically  !
 ! A85   A(27,28,30)           117.7432         calculate D2E/DX2 analytically  !
 ! A86   A(27,28,46)           141.2111         calculate D2E/DX2 analytically  !
 ! A87   A(30,28,46)            97.5763         calculate D2E/DX2 analytically  !
 ! A88   A(25,29,30)           121.7847         calculate D2E/DX2 analytically  !
 ! A89   A(25,29,34)           117.3814         calculate D2E/DX2 analytically  !
 ! A90   A(30,29,34)           120.6604         calculate D2E/DX2 analytically  !
 ! A91   A(28,30,29)           122.0607         calculate D2E/DX2 analytically  !
 ! A92   A(28,30,31)           117.0193         calculate D2E/DX2 analytically  !
 ! A93   A(29,30,31)           120.6251         calculate D2E/DX2 analytically  !
 ! A94   A(28,46,32)           158.4279         calculate D2E/DX2 analytically  !
 ! D1    D(5,1,2,3)              5.4312         calculate D2E/DX2 analytically  !
 ! D2    D(5,1,2,18)           167.6045         calculate D2E/DX2 analytically  !
 ! D3    D(15,1,2,3)          -167.7193         calculate D2E/DX2 analytically  !
 ! D4    D(15,1,2,18)           -5.546          calculate D2E/DX2 analytically  !
 ! D5    D(2,1,5,6)             -6.0197         calculate D2E/DX2 analytically  !
 ! D6    D(2,1,5,38)           177.2727         calculate D2E/DX2 analytically  !
 ! D7    D(15,1,5,6)           165.7969         calculate D2E/DX2 analytically  !
 ! D8    D(15,1,5,38)          -10.9107         calculate D2E/DX2 analytically  !
 ! D9    D(2,1,15,16)            1.8644         calculate D2E/DX2 analytically  !
 ! D10   D(2,1,15,37)          179.6077         calculate D2E/DX2 analytically  !
 ! D11   D(5,1,15,16)         -169.9764         calculate D2E/DX2 analytically  !
 ! D12   D(5,1,15,37)            7.7669         calculate D2E/DX2 analytically  !
 ! D13   D(1,2,3,4)              1.0386         calculate D2E/DX2 analytically  !
 ! D14   D(1,2,3,7)            163.9568         calculate D2E/DX2 analytically  !
 ! D15   D(18,2,3,4)          -163.9345         calculate D2E/DX2 analytically  !
 ! D16   D(18,2,3,7)            -1.0163         calculate D2E/DX2 analytically  !
 ! D17   D(1,2,18,11)         -163.1949         calculate D2E/DX2 analytically  !
 ! D18   D(1,2,18,17)            5.6023         calculate D2E/DX2 analytically  !
 ! D19   D(3,2,18,11)            0.7082         calculate D2E/DX2 analytically  !
 ! D20   D(3,2,18,17)          169.5054         calculate D2E/DX2 analytically  !
 ! D21   D(2,3,4,6)             -6.7629         calculate D2E/DX2 analytically  !
 ! D22   D(2,3,4,10)           166.2973         calculate D2E/DX2 analytically  !
 ! D23   D(7,3,4,6)           -166.83           calculate D2E/DX2 analytically  !
 ! D24   D(7,3,4,10)             6.2303         calculate D2E/DX2 analytically  !
 ! D25   D(2,3,7,8)           -161.8184         calculate D2E/DX2 analytically  !
 ! D26   D(2,3,7,11)             0.9234         calculate D2E/DX2 analytically  !
 ! D27   D(4,3,7,8)              1.0686         calculate D2E/DX2 analytically  !
 ! D28   D(4,3,7,11)           163.8104         calculate D2E/DX2 analytically  !
 ! D29   D(3,4,6,5)              5.9996         calculate D2E/DX2 analytically  !
 ! D30   D(3,4,6,39)          -177.2069         calculate D2E/DX2 analytically  !
 ! D31   D(10,4,6,5)          -165.6157         calculate D2E/DX2 analytically  !
 ! D32   D(10,4,6,39)           11.1779         calculate D2E/DX2 analytically  !
 ! D33   D(3,4,10,9)            -6.6067         calculate D2E/DX2 analytically  !
 ! D34   D(3,4,10,40)          177.01           calculate D2E/DX2 analytically  !
 ! D35   D(6,4,10,9)           165.0146         calculate D2E/DX2 analytically  !
 ! D36   D(6,4,10,40)          -11.3687         calculate D2E/DX2 analytically  !
 ! D37   D(1,5,6,4)              0.2803         calculate D2E/DX2 analytically  !
 ! D38   D(1,5,6,39)          -176.5388         calculate D2E/DX2 analytically  !
 ! D39   D(38,5,6,4)           176.9943         calculate D2E/DX2 analytically  !
 ! D40   D(38,5,6,39)            0.1753         calculate D2E/DX2 analytically  !
 ! D41   D(3,7,8,9)             -7.7299         calculate D2E/DX2 analytically  !
 ! D42   D(3,7,8,14)           162.9126         calculate D2E/DX2 analytically  !
 ! D43   D(11,7,8,9)          -167.2528         calculate D2E/DX2 analytically  !
 ! D44   D(11,7,8,14)            3.3898         calculate D2E/DX2 analytically  !
 ! D45   D(3,7,11,12)         -164.4952         calculate D2E/DX2 analytically  !
 ! D46   D(3,7,11,18)           -0.4834         calculate D2E/DX2 analytically  !
 ! D47   D(8,7,11,12)           -2.9589         calculate D2E/DX2 analytically  !
 ! D48   D(8,7,11,18)          161.0529         calculate D2E/DX2 analytically  !
 ! D49   D(7,8,9,10)             7.2267         calculate D2E/DX2 analytically  !
 ! D50   D(7,8,9,41)          -176.4951         calculate D2E/DX2 analytically  !
 ! D51   D(14,8,9,10)         -161.7036         calculate D2E/DX2 analytically  !
 ! D52   D(14,8,9,41)           14.5746         calculate D2E/DX2 analytically  !
 ! D53   D(7,8,14,13)           -3.1565         calculate D2E/DX2 analytically  !
 ! D54   D(7,8,14,42)         -177.1799         calculate D2E/DX2 analytically  !
 ! D55   D(9,8,14,13)          165.7702         calculate D2E/DX2 analytically  !
 ! D56   D(9,8,14,42)           -8.2532         calculate D2E/DX2 analytically  !
 ! D57   D(8,9,10,4)            -0.034          calculate D2E/DX2 analytically  !
 ! D58   D(8,9,10,40)          176.3786         calculate D2E/DX2 analytically  !
 ! D59   D(41,9,10,4)         -176.3184         calculate D2E/DX2 analytically  !
 ! D60   D(41,9,10,40)           0.0941         calculate D2E/DX2 analytically  !
 ! D61   D(7,11,12,13)           2.0646         calculate D2E/DX2 analytically  !
 ! D62   D(7,11,12,20)         177.0944         calculate D2E/DX2 analytically  !
 ! D63   D(18,11,12,13)       -157.2763         calculate D2E/DX2 analytically  !
 ! D64   D(18,11,12,20)         17.7534         calculate D2E/DX2 analytically  !
 ! D65   D(7,11,18,2)           -0.1367         calculate D2E/DX2 analytically  !
 ! D66   D(7,11,18,17)        -166.6552         calculate D2E/DX2 analytically  !
 ! D67   D(12,11,18,2)         161.0397         calculate D2E/DX2 analytically  !
 ! D68   D(12,11,18,17)         -5.4788         calculate D2E/DX2 analytically  !
 ! D69   D(11,12,13,14)         -2.1292         calculate D2E/DX2 analytically  !
 ! D70   D(11,12,13,19)        172.4437         calculate D2E/DX2 analytically  !
 ! D71   D(20,12,13,14)       -177.1603         calculate D2E/DX2 analytically  !
 ! D72   D(20,12,13,19)         -2.5875         calculate D2E/DX2 analytically  !
 ! D73   D(11,12,20,21)       -168.5736         calculate D2E/DX2 analytically  !
 ! D74   D(11,12,20,27)         19.8685         calculate D2E/DX2 analytically  !
 ! D75   D(13,12,20,21)          6.1752         calculate D2E/DX2 analytically  !
 ! D76   D(13,12,20,27)       -165.3827         calculate D2E/DX2 analytically  !
 ! D77   D(12,13,14,8)           2.7943         calculate D2E/DX2 analytically  !
 ! D78   D(12,13,14,42)        176.9803         calculate D2E/DX2 analytically  !
 ! D79   D(19,13,14,8)        -171.6409         calculate D2E/DX2 analytically  !
 ! D80   D(19,13,14,42)          2.5451         calculate D2E/DX2 analytically  !
 ! D81   D(12,13,19,22)         -2.7674         calculate D2E/DX2 analytically  !
 ! D82   D(12,13,19,43)        179.4682         calculate D2E/DX2 analytically  !
 ! D83   D(14,13,19,22)        171.9361         calculate D2E/DX2 analytically  !
 ! D84   D(14,13,19,43)         -5.8283         calculate D2E/DX2 analytically  !
 ! D85   D(1,15,16,17)           1.4256         calculate D2E/DX2 analytically  !
 ! D86   D(1,15,16,23)        -179.4329         calculate D2E/DX2 analytically  !
 ! D87   D(37,15,16,17)       -176.3828         calculate D2E/DX2 analytically  !
 ! D88   D(37,15,16,23)          2.7588         calculate D2E/DX2 analytically  !
 ! D89   D(15,16,17,18)         -1.5163         calculate D2E/DX2 analytically  !
 ! D90   D(15,16,17,26)       -179.5239         calculate D2E/DX2 analytically  !
 ! D91   D(23,16,17,18)        179.3207         calculate D2E/DX2 analytically  !
 ! D92   D(23,16,17,26)          1.3131         calculate D2E/DX2 analytically  !
 ! D93   D(15,16,23,24)        176.7994         calculate D2E/DX2 analytically  !
 ! D94   D(15,16,23,36)         -1.2091         calculate D2E/DX2 analytically  !
 ! D95   D(17,16,23,24)         -4.0127         calculate D2E/DX2 analytically  !
 ! D96   D(17,16,23,36)        177.9789         calculate D2E/DX2 analytically  !
 ! D97   D(16,17,18,2)          -1.6943         calculate D2E/DX2 analytically  !
 ! D98   D(16,17,18,11)        163.4863         calculate D2E/DX2 analytically  !
 ! D99   D(26,17,18,2)         176.2847         calculate D2E/DX2 analytically  !
 ! D100  D(26,17,18,11)        -18.5347         calculate D2E/DX2 analytically  !
 ! D101  D(16,17,26,25)          4.7904         calculate D2E/DX2 analytically  !
 ! D102  D(16,17,26,27)        171.4829         calculate D2E/DX2 analytically  !
 ! D103  D(18,17,26,25)       -173.0666         calculate D2E/DX2 analytically  !
 ! D104  D(18,17,26,27)         -6.3741         calculate D2E/DX2 analytically  !
 ! D105  D(13,19,22,21)          4.3693         calculate D2E/DX2 analytically  !
 ! D106  D(13,19,22,44)       -177.3713         calculate D2E/DX2 analytically  !
 ! D107  D(43,19,22,21)       -177.9028         calculate D2E/DX2 analytically  !
 ! D108  D(43,19,22,44)          0.3566         calculate D2E/DX2 analytically  !
 ! D109  D(12,20,21,22)         -4.6962         calculate D2E/DX2 analytically  !
 ! D110  D(12,20,21,45)        177.5922         calculate D2E/DX2 analytically  !
 ! D111  D(27,20,21,22)        166.4824         calculate D2E/DX2 analytically  !
 ! D112  D(27,20,21,45)        -11.2293         calculate D2E/DX2 analytically  !
 ! D113  D(12,20,27,26)        -66.4967         calculate D2E/DX2 analytically  !
 ! D114  D(12,20,27,28)        159.3526         calculate D2E/DX2 analytically  !
 ! D115  D(12,20,27,33)         46.592          calculate D2E/DX2 analytically  !
 ! D116  D(21,20,27,26)        122.5847         calculate D2E/DX2 analytically  !
 ! D117  D(21,20,27,28)        -11.566          calculate D2E/DX2 analytically  !
 ! D118  D(21,20,27,33)       -124.3266         calculate D2E/DX2 analytically  !
 ! D119  D(20,21,22,19)         -0.4726         calculate D2E/DX2 analytically  !
 ! D120  D(20,21,22,44)       -178.7595         calculate D2E/DX2 analytically  !
 ! D121  D(45,21,22,19)        177.354          calculate D2E/DX2 analytically  !
 ! D122  D(45,21,22,44)         -0.9329         calculate D2E/DX2 analytically  !
 ! D123  D(16,23,24,25)          0.6015         calculate D2E/DX2 analytically  !
 ! D124  D(16,23,24,35)       -176.83           calculate D2E/DX2 analytically  !
 ! D125  D(36,23,24,25)        178.5805         calculate D2E/DX2 analytically  !
 ! D126  D(36,23,24,35)          1.1491         calculate D2E/DX2 analytically  !
 ! D127  D(23,24,25,26)          5.9064         calculate D2E/DX2 analytically  !
 ! D128  D(23,24,25,29)       -166.384          calculate D2E/DX2 analytically  !
 ! D129  D(35,24,25,26)       -176.6113         calculate D2E/DX2 analytically  !
 ! D130  D(35,24,25,29)         11.0983         calculate D2E/DX2 analytically  !
 ! D131  D(24,25,26,17)         -8.3018         calculate D2E/DX2 analytically  !
 ! D132  D(24,25,26,27)       -174.8844         calculate D2E/DX2 analytically  !
 ! D133  D(29,25,26,17)        163.6123         calculate D2E/DX2 analytically  !
 ! D134  D(29,25,26,27)         -2.9703         calculate D2E/DX2 analytically  !
 ! D135  D(24,25,29,30)        172.6951         calculate D2E/DX2 analytically  !
 ! D136  D(24,25,29,34)         -2.5462         calculate D2E/DX2 analytically  !
 ! D137  D(26,25,29,30)          0.5076         calculate D2E/DX2 analytically  !
 ! D138  D(26,25,29,34)       -174.7336         calculate D2E/DX2 analytically  !
 ! D139  D(17,26,27,20)         56.6541         calculate D2E/DX2 analytically  !
 ! D140  D(17,26,27,28)       -170.7739         calculate D2E/DX2 analytically  !
 ! D141  D(17,26,27,33)        -56.2809         calculate D2E/DX2 analytically  !
 ! D142  D(25,26,27,20)       -137.1246         calculate D2E/DX2 analytically  !
 ! D143  D(25,26,27,28)         -4.5526         calculate D2E/DX2 analytically  !
 ! D144  D(25,26,27,33)        109.9404         calculate D2E/DX2 analytically  !
 ! D145  D(20,27,28,30)        151.4609         calculate D2E/DX2 analytically  !
 ! D146  D(20,27,28,46)         -1.6954         calculate D2E/DX2 analytically  !
 ! D147  D(26,27,28,30)         14.0812         calculate D2E/DX2 analytically  !
 ! D148  D(26,27,28,46)       -139.0751         calculate D2E/DX2 analytically  !
 ! D149  D(33,27,28,30)        -98.2839         calculate D2E/DX2 analytically  !
 ! D150  D(33,27,28,46)        108.5598         calculate D2E/DX2 analytically  !
 ! D151  D(27,28,30,29)        -17.767          calculate D2E/DX2 analytically  !
 ! D152  D(27,28,30,31)        168.4378         calculate D2E/DX2 analytically  !
 ! D153  D(46,28,30,29)        145.652          calculate D2E/DX2 analytically  !
 ! D154  D(46,28,30,31)        -28.1432         calculate D2E/DX2 analytically  !
 ! D155  D(27,28,46,32)         72.6189         calculate D2E/DX2 analytically  !
 ! D156  D(30,28,46,32)        -83.6048         calculate D2E/DX2 analytically  !
 ! D157  D(25,29,30,28)         10.2884         calculate D2E/DX2 analytically  !
 ! D158  D(25,29,30,31)       -176.1361         calculate D2E/DX2 analytically  !
 ! D159  D(34,29,30,28)       -174.6244         calculate D2E/DX2 analytically  !
 ! D160  D(34,29,30,31)         -1.0488         calculate D2E/DX2 analytically  !
 --------------------------------------------------------------------------------
 Trust Radius=3.00D-01 FncErr=1.00D-07 GrdErr=1.00D-06 EigMax=2.50D+02 EigMin=1.00D-04
 Number of steps in this run=    276 maximum allowed number of steps=    276.
 Search for a saddle point of order  1.
 GradGradGradGradGradGradGradGradGradGradGradGradGradGradGradGradGradGrad

                          Input orientation:                          
 ---------------------------------------------------------------------
 Center     Atomic      Atomic             Coordinates (Angstroms)
 Number     Number       Type             X           Y           Z
 ---------------------------------------------------------------------
      1          6           0        1.608589   -2.782293   -0.027546
      2          6           0        1.438571   -1.448176    0.355235
      3          6           0        2.533802   -0.573314    0.469769
      4          6           0        3.839450   -0.913614    0.208033
      5          6           0        2.989658   -3.204009   -0.168699
      6          6           0        4.047293   -2.322532   -0.060721
      7          6           0        2.035042    0.740992    0.498742
      8          6           0        2.861565    1.837656    0.231529
      9          6           0        4.272887    1.517598    0.104736
     10          6           0        4.738362    0.218163    0.092946
     11          6           0        0.633283    0.706157    0.424977
     12          6           0       -0.055752    1.878683    0.110972
     13          6           0        0.764567    3.051985   -0.163517
     14          6           0        2.180469    3.025843   -0.073708
     15          6           0        0.417886   -3.448164   -0.357700
     16          6           0       -0.826625   -2.772887   -0.331752
     17          6           0       -0.951182   -1.355552    0.004140
     18          6           0        0.246239   -0.707663    0.334282
     19          6           0        0.102163    4.217224   -0.646560
     20          6           0       -1.486142    1.900788   -0.041481
     21          6           0       -2.026026    3.045678   -0.585332
     22          6           0       -1.241500    4.191977   -0.890207
     23          6           0       -2.022016   -3.473366   -0.659117
     24          6           0       -3.230658   -2.850607   -0.574270
     25          6           0       -3.355508   -1.483953   -0.171993
     26          6           0       -2.224797   -0.699469    0.032563
     27          6           0       -2.345538    0.750849    0.583186
     28          6           0       -3.819869    1.229611    0.755317
     29          6           0       -4.693307   -1.013631    0.176632
     30          6           0       -4.898530    0.195574    0.699387
     31          1           0       -5.892802    0.502664    1.009471
     32          1           0       -4.890881    2.687182    0.229738
     33          1           0       -1.927544    0.663324    1.596430
     34          1           0       -5.513350   -1.716210    0.068368
     35          1           0       -4.141130   -3.405368   -0.775573
     36          1           0       -1.959212   -4.517904   -0.945106
     37          1           0        0.428033   -4.486322   -0.675580
     38          1           0        3.198330   -4.239062   -0.419806
     39          1           0        5.053293   -2.691552   -0.233081
     40          1           0        5.798311    0.045638   -0.064414
     41          1           0        4.981545    2.325818   -0.045314
     42          1           0        2.725188    3.925955   -0.341668
     43          1           0        0.685467    5.108609   -0.851423
     44          1           0       -1.737623    5.065610   -1.297979
     45          1           0       -3.086441    3.134298   -0.771577
     46          1           0       -4.501592    2.173652    0.593524
 ---------------------------------------------------------------------
                    Distance matrix (angstroms):
                    1          2          3          4          5
     1  C    0.000000
     2  C    1.398318   0.000000
     3  C    2.446002   1.406426   0.000000
     4  C    2.919623   2.464071   1.374419   0.000000
     5  C    1.450903   2.400693   2.745178   2.471838   0.000000
     6  C    2.481885   2.782616   2.373150   1.449303   1.381033
     7  C    3.587810   2.273507   1.406059   2.465385   4.113369
     8  C    4.793849   3.582863   2.444783   2.919982   5.059147
     9  C    5.060143   4.109978   2.744009   2.471706   4.900512
    10  C    4.337365   3.705956   2.372450   1.449899   3.851972
    11  C    3.650381   2.300979   2.291511   3.598642   4.603732
    12  C    4.951153   3.655223   3.584245   4.793636   5.931821
    13  C    5.896580   4.579829   4.083385   5.031792   6.639918
    14  C    5.836404   4.555354   3.657068   4.283797   6.282903
    15  C    1.403624   2.355848   3.664227   4.295474   2.590240
    16  C    2.454160   2.712548   4.095488   5.051784   3.844018
    17  C    2.930703   2.417181   3.601918   4.815292   4.356247
    18  C    2.508188   1.403729   2.295507   3.601322   3.743139
    19  C    7.186497   5.906466   5.487105   6.404931   7.977511
    20  C    5.613270   4.463954   4.747895   6.028685   6.790281
    21  C    6.891067   5.751767   5.916280   7.121041   8.024292
    22  C    7.583379   6.367514   6.229802   7.286236   8.551250
    23  C    3.749368   4.135935   5.517260   6.454538   5.042810
    24  C    4.870512   4.963112   6.285306   7.372270   6.243534
    25  C    5.133110   4.823115   5.993754   7.227526   6.574173
    26  C    4.363097   3.752991   4.780306   6.070563   5.788244
    27  C    5.337716   4.382597   5.057097   6.416016   6.683604
    28  C    6.795323   5.914541   6.610689   7.972333   8.178047
    29  C    6.548568   6.149849   7.246441   8.533400   7.996559
    30  C    7.192964   6.555852   7.475524   8.821792   8.633322
    31  H    8.254527   7.614646   8.512148   9.867364   9.696680
    32  H    8.498498   7.561673   8.112606   9.443775   9.847223
    33  H    5.197481   4.162899   4.764687   6.137801   6.500063
    34  H    7.201927   6.962997   8.137811   9.388212   8.635444
    35  H    5.831556   6.020165   7.357046   8.418193   7.159398
    36  H    4.072281   4.760151   6.144008   6.924241   5.178846
    37  H    2.171953   3.363643   4.588869   5.018245   2.909155
    38  H    2.191648   3.389172   3.830228   3.444390   1.085327
    39  H    3.452023   3.867598   3.365823   2.197512   2.127286
    40  H    5.054931   4.627626   3.365335   2.198074   4.296465
    41  H    6.121270   5.191931   3.829064   3.444196   5.878931
    42  H    6.807794   5.569771   4.575859   4.996517   7.136964
    43  H    7.987319   6.709294   6.119326   6.880206   8.653036
    44  H    8.625585   7.433084   7.291603   8.314021   9.592136
    45  H    7.589660   6.537928   6.846492   8.081658   8.800942
    46  H    7.891859   6.961319   7.553668   8.902404   9.253057
                    6          7          8          9         10
     6  C    0.000000
     7  C    3.707740   0.000000
     8  C    4.335726   1.399005   0.000000
     9  C    3.850308   2.401314   1.452701   0.000000
    10  C    2.637484   2.783157   2.482807   1.380340   0.000000
    11  C    4.589588   1.404130   2.506582   3.742687   4.147295
    12  C    5.874919   2.411665   2.920096   4.343678   5.073578
    13  C    6.298594   2.719077   2.455210   3.838568   4.887471
    14  C    5.664832   2.359956   1.403157   2.585509   3.801797
    15  C    3.811540   4.571402   5.853088   6.303465   5.684325
    16  C    4.902178   4.607191   5.931031   6.678608   6.332127
    17  C    5.091562   3.682073   4.978486   5.962886   5.903844
    18  C    4.148716   2.307697   3.650909   4.606341   4.592883
    19  C    7.660005   4.139073   3.748025   5.024675   6.167147
    20  C    6.961013   3.746425   4.356728   5.773614   6.449322
    21  C    8.122691   4.793649   5.100503   6.518245   7.362870
    22  C    8.431975   4.957237   4.861714   6.208919   7.246830
    23  C    6.206368   5.963319   7.269770   8.069634   7.739231
    24  C    7.315133   6.463632   7.729444   8.708929   8.565501
    25  C    7.450977   5.870119   7.060306   8.202335   8.275152
    26  C    6.479363   4.520894   5.687501   6.865893   7.023623
    27  C    7.122400   4.381405   5.330923   6.679848   7.120796
    28  C    8.670402   5.880864   6.729460   8.123970   8.643210
    29  C    8.841246   6.960828   8.075205   9.316915   9.512134
    30  C    9.324504   6.957885   7.945716   9.285270   9.655981
    31  H   10.389058   7.947852   8.889677  10.256211  10.674391
    32  H   10.250491   7.199197   7.798854   9.238950   9.941685
    33  H    6.881872   4.112546   5.116403   6.434305   6.847842
    34  H    9.580719   7.949923   9.099219  10.306758  10.432641
    35  H    8.290586   7.547270   8.805753   9.788065   9.629626
    36  H    6.455997   6.759789   8.063343   8.738908   8.268336
    37  H    4.261348   5.593418   6.836492   7.172089   6.426644
    38  H    2.126680   5.195952   6.120796   5.879537   4.743571
    39  H    1.085320   4.629013   5.053044   4.294194   2.944811
    40  H    2.945218   3.868185   3.453025   2.126546   1.085365
    41  H    4.741332   3.389624   2.193002   1.085325   2.126138
    42  H    6.393003   3.365498   2.169827   2.897383   4.241401
    43  H    8.194447   4.766590   4.075209   5.165189   6.421391
    44  H    9.464709   6.013612   5.823368   7.119145   8.207972
    45  H    9.009577   5.794067   6.169788   7.585601   8.395165
    46  H    9.681278   6.692465   7.379703   8.812536   9.457869
                   11         12         13         14         15
    11  C    0.000000
    12  C    1.395775   0.000000
    13  C    2.422080   1.457706   0.000000
    14  C    2.832563   2.520073   1.418988   0.000000
    15  C    4.232890   5.368359   6.512283   6.715661   0.000000
    16  C    3.848079   4.735752   6.040639   6.537160   1.416150
    17  C    2.634061   3.357601   4.732683   5.386086   2.526716
    18  C    1.468644   2.613474   3.827717   4.224543   2.831722
    19  C    3.709161   2.463244   1.424743   2.463109   7.677324
    20  C    2.477234   1.438660   2.530975   3.835468   5.686528
    21  C    3.683207   2.393469   2.822300   4.237541   6.942226
    22  C    4.170787   2.785621   2.419083   3.706266   7.836382
    23  C    5.068953   5.753577   7.112725   7.761655   2.458578
    24  C    5.345943   5.737226   7.139407   8.003969   3.703492
    25  C    4.589489   4.719722   6.127791   7.141075   4.258065
    26  C    3.209112   3.370129   4.800849   5.770235   3.832936
    27  C    2.983355   2.595788   3.940247   5.108018   5.114048
    28  C    4.495964   3.873635   5.018202   6.318052   6.409286
    29  C    5.602848   5.465958   6.814200   7.976767   5.686541
    30  C    5.562100   5.160579   6.401121   7.662918   6.531350
    31  H    6.555367   6.063982   7.224646   8.527451   7.569873
    32  H    5.871880   4.903697   5.680830   7.085955   8.134529
    33  H    2.816376   2.680911   4.006317   5.024602   5.120937
    34  H    6.616353   6.535322   7.886804   9.038921   6.193606
    35  H    6.414124   6.737764   8.132520   9.045203   4.578327
    36  H    5.990740   6.756832   8.082887   8.648954   2.672075
    37  H    5.311797   6.431640   7.563170   7.737306   1.085783
    38  H    5.634564   6.949646   7.690790   7.344023   2.891409
    39  H    5.613729   6.863509   7.168418   6.400556   4.698403
    40  H    5.230038   6.136846   5.864002   4.687269   6.421966
    41  H    4.663889   5.059518   4.280677   2.887364   7.366372
    42  H    3.915471   3.482792   2.153972   1.085690   7.726677
    43  H    4.584050   3.450803   2.170064   2.679139   8.575181
    44  H    5.253057   3.869152   3.406266   4.583769   8.832593
    45  H    4.600430   3.397136   3.899586   5.314049   7.468628
    46  H    5.343117   4.481669   5.392310   6.769148   7.530664
                   16         17         18         19         20
    16  C    0.000000
    17  C    1.461908   0.000000
    18  C    2.420700   1.400918   0.000000
    19  C    7.058570   5.708659   5.023676   0.000000
    20  C    4.728896   3.300306   3.153784   2.873101   0.000000
    21  C    5.946306   4.568763   4.482906   2.430115   1.377687
    22  C    6.999523   5.626653   5.264904   1.365808   2.455551
    23  C    1.423656   2.464088   3.712268   7.978563   5.436006
    24  C    2.417484   2.786711   4.184075   7.814548   5.089495
    25  C    2.842908   2.414186   3.719075   6.684619   3.868855
    26  C    2.527186   1.432951   2.489401   5.481773   2.704151
    27  C    3.944734   2.591612   2.984379   4.418063   1.565609
    28  C    5.114804   3.934044   4.523663   5.125761   2.555709
    29  C    4.278395   3.761670   4.951523   7.143950   4.339046
    30  C    5.143483   4.297781   5.236199   6.556842   3.886005
    31  H    6.180151   5.374316   6.293536   7.244309   4.741088
    32  H    6.829773   5.649410   6.158401   5.295226   3.504886
    33  H    4.091143   2.750369   2.863207   4.667004   2.099740
    34  H    4.821001   4.576852   5.853267   8.200655   5.414161
    35  H    3.403374   3.871107   5.268624   8.725027   5.978557
    36  H    2.168880   3.452196   4.584625   8.980026   6.499226
    37  H    2.151336   3.487975   3.915500   8.709693   6.697860
    38  H    4.284588   5.070780   4.664148   9.008133   7.732087
    39  H    5.881308   6.155882   5.231203   8.509750   7.993153
    40  H    7.204536   6.893743   5.617111   7.084287   7.517005
    41  H    7.733930   6.982276   5.636420   5.267569   6.481638
    42  H    7.582213   6.444346   5.298350   2.656700   4.682596
    43  H    8.042043   6.722797   5.952129   1.084795   3.957525
    44  H    7.950192   6.598889   6.319072   2.128126   3.414400
    45  H    6.339956   5.031881   5.204838   3.369800   2.148382
    46  H    6.231353   5.040642   5.559773   5.187346   3.093643
                   21         22         23         24         25
    21  C    0.000000
    22  C    1.422122   0.000000
    23  C    6.519462   7.708443   0.000000
    24  C    6.018092   7.324927   1.362294   0.000000
    25  C    4.738768   6.099266   2.444025   1.430091   0.000000
    26  C    3.800978   5.073916   2.866015   2.450999   1.391318
    27  C    2.594949   3.902710   4.414972   3.885052   2.566062
    28  C    2.883281   4.258092   5.229808   4.331646   2.904990
    29  C    4.916601   6.336519   3.726200   2.465294   1.460290
    30  C    4.245571   5.645521   4.856026   3.699084   2.441522
    31  H    4.895128   6.233332   5.794479   4.565049   3.432253
    32  H    3.000042   4.103251   6.853671   5.836941   4.462861
    33  H    3.231933   4.370974   4.712602   4.331023   3.126851
    34  H    5.938377   7.353519   3.975707   2.628787   2.183574
    35  H    6.791601   8.132690   2.123401   1.085008   2.161793
    36  H    7.572428   8.739574   1.084801   2.129313   3.428149
    37  H    7.922220   8.840039   2.651243   4.008970   4.856234
    38  H    8.965977   9.540220   5.281626   6.579024   7.113708
    39  H    9.119026   9.350893   7.131110   8.292499   8.495291
    40  H    8.395942   8.211760   8.596195   9.495814   9.281360
    41  H    7.065117   6.551541   9.113570   9.721906   9.167162
    42  H    4.838212   4.013262   8.796969   9.024855   8.140685
    43  H    3.417409   2.134226   9.000986   8.874794   7.762279
    44  H    2.161289   1.084275   8.567563   8.088226   6.839749
    45  H    1.080287   2.129921   6.693793   5.989893   4.664776
    46  H    2.877248   4.111362   6.293348   5.312457   3.908657
                   26         27         28         29         30
    26  C    0.000000
    27  C    1.556017   0.000000
    28  C    2.605376   1.559645   0.000000
    29  C    2.492588   2.964910   2.475865   0.000000
    30  C    2.897345   2.615263   1.495283   1.333254   0.000000
    31  H    3.981675   3.581396   2.211357   2.105127   1.085833
    32  H    4.314660   3.217621   1.883564   3.706464   2.535496
    33  H    2.095530   1.099565   2.146869   3.532343   3.138508
    34  H    3.442328   4.048017   3.466646   1.085269   2.105019
    35  H    3.412815   4.726999   4.891816   2.632869   3.964334
    36  H    3.950546   5.499517   6.275939   4.584048   5.793170
    37  H    4.677523   6.058478   7.263885   6.246116   7.223777
    38  H    6.491815   7.525935   8.974543   8.546173   9.299341
    39  H    7.550467   8.201166   9.751177   9.898459  10.404027
    40  H    8.058217   8.199939   9.725386  10.547711  10.725124
    41  H    7.815996   7.520751   8.905480  10.237379  10.134515
    42  H    6.785054   6.053835   7.163199   8.927609   8.551059
    43  H    6.556283   5.498652   6.158433   8.214008   7.597628
    44  H    5.936651   4.746104   4.823553   6.918650   6.139874
    45  H    4.010841   2.839920   2.548952   4.548234   3.752799
    46  H    3.708545   2.583223   1.175643   3.220144   2.020287
                   31         32         33         34         35
    31  H    0.000000
    32  H    2.526648   0.000000
    33  H    4.011684   3.839950   0.000000
    34  H    2.439889   4.450097   4.566744   0.000000
    35  H    4.639768   6.220285   5.203904   2.334198   0.000000
    36  H    6.670802   7.866906   5.771094   4.637727   2.455045
    37  H    8.226927   8.976058   6.101608   6.597500   4.696350
    38  H   10.352560  10.669120   7.373817   9.082757   7.395221
    39  H   11.470133  11.315104   7.958290  10.615842   9.238032
    40  H   11.749223  11.014677   7.926460  11.448817  10.545505
    41  H   11.076457   9.882866   7.293471  11.246943  10.798286
    42  H    9.370926   7.737285   6.004073   9.993781  10.053999
    43  H    8.243257   6.174778   5.707922   9.265500   9.787216
    44  H    6.588651   4.234841   5.271982   7.881377   8.820841
    45  H    4.239492   2.111528   3.613338   5.488426   6.624169
    46  H    2.213748   0.740000   3.148434   4.053451   5.755852
                   36         37         38         39         40
    36  H    0.000000
    37  H    2.402619   0.000000
    38  H    5.191718   2.793046   0.000000
    39  H    7.281330   4.980968   2.422920   0.000000
    40  H    9.043268   7.053516   5.024427   2.841780   0.000000
    41  H    9.788783   8.218088   6.813058   5.021395   2.422125
    42  H    9.675045   8.726674   8.179088   7.015930   4.957602
    43  H    9.983630   9.599995   9.689156   8.961181   7.238386
    44  H    9.592568   9.814115  10.569378  10.364561   9.138496
    45  H    7.736727   8.392532   9.694768  10.024259   9.432853
    46  H    7.321749   8.382546  10.071671  10.754037  10.537995
                   41         42         43         44         45
    41  H    0.000000
    42  H    2.781980   0.000000
    43  H    5.181701   2.412257   0.000000
    44  H    7.363617   4.704256   2.464270   0.000000
    45  H    8.140853   5.881035   4.258118   2.413789   0.000000
    46  H    9.505849   7.494765   6.132490   4.425012   2.188377
                   46
    46  H    0.000000
 Stoichiometry    C30H16
 Framework group  C1[X(C30H16)]
 Deg. of freedom   132
 Full point group                 C1      NOp   1
 Largest Abelian subgroup         C1      NOp   1
 Largest concise Abelian subgroup C1      NOp   1
                         Standard orientation:                         
 ---------------------------------------------------------------------
 Center     Atomic      Atomic             Coordinates (Angstroms)
 Number     Number       Type             X           Y           Z
 ---------------------------------------------------------------------
      1          6           0       -1.664891   -2.760525    0.029641
      2          6           0       -1.472492   -1.430049   -0.355207
      3          6           0       -2.552578   -0.536414   -0.468620
      4          6           0       -3.863401   -0.853624   -0.203764
      5          6           0       -3.052788   -3.157979    0.174175
      6          6           0       -4.095156   -2.258377    0.067233
      7          6           0       -2.031099    0.768982   -0.500312
      8          6           0       -2.837869    1.880189   -0.232816
      9          6           0       -4.254277    1.584887   -0.102711
     10          6           0       -4.742254    0.293759   -0.088290
     11          6           0       -0.630008    0.709863   -0.429381
     12          6           0        0.079965    1.870620   -0.118304
     13          6           0       -0.719255    3.058355    0.156356
     14          6           0       -2.135580    3.056732    0.069489
     15          6           0       -0.485264   -3.446591    0.358207
     16          6           0        0.770746   -2.793095    0.328833
     17          6           0        0.919234   -1.378564   -0.009142
     18          6           0       -0.267421   -0.710360   -0.337659
     19          6           0       -0.035685    4.212502    0.636535
     20          6           0        1.510836    1.868034    0.031182
     21          6           0        2.071677    3.004041    0.572446
     22          6           0        1.307838    4.164193    0.877453
     23          6           0        1.954451   -3.513849    0.654645
     24          6           0        3.173562   -2.912313    0.566513
     25          6           0        3.321324   -1.548542    0.162218
     26          6           0        2.204004   -0.744768   -0.041026
     27          6           0        2.348806    0.702540   -0.593766
     28          6           0        3.830879    1.155370   -0.769542
     29          6           0        4.666373   -1.101998   -0.189760
     30          6           0        4.891508    0.102799   -0.714495
     31          1           0        5.890325    0.392159   -1.027016
     32          1           0        4.928166    2.594750   -0.248044
     33          1           0        1.927250    0.621028   -1.606035
     34          1           0        5.474297   -1.818597   -0.082275
     35          1           0        4.074665   -3.482574    0.766660
     36          1           0        1.874086   -4.556777    0.942109
     37          1           0       -0.512803   -4.484017    0.677446
     38          1           0       -3.278907   -4.188931    0.427044
     39          1           0       -5.107061   -2.609627    0.242135
     40          1           0       -5.804714    0.139894    0.071469
     41          1           0       -4.948460    2.405497    0.047752
     42          1           0       -2.664006    3.966518    0.337406
     43          1           0       -0.602973    5.114154    0.841446
     44          1           0        1.819925    5.029576    1.283079
     45          1           0        3.133856    3.074437    0.756398
     46          1           0        4.529250    2.087613   -0.610367
 ---------------------------------------------------------------------
 Rotational constants (GHZ):           0.2445375           0.1731523           0.1043221
 Standard basis: 6-311+G(d,p) (5D, 7F)
 There are   786 symmetry adapted cartesian basis functions of A   symmetry.
 There are   756 symmetry adapted basis functions of A   symmetry.
   756 basis functions,  1208 primitive gaussians,   786 cartesian basis functions
    98 alpha electrons       98 beta electrons
       nuclear repulsion energy      2627.2359166677 Hartrees.
 NAtoms=   46 NActive=   46 NUniq=   46 SFac= 1.00D+00 NAtFMM=   60 NAOKFM=F Big=F
 Integral buffers will be    131072 words long.
 Raffenetti 2 integral format.
 Two-electron integral symmetry is turned on.
 One-electron integrals computed using PRISM.
 NBasis=   756 RedAO= T EigKep=  1.43D-06  NBF=   756
 NBsUse=   735 1.00D-06 EigRej=  9.52D-07 NBFU=   735
 ExpMin= 4.38D-02 ExpMax= 4.56D+03 ExpMxC= 6.82D+02 IAcc=2 IRadAn=         4 AccDes= 0.00D+00
 Harris functional with IExCor=  402 and IRadAn=       4 diagonalized for initial guess.
 HarFok:  IExCor=  402 AccDes= 0.00D+00 IRadAn=         4 IDoV= 1 UseB2=F ITyADJ=14
 ICtDFT=  3500011 ScaDFX=  1.000000  1.000000  1.000000  1.000000
 FoFCou: FMM=F IPFlag=           0 FMFlag=      100000 FMFlg1=           0
         NFxFlg=           0 DoJE=T BraDBF=F KetDBF=T FulRan=T
         wScrn=  0.000000 ICntrl=       500 IOpCl=  0 I1Cent=   200000004 NGrid=           0
         NMat0=    1 NMatS0=      1 NMatT0=    0 NMatD0=    1 NMtDS0=    0 NMtDT0=    0
 Petite list used in FoFCou.
 Requested convergence on RMS density matrix=1.00D-08 within 128 cycles.
 Requested convergence on MAX density matrix=1.00D-06.
 Requested convergence on             energy=1.00D-06.
 No special actions if energy rises.
 SCF Done:  E(RB3LYP) =  -1152.89560374     A.U. after   20 cycles
            NFock= 20  Conv=0.61D-08     -V/T= 2.0044
 DoSCS=F DFT=T ScalE2(SS,OS)=  1.000000  1.000000
 Range of M.O.s used for correlation:     1   735
 NBasis=   756 NAE=    98 NBE=    98 NFC=     0 NFV=     0
 NROrb=    735 NOA=    98 NOB=    98 NVA=   637 NVB=   637

 **** Warning!!: The largest alpha MO coefficient is  0.14854397D+03


 **** Warning!!: The smallest alpha delta epsilon is  0.59813493D-01

 Symmetrizing basis deriv contribution to polar:
 IMax=3 JMax=2 DiffMx= 0.00D+00
 G2DrvN: will do    47 centers at a time, making    1 passes.
 Calling FoFCou, ICntrl=  3107 FMM=F I1Cent=   0 AccDes= 0.00D+00.
 End of G2Drv F.D. properties file   721 does not exist.
 End of G2Drv F.D. properties file   722 does not exist.
 End of G2Drv F.D. properties file   788 does not exist.
          IDoAtm=1111111111111111111111111111111111111111111111
          Differentiating once with respect to nuclear coordinates.
 CalDSu exits because no D1Ps are significant.
          There are   141 degrees of freedom in the 1st order CPHF.  IDoFFX=6 NUNeed=     0.
    135 vectors produced by pass  0 Test12= 6.24D-14 1.00D-09 XBig12= 2.90D-01 1.31D-01.
 AX will form   135 AO Fock derivatives at one time.
    135 vectors produced by pass  1 Test12= 6.24D-14 1.00D-09 XBig12= 7.18D-02 5.15D-02.
    135 vectors produced by pass  2 Test12= 6.24D-14 1.00D-09 XBig12= 1.01D-03 4.75D-03.
    135 vectors produced by pass  3 Test12= 6.24D-14 1.00D-09 XBig12= 7.29D-06 2.08D-04.
    135 vectors produced by pass  4 Test12= 6.24D-14 1.00D-09 XBig12= 2.28D-08 1.39D-05.
    135 vectors produced by pass  5 Test12= 6.24D-14 1.00D-09 XBig12= 8.21D-11 1.02D-06.
    109 vectors produced by pass  6 Test12= 6.24D-14 1.00D-09 XBig12= 1.48D-11 3.39D-07.
     86 vectors produced by pass  7 Test12= 6.24D-14 1.00D-09 XBig12= 2.14D-12 7.42D-08.
     40 vectors produced by pass  8 Test12= 6.24D-14 1.00D-09 XBig12= 8.30D-14 1.88D-08.
      3 vectors produced by pass  9 Test12= 6.24D-14 1.00D-09 XBig12= 9.53D-16 1.96D-09.
      3 vectors produced by pass 10 Test12= 6.24D-14 1.00D-09 XBig12= 3.21D-16 1.16D-09.
      2 vectors produced by pass 11 Test12= 6.24D-14 1.00D-09 XBig12= 4.47D-16 1.81D-09.
      2 vectors produced by pass 12 Test12= 6.24D-14 1.00D-09 XBig12= 5.19D-16 1.31D-09.
      1 vectors produced by pass 13 Test12= 6.24D-14 1.00D-09 XBig12= 5.64D-16 1.37D-09.
 InvSVY:  IOpt=1 It=  1 EMax= 8.33D-16
 Solved reduced A of dimension  1056 with   141 vectors.
 End of Minotr F.D. properties file   721 does not exist.
 End of Minotr F.D. properties file   722 does not exist.
 End of Minotr F.D. properties file   788 does not exist.

 **********************************************************************

            Population analysis using the SCF Density.

 **********************************************************************

 Orbital symmetries:
       Occupied  (A) (A) (A) (A) (A) (A) (A) (A) (A) (A) (A) (A)
                 (A) (A) (A) (A) (A) (A) (A) (A) (A) (A) (A) (A)
                 (A) (A) (A) (A) (A) (A) (A) (A) (A) (A) (A) (A)
                 (A) (A) (A) (A) (A) (A) (A) (A) (A) (A) (A) (A)
                 (A) (A) (A) (A) (A) (A) (A) (A) (A) (A) (A) (A)
                 (A) (A) (A) (A) (A) (A) (A) (A) (A) (A) (A) (A)
                 (A) (A) (A) (A) (A) (A) (A) (A) (A) (A) (A) (A)
                 (A) (A) (A) (A) (A) (A) (A) (A) (A) (A) (A) (A)
                 (A) (A)
       Virtual   (A) (A) (A) (A) (A) (A) (A) (A) (A) (A) (A) (A)
                 (A) (A) (A) (A) (A) (A) (A) (A) (A) (A) (A) (A)
                 (A) (A) (A) (A) (A) (A) (A) (A) (A) (A) (A) (A)
                 (A) (A) (A) (A) (A) (A) (A) (A) (A) (A) (A) (A)
                 (A) (A) (A) (A) (A) (A) (A) (A) (A) (A) (A) (A)
                 (A) (A) (A) (A) (A) (A) (A) (A) (A) (A) (A) (A)
                 (A) (A) (A) (A) (A) (A) (A) (A) (A) (A) (A) (A)
                 (A) (A) (A) (A) (A) (A) (A) (A) (A) (A) (A) (A)
                 (A) (A) (A) (A) (A) (A) (A) (A) (A) (A) (A) (A)
                 (A) (A) (A) (A) (A) (A) (A) (A) (A) (A) (A) (A)
                 (A) (A) (A) (A) (A) (A) (A) (A) (A) (A) (A) (A)
                 (A) (A) (A) (A) (A) (A) (A) (A) (A) (A) (A) (A)
                 (A) (A) (A) (A) (A) (A) (A) (A) (A) (A) (A) (A)
                 (A) (A) (A) (A) (A) (A) (A) (A) (A) (A) (A) (A)
                 (A) (A) (A) (A) (A) (A) (A) (A) (A) (A) (A) (A)
                 (A) (A) (A) (A) (A) (A) (A) (A) (A) (A) (A) (A)
                 (A) (A) (A) (A) (A) (A) (A) (A) (A) (A) (A) (A)
                 (A) (A) (A) (A) (A) (A) (A) (A) (A) (A) (A) (A)
                 (A) (A) (A) (A) (A) (A) (A) (A) (A) (A) (A) (A)
                 (A) (A) (A) (A) (A) (A) (A) (A) (A) (A) (A) (A)
                 (A) (A) (A) (A) (A) (A) (A) (A) (A) (A) (A) (A)
                 (A) (A) (A) (A) (A) (A) (A) (A) (A) (A) (A) (A)
                 (A) (A) (A) (A) (A) (A) (A) (A) (A) (A) (A) (A)
                 (A) (A) (A) (A) (A) (A) (A) (A) (A) (A) (A) (A)
                 (A) (A) (A) (A) (A) (A) (A) (A) (A) (A) (A) (A)
                 (A) (A) (A) (A) (A) (A) (A) (A) (A) (A) (A) (A)
                 (A) (A) (A) (A) (A) (A) (A) (A) (A) (A) (A) (A)
                 (A) (A) (A) (A) (A) (A) (A) (A) (A) (A) (A) (A)
                 (A) (A) (A) (A) (A) (A) (A) (A) (A) (A) (A) (A)
                 (A) (A) (A) (A) (A) (A) (A) (A) (A) (A) (A) (A)
                 (A) (A) (A) (A) (A) (A) (A) (A) (A) (A) (A) (A)
                 (A) (A) (A) (A) (A) (A) (A) (A) (A) (A) (A) (A)
                 (A) (A) (A) (A) (A) (A) (A) (A) (A) (A) (A) (A)
                 (A) (A) (A) (A) (A) (A) (A) (A) (A) (A) (A) (A)
                 (A) (A) (A) (A) (A) (A) (A) (A) (A) (A) (A) (A)
                 (A) (A) (A) (A) (A) (A) (A) (A) (A) (A) (A) (A)
                 (A) (A) (A) (A) (A) (A) (A) (A) (A) (A) (A) (A)
                 (A) (A) (A) (A) (A) (A) (A) (A) (A) (A) (A) (A)
                 (A) (A) (A) (A) (A) (A) (A) (A) (A) (A) (A) (A)
                 (A) (A) (A) (A) (A) (A) (A) (A) (A) (A) (A) (A)
                 (A) (A) (A) (A) (A) (A) (A) (A) (A) (A) (A) (A)
                 (A) (A) (A) (A) (A) (A) (A) (A) (A) (A) (A) (A)
                 (A) (A) (A) (A) (A) (A) (A) (A) (A) (A) (A) (A)
                 (A) (A) (A) (A) (A) (A) (A) (A) (A) (A) (A) (A)
                 (A) (A) (A) (A) (A) (A) (A) (A) (A) (A) (A) (A)
                 (A) (A) (A) (A) (A) (A) (A) (A) (A) (A) (A) (A)
                 (A) (A) (A) (A) (A) (A) (A) (A) (A) (A) (A) (A)
                 (A) (A) (A) (A) (A) (A) (A) (A) (A) (A) (A) (A)
                 (A) (A) (A) (A) (A) (A) (A) (A) (A) (A) (A) (A)
                 (A) (A) (A) (A) (A) (A) (A) (A) (A) (A) (A) (A)
                 (A) (A) (A) (A) (A) (A) (A) (A) (A) (A) (A) (A)
                 (A) (A) (A) (A) (A) (A) (A) (A) (A) (A) (A) (A)
                 (A) (A) (A) (A) (A) (A) (A) (A) (A) (A) (A) (A)
                 (A)
 The electronic state is 1-A.
 Alpha  occ. eigenvalues --  -10.22539 -10.20728 -10.20598 -10.20517 -10.20410
 Alpha  occ. eigenvalues --  -10.20261 -10.20192 -10.20104 -10.20062 -10.19989
 Alpha  occ. eigenvalues --  -10.19801 -10.19703 -10.19623 -10.19598 -10.19579
 Alpha  occ. eigenvalues --  -10.19529 -10.19479 -10.19464 -10.19426 -10.18992
 Alpha  occ. eigenvalues --  -10.18953 -10.18860 -10.18749 -10.18733 -10.18459
 Alpha  occ. eigenvalues --  -10.18425 -10.18184 -10.17278 -10.17223 -10.17159
 Alpha  occ. eigenvalues --   -0.92634  -0.89125  -0.88382  -0.85535  -0.84382
 Alpha  occ. eigenvalues --   -0.83650  -0.81022  -0.80031  -0.78813  -0.77792
 Alpha  occ. eigenvalues --   -0.75813  -0.74782  -0.73194  -0.71822  -0.71154
 Alpha  occ. eigenvalues --   -0.67081  -0.66578  -0.64638  -0.63866  -0.63204
 Alpha  occ. eigenvalues --   -0.60545  -0.59610  -0.58663  -0.57237  -0.56484
 Alpha  occ. eigenvalues --   -0.54204  -0.52693  -0.51898  -0.51731  -0.50328
 Alpha  occ. eigenvalues --   -0.49440  -0.48393  -0.47389  -0.46878  -0.46443
 Alpha  occ. eigenvalues --   -0.45299  -0.44940  -0.44389  -0.43939  -0.43642
 Alpha  occ. eigenvalues --   -0.43553  -0.42844  -0.42418  -0.41351  -0.40873
 Alpha  occ. eigenvalues --   -0.40534  -0.40129  -0.39522  -0.38744  -0.38067
 Alpha  occ. eigenvalues --   -0.36691  -0.36119  -0.35800  -0.35298  -0.34971
 Alpha  occ. eigenvalues --   -0.34431  -0.33933  -0.33412  -0.32601  -0.31129
 Alpha  occ. eigenvalues --   -0.28872  -0.28289  -0.27320  -0.25851  -0.23500
 Alpha  occ. eigenvalues --   -0.21928  -0.20732  -0.17785
 Alpha virt. eigenvalues --   -0.11804  -0.09872  -0.05687  -0.03998  -0.03593
 Alpha virt. eigenvalues --   -0.01876  -0.00338   0.00002   0.00366   0.00773
 Alpha virt. eigenvalues --    0.00822   0.01438   0.01724   0.02186   0.02672
 Alpha virt. eigenvalues --    0.02871   0.03459   0.03560   0.03832   0.04471
 Alpha virt. eigenvalues --    0.04497   0.04822   0.05208   0.05588   0.05761
 Alpha virt. eigenvalues --    0.06324   0.06763   0.07005   0.07303   0.07573
 Alpha virt. eigenvalues --    0.07849   0.08327   0.08475   0.08997   0.09415
 Alpha virt. eigenvalues --    0.09888   0.09938   0.10159   0.10615   0.10823
 Alpha virt. eigenvalues --    0.10905   0.11246   0.11703   0.12319   0.12588
 Alpha virt. eigenvalues --    0.12851   0.13490   0.13820   0.14231   0.14425
 Alpha virt. eigenvalues --    0.14642   0.14797   0.15132   0.15146   0.15596
 Alpha virt. eigenvalues --    0.15699   0.15900   0.16242   0.16454   0.16607
 Alpha virt. eigenvalues --    0.16900   0.17055   0.17208   0.17497   0.17649
 Alpha virt. eigenvalues --    0.17867   0.17899   0.18337   0.18502   0.18766
 Alpha virt. eigenvalues --    0.19264   0.19408   0.19511   0.19751   0.20038
 Alpha virt. eigenvalues --    0.20246   0.20418   0.20673   0.20802   0.20990
 Alpha virt. eigenvalues --    0.21248   0.21412   0.21571   0.21757   0.21933
 Alpha virt. eigenvalues --    0.22138   0.22347   0.22676   0.23019   0.23379
 Alpha virt. eigenvalues --    0.23444   0.23844   0.24066   0.24178   0.24376
 Alpha virt. eigenvalues --    0.24596   0.25011   0.25124   0.25429   0.25522
 Alpha virt. eigenvalues --    0.25714   0.25846   0.26008   0.26436   0.26571
 Alpha virt. eigenvalues --    0.26903   0.27076   0.27293   0.27717   0.28028
 Alpha virt. eigenvalues --    0.28242   0.28466   0.28757   0.28951   0.29331
 Alpha virt. eigenvalues --    0.29553   0.29832   0.30141   0.30592   0.30773
 Alpha virt. eigenvalues --    0.31008   0.31088   0.31492   0.32009   0.32189
 Alpha virt. eigenvalues --    0.32471   0.32720   0.33094   0.33409   0.33628
 Alpha virt. eigenvalues --    0.33781   0.34331   0.34354   0.34644   0.34830
 Alpha virt. eigenvalues --    0.35590   0.36142   0.36638   0.36820   0.37604
 Alpha virt. eigenvalues --    0.37821   0.38177   0.38794   0.39048   0.39177
 Alpha virt. eigenvalues --    0.39652   0.40131   0.41057   0.41375   0.41583
 Alpha virt. eigenvalues --    0.42161   0.43105   0.43553   0.44921   0.45125
 Alpha virt. eigenvalues --    0.45743   0.46395   0.46614   0.47780   0.48205
 Alpha virt. eigenvalues --    0.49406   0.50361   0.50859   0.51005   0.51521
 Alpha virt. eigenvalues --    0.52293   0.52608   0.52921   0.53484   0.53739
 Alpha virt. eigenvalues --    0.54106   0.54465   0.54542   0.54743   0.55288
 Alpha virt. eigenvalues --    0.55578   0.56135   0.56263   0.57485   0.57754
 Alpha virt. eigenvalues --    0.57822   0.58114   0.58453   0.58715   0.58943
 Alpha virt. eigenvalues --    0.59321   0.59474   0.60128   0.60334   0.60535
 Alpha virt. eigenvalues --    0.60897   0.61304   0.61725   0.61903   0.63072
 Alpha virt. eigenvalues --    0.63516   0.63720   0.64944   0.65104   0.65947
 Alpha virt. eigenvalues --    0.66500   0.66626   0.67068   0.67513   0.67793
 Alpha virt. eigenvalues --    0.68184   0.68570   0.68848   0.69352   0.69513
 Alpha virt. eigenvalues --    0.70476   0.70797   0.71085   0.71267   0.71503
 Alpha virt. eigenvalues --    0.71685   0.71992   0.72463   0.72657   0.72954
 Alpha virt. eigenvalues --    0.73216   0.73386   0.73734   0.73960   0.74439
 Alpha virt. eigenvalues --    0.75177   0.75413   0.75580   0.75933   0.76193
 Alpha virt. eigenvalues --    0.76930   0.77327   0.77592   0.78021   0.78793
 Alpha virt. eigenvalues --    0.78916   0.80341   0.81117   0.81509   0.82560
 Alpha virt. eigenvalues --    0.83035   0.83303   0.83944   0.84156   0.84887
 Alpha virt. eigenvalues --    0.85434   0.85628   0.86648   0.86680   0.87231
 Alpha virt. eigenvalues --    0.87984   0.88388   0.88722   0.89066   0.89521
 Alpha virt. eigenvalues --    0.89731   0.89937   0.90483   0.90888   0.91089
 Alpha virt. eigenvalues --    0.91724   0.92082   0.92845   0.93306   0.93744
 Alpha virt. eigenvalues --    0.94029   0.94501   0.94738   0.95044   0.95580
 Alpha virt. eigenvalues --    0.96575   0.96647   0.97162   0.97435   0.98176
 Alpha virt. eigenvalues --    0.98388   0.99100   0.99359   1.00229   1.01466
 Alpha virt. eigenvalues --    1.01996   1.02365   1.02932   1.03423   1.04549
 Alpha virt. eigenvalues --    1.04823   1.05298   1.06285   1.06811   1.07373
 Alpha virt. eigenvalues --    1.07565   1.08504   1.08751   1.09683   1.09794
 Alpha virt. eigenvalues --    1.10292   1.11474   1.11927   1.13095   1.13531
 Alpha virt. eigenvalues --    1.14872   1.15851   1.16534   1.17429   1.18149
 Alpha virt. eigenvalues --    1.19841   1.20509   1.21608   1.22442   1.23611
 Alpha virt. eigenvalues --    1.24825   1.26675   1.27332   1.28174   1.29721
 Alpha virt. eigenvalues --    1.31193   1.32269   1.33415   1.35587   1.36342
 Alpha virt. eigenvalues --    1.36675   1.37605   1.38041   1.39104   1.40360
 Alpha virt. eigenvalues --    1.40827   1.42137   1.43488   1.43883   1.44105
 Alpha virt. eigenvalues --    1.45079   1.45173   1.46265   1.47613   1.48441
 Alpha virt. eigenvalues --    1.48974   1.49464   1.49668   1.50207   1.50697
 Alpha virt. eigenvalues --    1.51480   1.51822   1.52000   1.52991   1.53482
 Alpha virt. eigenvalues --    1.54106   1.54555   1.54730   1.56236   1.56908
 Alpha virt. eigenvalues --    1.57053   1.57451   1.57922   1.58386   1.59978
 Alpha virt. eigenvalues --    1.60670   1.61442   1.61838   1.62554   1.63343
 Alpha virt. eigenvalues --    1.64340   1.65192   1.66520   1.66932   1.67549
 Alpha virt. eigenvalues --    1.68301   1.68953   1.69508   1.70763   1.71403
 Alpha virt. eigenvalues --    1.71896   1.72352   1.72984   1.73786   1.74470
 Alpha virt. eigenvalues --    1.75679   1.76008   1.76140   1.76571   1.77227
 Alpha virt. eigenvalues --    1.77620   1.79096   1.79682   1.79852   1.81412
 Alpha virt. eigenvalues --    1.81618   1.82000   1.83987   1.84575   1.84701
 Alpha virt. eigenvalues --    1.85756   1.86226   1.86285   1.87012   1.87681
 Alpha virt. eigenvalues --    1.88071   1.88321   1.88724   1.89697   1.90182
 Alpha virt. eigenvalues --    1.90600   1.91856   1.91996   1.93101   1.93647
 Alpha virt. eigenvalues --    1.94212   1.94449   1.95421   1.95806   1.96786
 Alpha virt. eigenvalues --    1.97340   1.97565   1.98531   1.98807   1.99776
 Alpha virt. eigenvalues --    2.00367   2.01294   2.02074   2.03014   2.03838
 Alpha virt. eigenvalues --    2.04088   2.04748   2.05217   2.05926   2.06687
 Alpha virt. eigenvalues --    2.07865   2.08638   2.09224   2.11146   2.11776
 Alpha virt. eigenvalues --    2.12439   2.12953   2.13356   2.14436   2.16477
 Alpha virt. eigenvalues --    2.16949   2.18106   2.19047   2.19618   2.19983
 Alpha virt. eigenvalues --    2.20597   2.21418   2.22230   2.22852   2.24174
 Alpha virt. eigenvalues --    2.24716   2.25075   2.25519   2.27086   2.27756
 Alpha virt. eigenvalues --    2.30002   2.30799   2.33133   2.33530   2.34326
 Alpha virt. eigenvalues --    2.35971   2.36982   2.38552   2.39564   2.40441
 Alpha virt. eigenvalues --    2.41299   2.42314   2.42983   2.44199   2.45058
 Alpha virt. eigenvalues --    2.47582   2.48780   2.49817   2.50775   2.53067
 Alpha virt. eigenvalues --    2.53927   2.54630   2.56351   2.57063   2.57557
 Alpha virt. eigenvalues --    2.58438   2.59648   2.60556   2.61363   2.63170
 Alpha virt. eigenvalues --    2.64034   2.64580   2.66441   2.66693   2.69013
 Alpha virt. eigenvalues --    2.69928   2.70246   2.70868   2.71189   2.71421
 Alpha virt. eigenvalues --    2.71819   2.72864   2.73690   2.73970   2.74584
 Alpha virt. eigenvalues --    2.74826   2.75635   2.75839   2.75951   2.76720
 Alpha virt. eigenvalues --    2.76912   2.77367   2.77928   2.78283   2.78808
 Alpha virt. eigenvalues --    2.79339   2.79687   2.80218   2.80320   2.81420
 Alpha virt. eigenvalues --    2.82274   2.84089   2.84317   2.84874   2.86436
 Alpha virt. eigenvalues --    2.86906   2.87687   2.89168   2.89559   2.89903
 Alpha virt. eigenvalues --    2.90459   2.91544   2.92670   2.94016   2.94318
 Alpha virt. eigenvalues --    2.96455   2.98007   2.99718   2.99973   3.02874
 Alpha virt. eigenvalues --    3.03522   3.03888   3.06561   3.07287   3.10501
 Alpha virt. eigenvalues --    3.11869   3.12686   3.13252   3.13765   3.16539
 Alpha virt. eigenvalues --    3.17836   3.18723   3.19248   3.20892   3.21703
 Alpha virt. eigenvalues --    3.22140   3.22782   3.24641   3.25401   3.27836
 Alpha virt. eigenvalues --    3.28355   3.30180   3.33640   3.34728   3.36875
 Alpha virt. eigenvalues --    3.37843   3.38354   3.39921   3.40501   3.41803
 Alpha virt. eigenvalues --    3.42792   3.44337   3.45802   3.46861   3.48683
 Alpha virt. eigenvalues --    3.49675   3.50347   3.54084   3.55124   3.56962
 Alpha virt. eigenvalues --    3.57839   3.59598   3.61056   3.62309   3.65973
 Alpha virt. eigenvalues --    3.68654   3.72852   3.76273   3.79027   3.83006
 Alpha virt. eigenvalues --    3.83399   3.87398   3.93893   3.98575   4.03045
 Alpha virt. eigenvalues --    4.03774   4.05218   4.06247   4.07055   4.09251
 Alpha virt. eigenvalues --    4.14177   4.19202   4.21582   4.23972   4.27768
 Alpha virt. eigenvalues --    4.31080   4.35007   4.48156   4.56970   4.63068
 Alpha virt. eigenvalues --    4.69125   4.74768   4.75130   4.80516   4.81463
 Alpha virt. eigenvalues --    4.85856   4.89313  23.40281  23.60932  23.66587
 Alpha virt. eigenvalues --   23.75529  23.80119  23.81669  23.83080  23.83983
 Alpha virt. eigenvalues --   23.86455  23.87171  23.89223  23.92976  23.93806
 Alpha virt. eigenvalues --   23.94710  23.98375  23.99244  24.02065  24.05521
 Alpha virt. eigenvalues --   24.05806  24.06775  24.07783  24.11173  24.11837
 Alpha virt. eigenvalues --   24.12236  24.12531  24.14744  24.18471  24.18986
 Alpha virt. eigenvalues --   24.19359  24.25211
          Condensed to atoms (all electrons):
               1          2          3          4          5          6
     1  C   10.369454   1.089538   0.164053  -0.182011  -1.492438  -1.056746
     2  C    1.089538   7.179432   0.056321   0.006734  -0.508273   0.734353
     3  C    0.164053   0.056321   8.903847   1.951399   1.529683  -1.129415
     4  C   -0.182011   0.006734   1.951399  10.307301  -0.204213  -1.447498
     5  C   -1.492438  -0.508273   1.529683  -0.204213  10.967967   1.122402
     6  C   -1.056746   0.734353  -1.129415  -1.447498   1.122402   9.505493
     7  C   -0.178117  -0.169737   0.062139   0.014244  -0.070407  -0.468384
     8  C   -0.158895  -0.115907   0.354139  -0.070605   0.052615  -0.140218
     9  C    0.014265  -0.236211   1.251739  -0.434201  -0.050713  -0.634500
    10  C   -0.221901  -0.446955  -1.093521  -1.588240  -0.653511   0.058071
    11  C   -0.616887  -0.407616  -1.180244  -0.168298  -0.407070  -0.166449
    12  C   -0.132685  -0.120242  -0.561112  -0.091777  -0.187308   0.024916
    13  C    0.029829  -0.304872  -0.523172  -0.122690  -0.021609  -0.181505
    14  C   -0.082423  -0.184690  -0.680750  -0.404341  -0.050959   0.001095
    15  C    0.865719   0.644465  -0.752182  -0.428850  -1.096409  -0.043587
    16  C   -0.245832  -0.446838   0.145652  -0.399752  -0.373973  -0.020185
    17  C   -0.820526   0.215579  -0.425479  -0.077808  -0.859128   0.094831
    18  C    0.363072   0.225898  -1.324430  -0.224683  -1.550259  -0.135858
    19  C    0.016307  -0.009390   0.067844  -0.165353  -0.034914  -0.020027
    20  C    0.158881  -0.197883  -0.076399   0.003950   0.138339  -0.064439
    21  C   -0.003215   0.074852   0.065757   0.003748   0.039437  -0.029970
    22  C   -0.007167  -0.039034  -0.085924  -0.012710   0.002755   0.000926
    23  C   -0.527298  -0.720291  -0.012932  -0.133137  -0.230583  -0.060393
    24  C   -0.174630  -0.196151  -0.123117  -0.002849  -0.233547  -0.021495
    25  C    0.292258  -0.252794   0.297357  -0.066523   0.041996   0.007895
    26  C   -0.689301  -0.187581  -0.123913  -0.015714  -0.104842  -0.004279
    27  C   -0.855400   0.163571  -0.818425   0.017140  -0.155612  -0.147340
    28  C   -0.229748   0.126378  -0.287032   0.007357  -0.018674  -0.023454
    29  C    0.031695  -0.100125  -0.017157  -0.008528   0.020676   0.003869
    30  C    0.021682  -0.047598   0.030215   0.001497  -0.006846   0.001050
    31  H    0.000032  -0.000006   0.000007  -0.000001   0.000001   0.000000
    32  H    0.000310  -0.000397   0.000303   0.000006   0.000005   0.000004
    33  H    0.006715  -0.011820   0.007711  -0.000536  -0.000026   0.001034
    34  H    0.000706  -0.000140   0.000047  -0.000002   0.000059   0.000003
    35  H    0.003642   0.000983   0.000183   0.000002   0.000386   0.000010
    36  H    0.038871   0.007221   0.001465   0.000232   0.005721   0.000277
    37  H   -0.040560   0.009518   0.003217   0.005849   0.038928   0.001975
    38  H   -0.078943   0.027405  -0.020603  -0.048464   0.380318  -0.000327
    39  H   -0.014499  -0.009807   0.024994  -0.076259  -0.017634   0.383096
    40  H    0.009534  -0.003644   0.027717  -0.064405   0.013691   0.026309
    41  H   -0.000152  -0.002023  -0.019437  -0.043005  -0.001485   0.005088
[...]
 56,0.00006088,-0.00004819,0.00000100,-0.00002710,0.00003492,0.00002375
 ,0.00000752,-0.00003906,-0.00000193,0.00000601,0.00001008,-0.00001555,
 0.00000952,-0.00005859,0.00005654,-0.00000756,-0.00004620,0.00004430,-
 0.00000174,-0.00000578,-0.00000256,-0.00000398,-0.00000221,-0.00000024
 ,0.00000299,-0.00000383,0.00000048,0.00000172,-0.00000134,-0.00000470,
 -0.00000303,-0.00000279,-0.00000245,0.00000388,-0.00000066,-0.00000041
 ,0.00000592,-0.00001033,0.00000177,-0.00000572,0.00001229,-0.00000527,
 -0.00009875,-0.00027038,0.00003072,0.13293988,0.00005385,0.00005897,-0
 .00002029,-0.00007339,-0.00016721,-0.00004026,0.00012532,0.00010964,-0
 .00003455,0.00001194,-0.00004086,0.00002551,0.00002144,-0.00003563,-0.
 00001162,-0.00001094,-0.00000351,-0.00000212,-0.00002577,0.00014460,-0
 .00001450,0.00042173,0.00012636,-0.00014925,-0.00003937,-0.00002166,0.
 00007581,-0.00001973,-0.00003783,-0.00001098,-0.00115928,-0.00062151,0
 .00013043,0.00393033,-0.00096201,0.00261840,-0.01392181,-0.01575297,0.
 00603758,-0.00181591,0.00049914,-0.00106850,-0.00002756,0.00000294,0.0
 0000052,0.00000827,-0.00000573,-0.00001755,0.00003272,-0.00001455,0.00
 001734,0.00019434,-0.00010783,0.00023959,-0.11501364,-0.24033090,0.068
 71390,0.00050026,0.00021442,-0.00036432,-0.00044420,0.00295601,0.00235
 157,0.00119574,0.00226684,0.00129982,-0.00001343,-0.00000926,-0.000006
 76,0.00001102,-0.00001233,0.00000213,-0.00004674,0.00000646,-0.0000271
 4,0.00000206,-0.00002690,0.00004243,-0.00015906,-0.00026032,-0.0002674
 1,-0.00001463,-0.00000916,-0.00003960,0.00002216,-0.00002230,-0.000009
 65,0.00000548,0.00000471,0.00004938,-0.00000606,0.00000261,-0.00000243
 ,0.00000008,0.00000777,-0.00000886,0.00002643,0.00005350,-0.00005783,-
 0.00000262,-0.00000429,-0.00000158,-0.00000405,-0.00000190,-0.00000103
 ,-0.00000042,-0.00000361,-0.00000486,-0.00000197,-0.00000763,0.0000064
 9,0.00000480,-0.00000480,0.00000050,0.00000641,-0.00000737,0.,0.000007
 98,-0.00000093,-0.00000718,0.00002730,0.00000493,0.00000381,0.00110264
 ,0.00034055,-0.00011246,0.12486805,0.25196749,0.00001183,0.00003306,-0
 .00002251,0.00011152,0.00008777,0.00001588,-0.00005227,-0.00010158,0.0
 0004950,-0.00004472,-0.00006889,-0.00000133,-0.00005093,0.00000993,0.0
 0000455,0.00003521,0.00004888,0.00001210,-0.00012514,-0.00013929,-0.00
 008934,-0.00022424,0.00016250,-0.00017418,0.00011265,0.00000733,0.0000
 8395,-0.00000016,0.00008862,-0.00000952,0.00052819,0.00051723,0.000062
 20,-0.00103774,0.00322217,0.00311158,0.00659498,0.00947787,-0.00035644
 ,0.00129769,-0.00122350,-0.00192798,-0.00003242,-0.00000796,-0.0000039
 6,0.00004046,-0.00001921,-0.00001552,-0.00006167,0.00004914,0.00001495
 ,-0.00026619,0.00008320,0.00018717,0.03448548,0.06898236,-0.05993483,-
 0.00043849,0.00005595,-0.00094875,-0.00241926,0.00306659,0.00682253,-0
 .00342755,-0.00407739,0.00578169,-0.00002712,-0.00000873,-0.00000319,0
 .00002173,0.00000233,-0.00002112,-0.00007241,-0.00000597,-0.00004406,-
 0.00007221,-0.00014554,0.00008210,0.00012143,-0.00048170,-0.00062775,-
 0.00016935,-0.00001012,-0.00011575,0.00004672,-0.00008143,-0.00002489,
 0.00003778,0.00005611,0.00011059,0.00000636,-0.00000337,0.00000656,0.0
 0004873,-0.00006703,-0.00003131,0.00002938,0.00008582,-0.00005649,0.00
 000195,0.00000194,0.00000646,0.00000071,-0.00000190,0.00000110,0.00000
 258,0.00000350,-0.00000115,-0.00000193,0.00000034,0.00000891,-0.000003
 06,0.00000390,-0.00000625,-0.00000194,0.00000364,0.00000268,-0.0000061
 3,0.00000100,-0.00001493,-0.00001359,0.00000323,0.00001837,-0.00045752
 ,0.00001055,0.00033136,-0.03538564,-0.07716383,0.05167577,0.00004865,0
 .00005432,0.00002706,0.00003273,-0.00000532,0.00000242,0.00002473,-0.0
 0003650,-0.00000751,-0.00008974,-0.00009555,0.00000339,-0.00003601,-0.
 00000048,-0.00000069,0.00003606,0.00003394,0.00000079,-0.00013290,-0.0
 0013331,0.00003172,-0.00060941,0.00016746,0.00015158,0.00015119,0.0000
 8239,-0.00003787,-0.00005209,0.00012503,-0.00000933,0.00027402,-0.0001
 0196,0.00012373,-0.00070559,-0.00026953,0.00017908,-0.00495753,-0.0024
 8974,-0.00158744,0.00025299,0.00117951,-0.00055452,-0.00005059,0.00000
 002,-0.00000980,0.00003306,0.00003108,0.00001905,0.00002720,-0.0000117
 8,-0.00002299,-0.00003731,0.00005337,-0.00001810,-0.01108854,0.0255324
 0,-0.01419104,-0.00102766,-0.00277342,0.00049103,0.01058402,-0.0144991
 8,0.00791211,-0.12351739,0.10086180,-0.06224766,-0.00004997,-0.0000174
 0,-0.00001164,0.00001812,-0.00004035,-0.00001340,-0.00009094,-0.000007
 53,-0.00005596,-0.00002789,0.00019551,0.00014801,0.00002145,-0.0007208
 2,0.00042525,0.00028158,0.00008156,-0.00013492,0.00005937,-0.00006068,
 0.00002235,-0.00000972,-0.00002615,0.00004594,-0.00001200,0.00000064,-
 0.00000707,-0.00006501,0.00016443,-0.00006108,-0.00004024,-0.00006305,
 0.00007645,0.00000288,-0.00000079,-0.00001876,0.00000425,-0.00000297,-
 0.00000225,-0.00000124,0.00000296,0.00000001,0.00000085,0.00000172,0.0
 0000121,0.00000115,0.00000392,0.00000051,-0.00000436,0.00000325,0.0000
 0063,-0.00000977,0.00002104,0.00000335,-0.00000617,-0.00001016,0.00000
 802,-0.00003078,-0.00007462,-0.00004544,0.00081152,0.00011552,0.001059
 28,0.12910068,0.00002276,-0.00002850,-0.00000513,0.00002725,0.00001929
 ,0.00000877,0.00002560,-0.00009208,-0.00000384,-0.00002220,-0.00003915
 ,0.00000424,-0.00005805,-0.00000373,0.00000678,0.00001265,0.00005300,0
 .00000255,-0.00021967,-0.00001857,0.00004551,-0.00005779,0.00011257,-0
 .00034821,0.00001195,-0.00003268,-0.00004338,0.00002790,0.00004851,0.0
 0002281,0.00028373,-0.00009616,-0.00011189,-0.00090976,-0.00001250,-0.
 00046672,-0.00176026,0.00248192,0.00262005,0.00009824,0.00016381,0.000
 11403,-0.00001036,-0.00001926,-0.00000646,0.00003019,0.00001655,0.0000
 1827,0.00001106,-0.00008311,-0.00005782,0.00000549,0.00005694,-0.00000
 013,-0.00263414,0.00517515,-0.00113508,-0.00349492,-0.00147410,0.00249
 426,0.01380775,-0.01500886,0.01017894,0.10117923,-0.21404131,0.0993590
 2,-0.00004515,-0.00002527,-0.00001705,0.00003096,-0.00002806,-0.000014
 84,-0.00003648,-0.00005650,-0.00003475,-0.00005242,0.00020749,0.000161
 02,0.00038954,-0.00056042,0.00049123,0.00041006,0.00006359,-0.00004296
 ,0.00003733,-0.00000477,0.00003563,-0.00000843,-0.00010198,0.00001188,
 -0.00003308,0.00001563,-0.00001663,-0.00009577,0.00020897,-0.00000777,
 -0.00015693,-0.00024205,0.00018256,-0.00000708,-0.00002603,-0.00002179
 ,-0.00000571,-0.00001322,-0.00000250,0.00000223,-0.00000505,-0.0000003
 2,0.00000202,-0.00000486,-0.00000060,0.00000008,-0.00000410,-0.0000028
 4,0.00000465,-0.00000079,-0.00000160,0.00000506,0.00000108,0.00000663,
 0.00000502,0.00000313,-0.00000104,0.00000903,0.00002359,0.00008093,0.0
 0068682,-0.00016335,-0.00215161,-0.10769208,0.22338280,0.00006195,-0.0
 0011956,-0.00002548,-0.00013509,0.00010522,-0.00000551,0.00006535,-0.0
 0002308,-0.00000750,-0.00006776,-0.00009078,0.00000982,-0.00008261,-0.
 00002594,0.00000580,0.00000799,0.00007167,0.00000546,-0.00015522,0.000
 03599,0.00013704,-0.00027593,-0.00003274,-0.00072690,0.00007017,-0.000
 08571,-0.00008439,-0.00000355,0.00010571,0.00005404,0.00021545,-0.0000
 6901,-0.00046162,0.00009964,-0.00060637,-0.00042412,-0.00186721,0.0020
 0069,0.00774059,0.00011492,0.00048956,0.00015816,0.00002926,0.00001752
 ,0.00000652,-0.00003108,-0.00002243,-0.00000616,-0.00000856,0.00003508
 ,0.00001039,0.00006051,-0.00018213,0.00006740,-0.00107909,0.00442319,0
 .00178231,0.00124292,0.00208944,0.00366185,-0.00442759,0.00680333,-0.0
 0120042,-0.06274335,0.09836217,-0.09220746,0.00003940,0.00000695,0.000
 00619,0.00000173,0.00002746,0.00000610,0.00015089,0.00004402,0.0000856
 2,-0.00005390,-0.00015862,-0.00008786,-0.00013570,0.00034264,-0.000049
 32,-0.00012813,-0.00011826,0.00018534,-0.00014218,0.00010203,-0.000022
 34,-0.00004956,-0.00003288,-0.00011370,0.00001575,-0.00000059,-0.00000
 116,0.00015918,-0.00024560,-0.00004444,-0.00002587,0.00002821,-0.00001
 186,0.00000083,0.00000724,0.00003159,0.00000027,0.00000379,0.00000475,
 0.00000078,-0.00000036,0.00000210,0.00000074,0.00000085,0.00000052,-0.
 00000348,0.00000278,-0.00000434,-0.00000133,0.00000041,-0.00000067,0.0
 0000339,0.00000537,0.00001468,-0.00000375,-0.00000169,0.00000106,-0.00
 000431,0.00004874,0.00017033,0.00078188,-0.00222954,-0.00407222,0.0680
 4320,-0.10992676,0.08731495,-0.00000837,0.00002306,0.00000973,0.000086
 94,0.00003101,0.00001115,-0.00011811,-0.00006495,-0.00000490,0.0000625
 7,0.00007219,-0.00000315,0.00000014,0.00002625,0.00000817,0.00000130,-
 0.00000929,0.00000473,0.00003833,0.00027267,-0.00003325,0.00011283,-0.
 00009725,0.00005918,-0.00005171,0.00003652,-0.00001542,0.00000353,-0.0
 0006410,0.00000588,-0.00053837,-0.00040284,-0.00009750,0.00083231,0.00
 136480,-0.00130499,0.00058550,0.00004624,0.00024675,-0.00017674,0.0000
 2992,0.00000126,-0.00004353,-0.00000450,0.00000243,0.00006210,0.000012
 32,0.00000316,-0.00005116,0.00002559,-0.00001691,-0.00000184,0.0000735
 7,-0.00003119,0.00045428,-0.00266255,0.00086753,-0.01033970,0.00050986
 ,-0.00190875,-0.33496495,0.00257112,-0.04446143,-0.01177298,0.00186527
 ,-0.00283456,-0.00008731,0.00000669,-0.00000798,0.00002672,-0.00005533
 ,-0.00000358,-0.00030682,0.00009469,-0.00012933,-0.00000319,0.00005700
 ,0.00024028,-0.00042772,-0.00103155,0.00125042,0.00022709,-0.00077861,
 0.00079169,0.00045955,-0.00020384,-0.00022311,0.00022760,0.00032504,0.
 00077293,-0.00008850,-0.00002391,0.00007156,-0.00148155,-0.00087543,0.
 00166387,0.00001522,0.00017589,-0.00013271,0.00000055,-0.00000946,0.00
 003468,0.00000238,-0.00000088,-0.00000394,-0.00000046,0.00000485,-0.00
 000131,0.00000047,0.00000601,-0.00000403,-0.00000095,0.00000250,-0.000
 00130,-0.00000328,0.00000534,-0.00000275,-0.00000444,0.00000086,0.0000
 0105,-0.00000105,-0.00000136,-0.00000067,0.00001339,-0.00000888,-0.000
 00361,-0.00056992,0.00011263,-0.00019917,0.00084628,0.00011921,0.00026
 531,0.35819796,-0.00006067,0.00002735,-0.00000938,0.00012223,-0.000056
 75,-0.00000740,0.00007889,-0.00007719,-0.00001119,0.00007945,0.0000780
 1,0.00003308,0.00005495,-0.00000207,-0.00000557,-0.00002476,-0.0000492
 9,-0.00000270,-0.00006259,-0.00033905,-0.00049000,0.00018349,-0.000142
 66,0.00010263,-0.00012504,0.00012909,0.00007350,-0.00000878,-0.0001503
 4,-0.00000447,0.00107927,0.00049538,0.00012434,0.00037527,-0.00172944,
 0.00536714,0.00054861,-0.00058593,0.00005852,-0.00029445,0.00007860,-0
 .00037431,0.00000560,-0.00002575,0.00001417,-0.00002421,-0.00011228,-0
 .00007939,-0.00005104,0.00015646,-0.00002665,0.00004172,0.00017198,0.0
 0013449,-0.00192750,-0.00316217,0.00339656,0.02628622,0.00245073,0.004
 04139,0.00273728,-0.05250578,0.00896364,-0.02688078,0.00276835,-0.0030
 8842,0.00000480,0.00001395,0.00000847,-0.00002079,0.00000830,-0.000044
 38,-0.00021008,-0.00010371,-0.00008069,-0.00012221,-0.00061209,0.00007
 138,0.00080669,0.00073310,-0.00201423,-0.00101420,-0.00176866,0.001213
 50,0.00044293,-0.00059642,-0.00059658,-0.00031515,0.00090352,0.0003352
 4,-0.00014986,-0.00011083,0.00018369,0.00033042,-0.00048702,0.00007937
 ,0.00007570,0.00029418,-0.00013670,-0.00003037,0.00000332,0.00018203,-
 0.00000146,-0.00000747,-0.00000063,-0.00000231,0.00000442,0.00000373,-
 0.00000764,0.00000501,0.00000174,0.00000041,-0.00000196,0.00000265,0.0
 0000408,-0.00000873,0.00000478,-0.00000082,-0.00000150,-0.00001152,0.0
 0000917,0.00000111,-0.00000921,0.00007588,0.00003989,0.00000604,-0.001
 17296,-0.00011320,-0.00027646,0.00056483,0.00029539,-0.00131160,-0.001
 05096,0.05329003,0.00024162,0.00003525,0.00006614,0.00023490,0.0000481
 4,0.00000049,-0.00028523,-0.00021691,-0.00007550,0.00010008,-0.0002119
 2,0.00003667,-0.00028056,0.00003127,0.00002060,0.00015989,0.00023601,0
 .00005032,-0.00046892,0.00012226,-0.00080849,0.00005975,0.00037173,0.0
 0001937,0.00008024,0.00004776,0.00009748,-0.00001733,0.00006039,-0.000
 02369,-0.00084338,-0.00138571,0.00055760,-0.00260442,0.00689500,0.0047
 7041,0.00001404,0.00057491,-0.00099342,0.00041365,-0.00040362,-0.00043
 081,-0.00020342,0.00001890,-0.00002862,0.00016256,-0.00023022,-0.00003
 106,-0.00036921,0.00035256,0.00003547,0.00014546,0.00019974,0.00020442
 ,0.00131272,0.00294076,0.00367144,-0.01240571,-0.00142574,0.00370495,-
 0.04076885,0.01174746,-0.04832820,0.00913406,-0.00062855,0.00513537,-0
 .00001138,-0.00001723,0.00000463,0.00011585,0.00012575,-0.00009675,-0.
 00008409,0.00013267,-0.00010899,-0.00047283,-0.00095309,0.00021213,0.0
 0044783,-0.00164002,-0.00212710,-0.00080290,0.00062651,-0.00122918,-0.
 00031588,-0.00019947,-0.00017218,0.00016047,0.00024353,0.00023308,0.00
 003657,0.00002722,0.00001739,0.00187956,-0.00120455,-0.00116755,0.0003
 9571,0.00027944,-0.00023577,0.00000198,0.00001318,0.00009801,-0.000012
 77,-0.00000859,0.00000809,0.00001157,-0.00001478,0.00001485,-0.0000028
 7,-0.00000078,-0.00001196,0.00000187,-0.00000765,-0.00000989,0.0000066
 6,0.00001028,0.00000234,0.00000018,0.00000387,-0.00001791,-0.00000313,
 0.00000387,-0.00000016,-0.00003573,0.00000960,-0.00000387,0.00050011,0
 .00005961,0.00010575,0.00023742,-0.00142955,-0.00184460,0.04350552,-0.
 01587838,0.03963810,-0.00018429,-0.00051494,-0.00011645,-0.00059624,0.
 00032167,0.00002646,0.00013546,0.00013684,-0.00003159,-0.00022051,-0.0
 0013729,0.00001720,-0.00002339,0.00001414,-0.00001671,0.00001343,-0.00
 003353,0.00000648,-0.00031309,-0.00007779,0.00006866,-0.00027597,0.000
 61566,-0.00016005,0.00020994,-0.00014082,-0.00000675,-0.00000231,0.000
 29224,-0.00001254,0.00031933,0.00061941,-0.00029599,0.00096897,0.00022
 296,0.00011436,-0.00060912,-0.00010729,0.00009832,0.00069580,-0.000266
 93,0.00006904,0.00067362,0.00006460,0.00015674,-0.00081365,0.00003762,
 -0.00001421,0.00042372,0.00058773,-0.00007778,0.00009031,-0.00085901,0
 .00009854,0.00025172,-0.00016202,0.00002245,-0.00116320,-0.00037774,0.
 00039367,-0.00040401,0.00022520,0.00194135,-0.00042743,0.00002440,-0.0
 0004427,0.00074513,-0.00005094,0.00001207,-0.00030691,0.00072691,0.000
 14465,0.00254356,-0.00051428,0.00033263,-0.00252986,-0.00210250,-0.001
 13930,0.00055679,0.00763779,0.00282390,-0.01559219,-0.02281570,0.00513
 033,-0.00181298,0.00172693,-0.00039955,0.00231978,-0.00334013,-0.00962
 613,-0.00038440,-0.00087705,-0.00029717,-0.02149571,0.01793819,-0.0062
 4424,-0.00001521,0.00012548,-0.00053002,-0.00032186,-0.00068024,0.0013
 3230,-0.00000817,-0.00000315,0.00003991,0.00000710,-0.00000908,0.00002
 223,-0.00000061,0.00001565,-0.00004007,0.00000252,-0.00000125,-0.00000
 048,-0.00000064,0.00000297,0.00000123,0.00000145,0.00000268,0.00000224
 ,0.00000154,-0.00000039,0.00000960,0.00000998,-0.00001724,-0.00002593,
 -0.00002997,-0.00000791,-0.00000379,0.00004009,0.00005447,-0.00000625,
 -0.00121438,-0.00034926,0.00062833,0.03873582,0.00050063,0.00129976,0.
 00034340,0.00152116,-0.00089270,-0.00013473,-0.00040350,-0.00025970,0.
 00009252,0.00055693,0.00028455,-0.00006145,0.00007774,-0.00005834,0.00
 002133,-0.00003975,0.00009006,-0.00000455,0.00080592,0.00010325,-0.000
 06924,0.00061525,-0.00152903,0.00037820,-0.00051595,0.00032177,0.00003
 013,0.00000658,-0.00071653,0.00001534,-0.00067451,-0.00156053,0.000574
 69,-0.00257742,-0.00118446,-0.00046264,0.00141651,0.00032894,-0.000256
 59,-0.00176762,0.00066727,-0.00013597,-0.00160384,0.00007348,-0.000481
 96,0.00153061,-0.00002363,-0.00007573,-0.00068619,-0.00002171,0.001905
 12,-0.00024040,0.00218672,-0.00012863,-0.00072599,0.00032597,-0.000233
 78,0.00208296,0.00328796,-0.00098945,-0.00017523,-0.00103441,-0.000468
 03,0.00107560,0.00042405,0.00038747,-0.00174502,0.00019716,0.00005040,
 0.00088399,-0.00180639,-0.00022353,-0.00630671,0.00181912,-0.00182202,
 0.00009169,0.00501304,0.00313872,0.00123787,-0.00075746,0.00652005,-0.
 02132480,0.05300349,-0.01896755,0.00229329,-0.00406454,-0.00188342,-0.
 00300859,-0.01681393,0.00882442,0.00234299,0.00026077,0.00091399,0.021
 10872,-0.08224408,0.02151337,0.00146931,-0.00058840,0.00053550,0.00082
 616,0.00132453,-0.00283592,0.00005638,0.00010639,-0.00009364,-0.000007
 24,0.00002592,-0.00004026,-0.00004738,-0.00000169,0.00009995,-0.000008
 23,0.00000906,0.00000533,-0.00000867,-0.00000837,-0.00000187,-0.000012
 11,-0.00000624,-0.00000183,-0.00001135,-0.00000559,-0.00002151,-0.0000
 4698,0.00002306,0.00006153,0.00005299,-0.00001737,-0.00002947,-0.00014
 332,-0.00014294,0.00012361,-0.00052539,0.00080211,0.00063907,0.0020529
 4,0.04175960,-0.00009789,0.00006095,-0.00003044,0.00003660,0.00001273,
 0.00001183,0.00009925,-0.00009626,-0.00001857,-0.00009867,0.00010523,0
 .00004759,0.00008955,-0.00002083,-0.00000300,-0.00007269,-0.00008130,-
 0.00000968,-0.00014612,0.00006077,-0.00002375,0.00000046,0.00002988,-0
 .00001362,0.00002969,-0.00001149,-0.00000703,0.00001515,0.00003687,-0.
 00001547,0.00012604,0.00024328,0.00006391,0.00022016,-0.00008257,0.000
 14172,-0.00014626,-0.00003172,-0.00018875,0.00007439,-0.00009584,0.000
 00314,-0.00007311,-0.00015077,0.00000857,0.00034373,0.00008143,0.00014
 748,-0.00010013,-0.00105820,-0.00058994,-0.00006390,-0.00001947,-0.000
 13892,0.00010159,0.00008419,0.00001817,-0.00090367,-0.00019530,0.00080
 573,0.00004065,0.00020238,-0.00097653,0.00010420,-0.00012534,0.0000645
 1,-0.00026877,-0.00003737,-0.00007923,0.00007352,-0.00033728,-0.000135
 81,-0.00086351,-0.00003571,-0.00038195,0.00331324,0.00137872,0.0004103
 0,-0.00383362,-0.00681684,-0.00214418,0.00652363,-0.01368289,-0.019406
 53,-0.00122986,-0.00242394,0.00125628,0.00430433,-0.00823939,-0.001676
 32,-0.00021863,0.00094022,-0.00137978,-0.01450616,0.04818127,-0.034888
 80,-0.00007730,0.00010528,0.00020794,-0.00005196,-0.00129168,-0.000037
 53,-0.00000947,-0.00001625,0.00001901,-0.00000395,0.00000253,-0.000002
 80,0.00002971,-0.00000837,-0.00000408,-0.00000356,0.00000605,0.0000044
 6,-0.00000210,-0.00000312,-0.00000008,-0.00000228,0.00000169,0.0000027
 1,0.00000051,-0.00000336,0.00000342,0.00000080,0.00001897,0.00004661,0
 .00001774,-0.00000073,0.00000776,0.00002386,0.00000616,-0.00006055,0.0
 0160823,0.00005782,-0.00095941,0.00559658,-0.01675039,0.05990160\\-0.0
 0000094,-0.00000134,0.00000251,-0.00000026,-0.00000040,0.00000276,-0.0
 0000080,-0.00000010,0.00000275,0.00000052,-0.00000079,0.00000364,-0.00
 000004,0.,0.00000455,-0.00000135,-0.00000142,0.00000518,-0.00000065,-0
 .00000014,0.00000166,0.00000077,-0.00000023,0.00000134,0.00000021,-0.0
 0000166,0.00000361,-0.00000038,-0.00000044,0.00000466,0.00000037,0.000
 00014,-0.00000025,-0.00000083,0.00000083,0.00000029,0.00000203,-0.0000
 0014,-0.00000049,0.00000001,-0.00000068,0.00000098,-0.00000100,0.00000
 034,0.00000243,0.00000056,-0.00000072,0.00000087,-0.00000005,-0.000002
 04,0.00000050,-0.00000115,0.00000099,0.00000197,0.00000114,-0.00000040
 ,-0.00000190,0.00000045,-0.00000171,-0.00000111,-0.00000016,0.00000116
 ,-0.00000312,0.00000224,-0.00000014,-0.00000267,-0.00000080,0.00000067
 ,0.00000014,0.00000096,-0.00000032,-0.00000087,-0.00000310,-0.00000013
 ,-0.00000403,0.00000182,0.00000273,0.00000128,-0.00001724,0.00000654,-
 0.00001492,0.00002074,0.00000409,0.00001407,0.00000170,-0.00000151,-0.
 00000306,-0.00000501,-0.00000092,-0.00001099,-0.00000148,0.00000101,-0
 .00000509,-0.00000351,0.00000761,-0.00000890,-0.00000695,0.00000003,0.
 00000080,0.00000011,0.00000166,-0.00000605,0.00000026,0.00000044,-0.00
 000229,-0.00000030,0.00000002,0.00000050,-0.00000052,-0.00000036,0.000
 00275,-0.00000054,-0.00000085,0.00000519,-0.00000048,-0.00000135,0.000
 00603,0.00000012,-0.00000129,0.00000538,0.00000070,-0.00000132,0.00000
 348,0.00000120,-0.00000088,0.00000067,0.00000194,-0.00000057,-0.000001
 63,0.00000233,-0.00000019,-0.00000367,0.00000232,-0.00000063,-0.000005
 14,0.00000504,-0.00000558,-0.00000379\\\@


 IF YOU WANT TO LEARN FROM THE THEORETICAL PHYSICISTS ABOUT THE
 METHODS WHICH THEY USE, I ADVISE YOU TO FOLLOW THIS PRINCIPLE VERY STRICTLY:
 DON'T LISTEN TO THEIR WORDS; PAY ATTENTION, INSTEAD, TO THEIR ACTIONS.
 -- A.EINSTEIN, 1934
 Job cpu time:       1 days  0 hours 45 minutes 34.9 seconds.
 Elapsed time:       0 days  1 hours 14 minutes 29.2 seconds.
 File lengths (MBytes):  RWF=   2277 Int=      0 D2E=      0 Chk=     57 Scr=      1
 Normal termination of Gaussian 16 at Thu Jun 20 00:10:37 2019.
