 Entering Gaussian System, Link 0=/share/apps/gaussian16/g16/g16
 Initial command:
 /share/apps/gaussian16/g16/l1.exe "/home/amen01//scratch/584/Gau-36004.inp" -scrdir="/home/amen01//scratch/584/"
 Entering Link 1 = /share/apps/gaussian16/g16/l1.exe PID=     36005.
  
 Copyright (c) 1988-2017, Gaussian, Inc.  All Rights Reserved.
  
 This is part of the Gaussian(R) 16 program.  It is based on
 the Gaussian(R) 09 system (copyright 2009, Gaussian, Inc.),
 the Gaussian(R) 03 system (copyright 2003, Gaussian, Inc.),
 the Gaussian(R) 98 system (copyright 1998, Gaussian, Inc.),
 the Gaussian(R) 94 system (copyright 1995, Gaussian, Inc.),
 the Gaussian 92(TM) system (copyright 1992, Gaussian, Inc.),
 the Gaussian 90(TM) system (copyright 1990, Gaussian, Inc.),
 the Gaussian 88(TM) system (copyright 1988, Gaussian, Inc.),
 the Gaussian 86(TM) system (copyright 1986, Carnegie Mellon
 University), and the Gaussian 82(TM) system (copyright 1983,
 Carnegie Mellon University). Gaussian is a federally registered
 trademark of Gaussian, Inc.
  
 This software contains proprietary and confidential information,
 including trade secrets, belonging to Gaussian, Inc.
  
 This software is provided under written license and may be
 used, copied, transmitted, or stored only in accord with that
 written license.
  
 The following legend is applicable only to US Government
 contracts under FAR:
  
                    RESTRICTED RIGHTS LEGEND
  
 Use, reproduction and disclosure by the US Government is
 subject to restrictions as set forth in subparagraphs (a)
 and (c) of the Commercial Computer Software - Restricted
 Rights clause in FAR 52.227-19.
  
 Gaussian, Inc.
 340 Quinnipiac St., Bldg. 40, Wallingford CT 06492
  
  
 ---------------------------------------------------------------
 Warning -- This program may not be used in any manner that
 competes with the business of Gaussian, Inc. or will provide
 assistance to any competitor of Gaussian, Inc.  The licensee
 of this program is prohibited from giving any competitor of
 Gaussian, Inc. access to this program.  By using this program,
 the user acknowledges that Gaussian, Inc. is engaged in the
 business of creating and licensing software in the field of
 computational chemistry and represents and warrants to the
 licensee that it is not a competitor of Gaussian, Inc. and that
 it will not use this program in any manner prohibited above.
 ---------------------------------------------------------------
  

 Cite this work as:
 Gaussian 16, Revision B.01,
 M. J. Frisch, G. W. Trucks, H. B. Schlegel, G. E. Scuseria, 
 M. A. Robb, J. R. Cheeseman, G. Scalmani, V. Barone, 
 G. A. Petersson, H. Nakatsuji, X. Li, M. Caricato, A. V. Marenich, 
 J. Bloino, B. G. Janesko, R. Gomperts, B. Mennucci, H. P. Hratchian, 
 J. V. Ortiz, A. F. Izmaylov, J. L. Sonnenberg, D. Williams-Young, 
 F. Ding, F. Lipparini, F. Egidi, J. Goings, B. Peng, A. Petrone, 
 T. Henderson, D. Ranasinghe, V. G. Zakrzewski, J. Gao, N. Rega, 
 G. Zheng, W. Liang, M. Hada, M. Ehara, K. Toyota, R. Fukuda, 
 J. Hasegawa, M. Ishida, T. Nakajima, Y. Honda, O. Kitao, H. Nakai, 
 T. Vreven, K. Throssell, J. A. Montgomery, Jr., J. E. Peralta, 
 F. Ogliaro, M. J. Bearpark, J. J. Heyd, E. N. Brothers, K. N. Kudin, 
 V. N. Staroverov, T. A. Keith, R. Kobayashi, J. Normand, 
 K. Raghavachari, A. P. Rendell, J. C. Burant, S. S. Iyengar, 
 J. Tomasi, M. Cossi, J. M. Millam, M. Klene, C. Adamo, R. Cammi, 
 J. W. Ochterski, R. L. Martin, K. Morokuma, O. Farkas, 
 J. B. Foresman, and D. J. Fox, Gaussian, Inc., Wallingford CT, 2016.
 
 ******************************************
 Gaussian 16:  ES64L-G16RevB.01 20-Dec-2017
                21-Jun-2019 
 ******************************************
 %nprocshared=20
 Will use up to   20 processors via shared memory.
 %mem=100GB
 %chk=7-memb-carbTSguess-4c.chk
 ---------------------------------------------------------------
 # opt=(ts,calcfc,noeigen) freq b3lyp/6-311+g(d,p) int=grid=fine
 ---------------------------------------------------------------
 1/5=1,10=4,11=1,18=20,26=3,38=1/1,3;
 2/9=110,12=2,17=6,18=5,40=1/2;
 3/5=4,6=6,7=111,11=2,25=1,30=1,71=2,74=-5,75=-4,140=1/1,2,3;
 4//1;
 5/5=2,38=5/2;
 8/6=4,10=90,11=11/1;
 11/6=1,8=1,9=11,15=111,16=1/1,2,10;
 10/6=1,13=1/2;
 6/7=2,8=2,9=2,10=2,28=1/1;
 7/10=1,18=20,25=1/1,2,3,16;
 1/5=1,10=4,11=1,18=20,26=3/3(2);
 2/9=110/2;
 99//99;
 2/9=110/2;
 3/5=4,6=6,7=111,11=2,25=1,30=1,71=1,74=-5,75=-4/1,2,3;
 4/5=5,16=3,69=1/1;
 5/5=2,38=5/2;
 7//1,2,3,16;
 1/5=1,11=1,18=20,26=3/3(-5);
 2/9=110/2;
 6/7=2,8=2,9=2,10=2,19=2,28=1/1;
 99/9=1/99;
 ---------------------
 7-memb-carbTSguess-4c
 ---------------------
 Symbolic Z-matrix:
 Charge =  0 Multiplicity = 1
 C                     1.65447  -2.79318  -0.03312 
 C                     1.46934  -1.44544   0.24731 
 C                     2.54322  -0.55038   0.31876 
 C                     3.86184  -0.87259   0.07406 
 C                     3.04175  -3.19575  -0.17964 
 C                     4.08476  -2.28996  -0.13623 
 C                     2.02365   0.74121   0.37316 
 C                     2.81732   1.84587   0.1346 
 C                     4.21786   1.56807  -0.02802 
 C                     4.72502   0.27099  -0.05103 
 C                     0.59984   0.67687   0.36629 
 C                    -0.14424   1.8462    0.08494 
 C                     0.69132   3.07182  -0.06992 
 C                     2.07486   3.05961  -0.03386 
 C                     0.45036  -3.50156  -0.21557 
 C                    -0.7988   -2.84643  -0.16925 
 C                    -0.9381   -1.40534   0.02991 
 C                     0.25488  -0.73081   0.26116 
 C                     0.01869   4.31683  -0.37927 
 C                    -1.53396   1.85086  -0.03872 
 C                    -2.19645   3.20131  -0.26602 
 C                    -1.30852   4.37576  -0.50592 
 C                    -1.99088  -3.62338  -0.32138 
 C                    -3.20501  -3.03796  -0.23547 
 C                    -3.36648  -1.62139  -0.03775 
 C                    -2.23211  -0.74481   0.02947 
 C                    -2.47132   0.70045   0.11326 
 C                    -3.82162   1.07959   0.29201 
 C                    -4.67849  -1.14073   0.09827 
 C                    -4.89757   0.20081   0.30563 
 H                    -5.8993    0.58542   0.45857 
 H                    -4.06731   2.11726   0.43163 
 H                     0.59364   1.27658   3.10513 
 H                    -5.50332  -1.84319   0.05759 
 H                    -4.10762  -3.63371  -0.31463 
 H                    -1.90088  -4.69245  -0.4798 
 H                     0.45478  -4.56875  -0.41414 
 H                     3.26798  -4.23983  -0.36952 
 H                     5.09413  -2.65413  -0.29893 
 H                     5.78819   0.13209  -0.21754 
 H                     4.9052    2.39382  -0.18048 
 H                     2.59549   3.99735  -0.20137 
 H                     0.63034   5.20003  -0.53032 
 H                    -1.80146   5.31086  -0.75115 
 H                    -2.92516   3.12508  -1.08232 
 H                    -2.79849   3.45451   0.62127 
 
 Add virtual bond connecting atoms H33        and C11        Dist= 5.30D+00.

 GradGradGradGradGradGradGradGradGradGradGradGradGradGradGradGradGradGrad
 Berny optimization.
 Initialization pass.
                           ----------------------------
                           !    Initial Parameters    !
                           ! (Angstroms and Degrees)  !
 --------------------------                            --------------------------
 ! Name  Definition              Value          Derivative Info.                !
 --------------------------------------------------------------------------------
 ! R1    R(1,2)                  1.389          calculate D2E/DX2 analytically  !
 ! R2    R(1,5)                  1.4519         calculate D2E/DX2 analytically  !
 ! R3    R(1,15)                 1.4089         calculate D2E/DX2 analytically  !
 ! R4    R(2,3)                  1.3998         calculate D2E/DX2 analytically  !
 ! R5    R(2,18)                 1.4092         calculate D2E/DX2 analytically  !
 ! R6    R(3,4)                  1.3793         calculate D2E/DX2 analytically  !
 ! R7    R(3,7)                  1.3932         calculate D2E/DX2 analytically  !
 ! R8    R(4,6)                  1.4501         calculate D2E/DX2 analytically  !
 ! R9    R(4,10)                 1.4382         calculate D2E/DX2 analytically  !
 ! R10   R(5,6)                  1.3821         calculate D2E/DX2 analytically  !
 ! R11   R(5,38)                 1.0851         calculate D2E/DX2 analytically  !
 ! R12   R(6,39)                 1.0853         calculate D2E/DX2 analytically  !
 ! R13   R(7,8)                  1.381          calculate D2E/DX2 analytically  !
 ! R14   R(7,11)                 1.4253         calculate D2E/DX2 analytically  !
 ! R15   R(8,9)                  1.4371         calculate D2E/DX2 analytically  !
 ! R16   R(8,14)                 1.4328         calculate D2E/DX2 analytically  !
 ! R17   R(9,10)                 1.3929         calculate D2E/DX2 analytically  !
 ! R18   R(9,41)                 1.0852         calculate D2E/DX2 analytically  !
 ! R19   R(10,40)                1.0851         calculate D2E/DX2 analytically  !
 ! R20   R(11,12)                1.4143         calculate D2E/DX2 analytically  !
 ! R21   R(11,18)                1.4531         calculate D2E/DX2 analytically  !
 ! R22   R(11,33)                2.8037         calculate D2E/DX2 analytically  !
 ! R23   R(12,13)                1.4914         calculate D2E/DX2 analytically  !
 ! R24   R(12,20)                1.3952         calculate D2E/DX2 analytically  !
 ! R25   R(13,14)                1.3841         calculate D2E/DX2 analytically  !
 ! R26   R(13,19)                1.4485         calculate D2E/DX2 analytically  !
 ! R27   R(14,42)                1.0856         calculate D2E/DX2 analytically  !
 ! R28   R(15,16)                1.4113         calculate D2E/DX2 analytically  !
 ! R29   R(15,37)                1.0855         calculate D2E/DX2 analytically  !
 ! R30   R(16,17)                1.4614         calculate D2E/DX2 analytically  !
 ! R31   R(16,23)                1.431          calculate D2E/DX2 analytically  !
 ! R32   R(17,18)                1.3898         calculate D2E/DX2 analytically  !
 ! R33   R(17,26)                1.4528         calculate D2E/DX2 analytically  !
 ! R34   R(19,22)                1.3345         calculate D2E/DX2 analytically  !
 ! R35   R(19,43)                1.0849         calculate D2E/DX2 analytically  !
 ! R36   R(20,21)                1.5213         calculate D2E/DX2 analytically  !
 ! R37   R(20,27)                1.4917         calculate D2E/DX2 analytically  !
 ! R38   R(21,22)                1.4917         calculate D2E/DX2 analytically  !
 ! R39   R(21,45)                1.0969         calculate D2E/DX2 analytically  !
 ! R40   R(21,46)                1.1017         calculate D2E/DX2 analytically  !
 ! R41   R(22,44)                1.0851         calculate D2E/DX2 analytically  !
 ! R42   R(23,24)                1.3506         calculate D2E/DX2 analytically  !
 ! R43   R(23,36)                1.0845         calculate D2E/DX2 analytically  !
 ! R44   R(24,25)                1.4394         calculate D2E/DX2 analytically  !
 ! R45   R(24,35)                1.0844         calculate D2E/DX2 analytically  !
 ! R46   R(25,26)                1.4352         calculate D2E/DX2 analytically  !
 ! R47   R(25,29)                1.4039         calculate D2E/DX2 analytically  !
 ! R48   R(26,27)                1.4673         calculate D2E/DX2 analytically  !
 ! R49   R(27,28)                1.4139         calculate D2E/DX2 analytically  !
 ! R50   R(28,30)                1.3893         calculate D2E/DX2 analytically  !
 ! R51   R(28,32)                1.0755         calculate D2E/DX2 analytically  !
 ! R52   R(29,30)                1.375          calculate D2E/DX2 analytically  !
 ! R53   R(29,34)                1.0842         calculate D2E/DX2 analytically  !
 ! R54   R(30,31)                1.0839         calculate D2E/DX2 analytically  !
 ! A1    A(2,1,5)              114.6297         calculate D2E/DX2 analytically  !
 ! A2    A(2,1,15)             113.5839         calculate D2E/DX2 analytically  !
 ! A3    A(5,1,15)             131.6154         calculate D2E/DX2 analytically  !
 ! A4    A(1,2,3)              121.903          calculate D2E/DX2 analytically  !
 ! A5    A(1,2,18)             127.5105         calculate D2E/DX2 analytically  !
 ! A6    A(3,2,18)             109.6572         calculate D2E/DX2 analytically  !
 ! A7    A(2,3,4)              125.0987         calculate D2E/DX2 analytically  !
 ! A8    A(2,3,7)              107.9791         calculate D2E/DX2 analytically  !
 ! A9    A(4,3,7)              125.451          calculate D2E/DX2 analytically  !
 ! A10   A(3,4,6)              113.6422         calculate D2E/DX2 analytically  !
 ! A11   A(3,4,10)             113.7941         calculate D2E/DX2 analytically  !
 ! A12   A(6,4,10)             132.2444         calculate D2E/DX2 analytically  !
 ! A13   A(1,5,6)              122.424          calculate D2E/DX2 analytically  !
 ! A14   A(1,5,38)             118.9253         calculate D2E/DX2 analytically  !
 ! A15   A(6,5,38)             118.6052         calculate D2E/DX2 analytically  !
 ! A16   A(4,6,5)              121.9449         calculate D2E/DX2 analytically  !
 ! A17   A(4,6,39)             119.5165         calculate D2E/DX2 analytically  !
 ! A18   A(5,6,39)             118.5052         calculate D2E/DX2 analytically  !
 ! A19   A(3,7,8)              121.3646         calculate D2E/DX2 analytically  !
 ! A20   A(3,7,11)             109.2994         calculate D2E/DX2 analytically  !
 ! A21   A(8,7,11)             127.5459         calculate D2E/DX2 analytically  !
 ! A22   A(7,8,9)              115.1524         calculate D2E/DX2 analytically  !
 ! A23   A(7,8,14)             113.5862         calculate D2E/DX2 analytically  !
 ! A24   A(9,8,14)             130.9569         calculate D2E/DX2 analytically  !
 ! A25   A(8,9,10)             122.4617         calculate D2E/DX2 analytically  !
 ! A26   A(8,9,41)             119.0852         calculate D2E/DX2 analytically  !
 ! A27   A(10,9,41)            118.4027         calculate D2E/DX2 analytically  !
 ! A28   A(4,10,9)             121.364          calculate D2E/DX2 analytically  !
 ! A29   A(4,10,40)            119.9753         calculate D2E/DX2 analytically  !
 ! A30   A(9,10,40)            118.5874         calculate D2E/DX2 analytically  !
 ! A31   A(7,11,12)            119.2895         calculate D2E/DX2 analytically  !
 ! A32   A(7,11,18)            106.333          calculate D2E/DX2 analytically  !
 ! A33   A(7,11,33)             89.3037         calculate D2E/DX2 analytically  !
 ! A34   A(12,11,18)           131.4261         calculate D2E/DX2 analytically  !
 ! A35   A(12,11,33)            90.9352         calculate D2E/DX2 analytically  !
 ! A36   A(18,11,33)           106.1022         calculate D2E/DX2 analytically  !
 ! A37   A(11,12,13)           113.9139         calculate D2E/DX2 analytically  !
 ! A38   A(11,12,20)           122.9869         calculate D2E/DX2 analytically  !
 ! A39   A(13,12,20)           123.0991         calculate D2E/DX2 analytically  !
 ! A40   A(12,13,14)           123.3724         calculate D2E/DX2 analytically  !
 ! A41   A(12,13,19)           117.9279         calculate D2E/DX2 analytically  !
 ! A42   A(14,13,19)           118.5112         calculate D2E/DX2 analytically  !
 ! A43   A(8,14,13)            121.907          calculate D2E/DX2 analytically  !
 ! A44   A(8,14,42)            120.0923         calculate D2E/DX2 analytically  !
 ! A45   A(13,14,42)           117.8893         calculate D2E/DX2 analytically  !
 ! A46   A(1,15,16)            121.253          calculate D2E/DX2 analytically  !
 ! A47   A(1,15,37)            120.9649         calculate D2E/DX2 analytically  !
 ! A48   A(16,15,37)           117.7736         calculate D2E/DX2 analytically  !
 ! A49   A(15,16,17)           123.1328         calculate D2E/DX2 analytically  !
 ! A50   A(15,16,23)           118.8031         calculate D2E/DX2 analytically  !
 ! A51   A(17,16,23)           118.064          calculate D2E/DX2 analytically  !
 ! A52   A(16,17,18)           114.7984         calculate D2E/DX2 analytically  !
 ! A53   A(16,17,26)           122.2196         calculate D2E/DX2 analytically  !
 ! A54   A(18,17,26)           122.9506         calculate D2E/DX2 analytically  !
 ! A55   A(2,18,11)            106.7011         calculate D2E/DX2 analytically  !
 ! A56   A(2,18,17)            119.4718         calculate D2E/DX2 analytically  !
 ! A57   A(11,18,17)           133.31           calculate D2E/DX2 analytically  !
 ! A58   A(13,19,22)           121.3344         calculate D2E/DX2 analytically  !
 ! A59   A(13,19,43)           117.8821         calculate D2E/DX2 analytically  !
 ! A60   A(22,19,43)           120.7661         calculate D2E/DX2 analytically  !
 ! A61   A(12,20,21)           116.7419         calculate D2E/DX2 analytically  !
 ! A62   A(12,20,27)           127.9013         calculate D2E/DX2 analytically  !
 ! A63   A(21,20,27)           115.2252         calculate D2E/DX2 analytically  !
 ! A64   A(20,21,22)           117.627          calculate D2E/DX2 analytically  !
 ! A65   A(20,21,45)           109.8042         calculate D2E/DX2 analytically  !
 ! A66   A(20,21,46)           108.7626         calculate D2E/DX2 analytically  !
 ! A67   A(22,21,45)           109.297          calculate D2E/DX2 analytically  !
 ! A68   A(22,21,46)           105.8934         calculate D2E/DX2 analytically  !
 ! A69   A(45,21,46)           104.612          calculate D2E/DX2 analytically  !
 ! A70   A(19,22,21)           122.815          calculate D2E/DX2 analytically  !
 ! A71   A(19,22,44)           120.7484         calculate D2E/DX2 analytically  !
 ! A72   A(21,22,44)           116.3844         calculate D2E/DX2 analytically  !
 ! A73   A(16,23,24)           120.447          calculate D2E/DX2 analytically  !
 ! A74   A(16,23,36)           118.7908         calculate D2E/DX2 analytically  !
 ! A75   A(24,23,36)           120.7419         calculate D2E/DX2 analytically  !
 ! A76   A(23,24,25)           122.4217         calculate D2E/DX2 analytically  !
 ! A77   A(23,24,35)           120.3632         calculate D2E/DX2 analytically  !
 ! A78   A(25,24,35)           117.2151         calculate D2E/DX2 analytically  !
 ! A79   A(24,25,26)           121.2567         calculate D2E/DX2 analytically  !
 ! A80   A(24,25,29)           117.071          calculate D2E/DX2 analytically  !
 ! A81   A(26,25,29)           121.6697         calculate D2E/DX2 analytically  !
 ! A82   A(17,26,25)           115.2342         calculate D2E/DX2 analytically  !
 ! A83   A(17,26,27)           126.3698         calculate D2E/DX2 analytically  !
 ! A84   A(25,26,27)           118.3869         calculate D2E/DX2 analytically  !
 ! A85   A(20,27,26)           130.6433         calculate D2E/DX2 analytically  !
 ! A86   A(20,27,28)           113.9673         calculate D2E/DX2 analytically  !
 ! A87   A(26,27,28)           115.2799         calculate D2E/DX2 analytically  !
 ! A88   A(27,28,30)           124.8388         calculate D2E/DX2 analytically  !
 ! A89   A(27,28,32)           119.5594         calculate D2E/DX2 analytically  !
 ! A90   A(30,28,32)           115.6017         calculate D2E/DX2 analytically  !
 ! A91   A(25,29,30)           119.8376         calculate D2E/DX2 analytically  !
 ! A92   A(25,29,34)           119.0472         calculate D2E/DX2 analytically  !
 ! A93   A(30,29,34)           121.1032         calculate D2E/DX2 analytically  !
 ! A94   A(28,30,29)           119.4895         calculate D2E/DX2 analytically  !
 ! A95   A(28,30,31)           119.5181         calculate D2E/DX2 analytically  !
 ! A96   A(29,30,31)           120.9796         calculate D2E/DX2 analytically  !
 ! D1    D(5,1,2,3)              2.7584         calculate D2E/DX2 analytically  !
 ! D2    D(5,1,2,18)           170.5494         calculate D2E/DX2 analytically  !
 ! D3    D(15,1,2,3)          -173.0506         calculate D2E/DX2 analytically  !
 ! D4    D(15,1,2,18)           -5.2596         calculate D2E/DX2 analytically  !
 ! D5    D(2,1,5,6)             -4.335          calculate D2E/DX2 analytically  !
 ! D6    D(2,1,5,38)           178.1523         calculate D2E/DX2 analytically  !
 ! D7    D(15,1,5,6)           170.5251         calculate D2E/DX2 analytically  !
 ! D8    D(15,1,5,38)           -6.9876         calculate D2E/DX2 analytically  !
 ! D9    D(2,1,15,16)            2.7308         calculate D2E/DX2 analytically  !
 ! D10   D(2,1,15,37)         -178.3556         calculate D2E/DX2 analytically  !
 ! D11   D(5,1,15,16)         -172.1712         calculate D2E/DX2 analytically  !
 ! D12   D(5,1,15,37)            6.7424         calculate D2E/DX2 analytically  !
 ! D13   D(1,2,3,4)              2.751          calculate D2E/DX2 analytically  !
 ! D14   D(1,2,3,7)            169.4987         calculate D2E/DX2 analytically  !
 ! D15   D(18,2,3,4)          -166.9878         calculate D2E/DX2 analytically  !
 ! D16   D(18,2,3,7)            -0.2401         calculate D2E/DX2 analytically  !
 ! D17   D(1,2,18,11)         -169.8636         calculate D2E/DX2 analytically  !
 ! D18   D(1,2,18,17)            2.9559         calculate D2E/DX2 analytically  !
 ! D19   D(3,2,18,11)           -0.854          calculate D2E/DX2 analytically  !
 ! D20   D(3,2,18,17)          171.9655         calculate D2E/DX2 analytically  !
 ! D21   D(2,3,4,6)             -6.2574         calculate D2E/DX2 analytically  !
 ! D22   D(2,3,4,10)           168.0624         calculate D2E/DX2 analytically  !
 ! D23   D(7,3,4,6)           -170.7319         calculate D2E/DX2 analytically  !
 ! D24   D(7,3,4,10)             3.5879         calculate D2E/DX2 analytically  !
 ! D25   D(2,3,7,8)           -164.5705         calculate D2E/DX2 analytically  !
 ! D26   D(2,3,7,11)             1.2743         calculate D2E/DX2 analytically  !
 ! D27   D(4,3,7,8)              2.1184         calculate D2E/DX2 analytically  !
 ! D28   D(4,3,7,11)           167.9632         calculate D2E/DX2 analytically  !
 ! D29   D(3,4,6,5)              4.4662         calculate D2E/DX2 analytically  !
 ! D30   D(3,4,6,39)          -177.6687         calculate D2E/DX2 analytically  !
 ! D31   D(10,4,6,5)          -168.5068         calculate D2E/DX2 analytically  !
 ! D32   D(10,4,6,39)            9.3582         calculate D2E/DX2 analytically  !
 ! D33   D(3,4,10,9)            -4.8163         calculate D2E/DX2 analytically  !
 ! D34   D(3,4,10,40)          178.3411         calculate D2E/DX2 analytically  !
 ! D35   D(6,4,10,9)           168.1486         calculate D2E/DX2 analytically  !
 ! D36   D(6,4,10,40)           -8.694          calculate D2E/DX2 analytically  !
 ! D37   D(1,5,6,4)              0.684          calculate D2E/DX2 analytically  !
 ! D38   D(1,5,6,39)          -177.2019         calculate D2E/DX2 analytically  !
 ! D39   D(38,5,6,4)           178.2043         calculate D2E/DX2 analytically  !
 ! D40   D(38,5,6,39)            0.3185         calculate D2E/DX2 analytically  !
 ! D41   D(3,7,8,9)             -6.2656         calculate D2E/DX2 analytically  !
 ! D42   D(3,7,8,14)           168.103          calculate D2E/DX2 analytically  !
 ! D43   D(11,7,8,9)          -169.3415         calculate D2E/DX2 analytically  !
 ! D44   D(11,7,8,14)            5.0271         calculate D2E/DX2 analytically  !
 ! D45   D(3,7,11,12)         -164.5057         calculate D2E/DX2 analytically  !
 ! D46   D(3,7,11,18)           -1.7747         calculate D2E/DX2 analytically  !
 ! D47   D(3,7,11,33)          104.8126         calculate D2E/DX2 analytically  !
 ! D48   D(8,7,11,12)            0.2243         calculate D2E/DX2 analytically  !
 ! D49   D(8,7,11,18)          162.9554         calculate D2E/DX2 analytically  !
 ! D50   D(8,7,11,33)          -90.4574         calculate D2E/DX2 analytically  !
 ! D51   D(7,8,9,10)             4.9436         calculate D2E/DX2 analytically  !
 ! D52   D(7,8,9,41)          -177.6837         calculate D2E/DX2 analytically  !
 ! D53   D(14,8,9,10)         -168.2173         calculate D2E/DX2 analytically  !
 ! D54   D(14,8,9,41)            9.1554         calculate D2E/DX2 analytically  !
 ! D55   D(7,8,14,13)           -5.4859         calculate D2E/DX2 analytically  !
 ! D56   D(7,8,14,42)          178.4326         calculate D2E/DX2 analytically  !
 ! D57   D(9,8,14,13)          167.7596         calculate D2E/DX2 analytically  !
 ! D58   D(9,8,14,42)           -8.3219         calculate D2E/DX2 analytically  !
 ! D59   D(8,9,10,4)             0.6733         calculate D2E/DX2 analytically  !
 ! D60   D(8,9,10,40)          177.5586         calculate D2E/DX2 analytically  !
 ! D61   D(41,9,10,4)         -176.7165         calculate D2E/DX2 analytically  !
 ! D62   D(41,9,10,40)           0.1688         calculate D2E/DX2 analytically  !
 ! D63   D(7,11,12,13)          -4.7298         calculate D2E/DX2 analytically  !
 ! D64   D(7,11,12,20)         175.1587         calculate D2E/DX2 analytically  !
 ! D65   D(18,11,12,13)       -162.4003         calculate D2E/DX2 analytically  !
 ! D66   D(18,11,12,20)         17.4882         calculate D2E/DX2 analytically  !
 ! D67   D(33,11,12,13)         84.9964         calculate D2E/DX2 analytically  !
 ! D68   D(33,11,12,20)        -95.1151         calculate D2E/DX2 analytically  !
 ! D69   D(7,11,18,2)            1.587          calculate D2E/DX2 analytically  !
 ! D70   D(7,11,18,17)        -169.8121         calculate D2E/DX2 analytically  !
 ! D71   D(12,11,18,2)         161.3871         calculate D2E/DX2 analytically  !
 ! D72   D(12,11,18,17)        -10.012          calculate D2E/DX2 analytically  !
 ! D73   D(33,11,18,2)         -92.5083         calculate D2E/DX2 analytically  !
 ! D74   D(33,11,18,17)         96.0926         calculate D2E/DX2 analytically  !
 ! D75   D(11,12,13,14)          4.1864         calculate D2E/DX2 analytically  !
 ! D76   D(11,12,13,19)        179.1161         calculate D2E/DX2 analytically  !
 ! D77   D(20,12,13,14)       -175.7019         calculate D2E/DX2 analytically  !
 ! D78   D(20,12,13,19)         -0.7722         calculate D2E/DX2 analytically  !
 ! D79   D(11,12,20,21)        176.6826         calculate D2E/DX2 analytically  !
 ! D80   D(11,12,20,27)          1.082          calculate D2E/DX2 analytically  !
 ! D81   D(13,12,20,21)         -3.4391         calculate D2E/DX2 analytically  !
 ! D82   D(13,12,20,27)       -179.0398         calculate D2E/DX2 analytically  !
 ! D83   D(12,13,14,8)           1.1118         calculate D2E/DX2 analytically  !
 ! D84   D(12,13,14,42)        177.276          calculate D2E/DX2 analytically  !
 ! D85   D(19,13,14,8)        -173.79           calculate D2E/DX2 analytically  !
 ! D86   D(19,13,14,42)          2.3742         calculate D2E/DX2 analytically  !
 ! D87   D(12,13,19,22)          0.8562         calculate D2E/DX2 analytically  !
 ! D88   D(12,13,19,43)       -177.6407         calculate D2E/DX2 analytically  !
 ! D89   D(14,13,19,22)        176.0382         calculate D2E/DX2 analytically  !
 ! D90   D(14,13,19,43)         -2.4588         calculate D2E/DX2 analytically  !
 ! D91   D(1,15,16,17)           1.7465         calculate D2E/DX2 analytically  !
 ! D92   D(1,15,16,23)        -178.1411         calculate D2E/DX2 analytically  !
 ! D93   D(37,15,16,17)       -177.2007         calculate D2E/DX2 analytically  !
 ! D94   D(37,15,16,23)          2.9117         calculate D2E/DX2 analytically  !
 ! D95   D(15,16,17,18)         -4.098          calculate D2E/DX2 analytically  !
 ! D96   D(15,16,17,26)        177.8847         calculate D2E/DX2 analytically  !
 ! D97   D(23,16,17,18)        175.7905         calculate D2E/DX2 analytically  !
 ! D98   D(23,16,17,26)         -2.2269         calculate D2E/DX2 analytically  !
 ! D99   D(15,16,23,24)        177.6579         calculate D2E/DX2 analytically  !
 ! D100  D(15,16,23,36)         -0.7159         calculate D2E/DX2 analytically  !
 ! D101  D(17,16,23,24)         -2.2355         calculate D2E/DX2 analytically  !
 ! D102  D(17,16,23,36)        179.3907         calculate D2E/DX2 analytically  !
 ! D103  D(16,17,18,2)           1.8721         calculate D2E/DX2 analytically  !
 ! D104  D(16,17,18,11)        172.402          calculate D2E/DX2 analytically  !
 ! D105  D(26,17,18,2)         179.8732         calculate D2E/DX2 analytically  !
 ! D106  D(26,17,18,11)         -9.597          calculate D2E/DX2 analytically  !
 ! D107  D(16,17,26,25)          6.3205         calculate D2E/DX2 analytically  !
 ! D108  D(16,17,26,27)       -174.7991         calculate D2E/DX2 analytically  !
 ! D109  D(18,17,26,25)       -171.5346         calculate D2E/DX2 analytically  !
 ! D110  D(18,17,26,27)          7.3458         calculate D2E/DX2 analytically  !
 ! D111  D(13,19,22,21)          3.5617         calculate D2E/DX2 analytically  !
 ! D112  D(13,19,22,44)       -179.1634         calculate D2E/DX2 analytically  !
 ! D113  D(43,19,22,21)       -177.9845         calculate D2E/DX2 analytically  !
 ! D114  D(43,19,22,44)         -0.7096         calculate D2E/DX2 analytically  !
 ! D115  D(12,20,21,22)          7.3865         calculate D2E/DX2 analytically  !
 ! D116  D(12,20,21,45)        133.1833         calculate D2E/DX2 analytically  !
 ! D117  D(12,20,21,46)       -112.8938         calculate D2E/DX2 analytically  !
 ! D118  D(27,20,21,22)       -176.45           calculate D2E/DX2 analytically  !
 ! D119  D(27,20,21,45)        -50.6532         calculate D2E/DX2 analytically  !
 ! D120  D(27,20,21,46)         63.2697         calculate D2E/DX2 analytically  !
 ! D121  D(12,20,27,26)        -20.5205         calculate D2E/DX2 analytically  !
 ! D122  D(12,20,27,28)        163.5252         calculate D2E/DX2 analytically  !
 ! D123  D(21,20,27,26)        163.8223         calculate D2E/DX2 analytically  !
 ! D124  D(21,20,27,28)        -12.132          calculate D2E/DX2 analytically  !
 ! D125  D(20,21,22,19)         -7.7693         calculate D2E/DX2 analytically  !
 ! D126  D(20,21,22,44)        174.8449         calculate D2E/DX2 analytically  !
 ! D127  D(45,21,22,19)       -133.8147         calculate D2E/DX2 analytically  !
 ! D128  D(45,21,22,44)         48.7995         calculate D2E/DX2 analytically  !
 ! D129  D(46,21,22,19)        113.9997         calculate D2E/DX2 analytically  !
 ! D130  D(46,21,22,44)        -63.3861         calculate D2E/DX2 analytically  !
 ! D131  D(16,23,24,25)          2.2262         calculate D2E/DX2 analytically  !
 ! D132  D(16,23,24,35)       -177.7474         calculate D2E/DX2 analytically  !
 ! D133  D(36,23,24,25)       -179.432          calculate D2E/DX2 analytically  !
 ! D134  D(36,23,24,35)          0.5944         calculate D2E/DX2 analytically  !
 ! D135  D(23,24,25,26)          2.3415         calculate D2E/DX2 analytically  !
 ! D136  D(23,24,25,29)       -177.0785         calculate D2E/DX2 analytically  !
 ! D137  D(35,24,25,26)       -177.6842         calculate D2E/DX2 analytically  !
 ! D138  D(35,24,25,29)          2.8958         calculate D2E/DX2 analytically  !
 ! D139  D(24,25,26,17)         -6.3612         calculate D2E/DX2 analytically  !
 ! D140  D(24,25,26,27)        174.6635         calculate D2E/DX2 analytically  !
 ! D141  D(29,25,26,17)        173.032          calculate D2E/DX2 analytically  !
 ! D142  D(29,25,26,27)         -5.9433         calculate D2E/DX2 analytically  !
 ! D143  D(24,25,29,30)        179.216          calculate D2E/DX2 analytically  !
 ! D144  D(24,25,29,34)          0.4635         calculate D2E/DX2 analytically  !
 ! D145  D(26,25,29,30)         -0.2014         calculate D2E/DX2 analytically  !
 ! D146  D(26,25,29,34)       -178.9539         calculate D2E/DX2 analytically  !
 ! D147  D(17,26,27,20)         13.0144         calculate D2E/DX2 analytically  !
 ! D148  D(17,26,27,28)       -171.0741         calculate D2E/DX2 analytically  !
 ! D149  D(25,26,27,20)       -168.1369         calculate D2E/DX2 analytically  !
 ! D150  D(25,26,27,28)          7.7747         calculate D2E/DX2 analytically  !
 ! D151  D(20,27,28,30)        172.408          calculate D2E/DX2 analytically  !
 ! D152  D(20,27,28,32)         -7.679          calculate D2E/DX2 analytically  !
 ! D153  D(26,27,28,30)         -4.1979         calculate D2E/DX2 analytically  !
 ! D154  D(26,27,28,32)        175.7151         calculate D2E/DX2 analytically  !
 ! D155  D(27,28,30,29)         -1.8343         calculate D2E/DX2 analytically  !
 ! D156  D(27,28,30,31)        179.4554         calculate D2E/DX2 analytically  !
 ! D157  D(32,28,30,29)        178.2496         calculate D2E/DX2 analytically  !
 ! D158  D(32,28,30,31)         -0.4607         calculate D2E/DX2 analytically  !
 ! D159  D(25,29,30,28)          4.1442         calculate D2E/DX2 analytically  !
 ! D160  D(25,29,30,31)       -177.1648         calculate D2E/DX2 analytically  !
 ! D161  D(34,29,30,28)       -177.1294         calculate D2E/DX2 analytically  !
 ! D162  D(34,29,30,31)          1.5615         calculate D2E/DX2 analytically  !
 --------------------------------------------------------------------------------
 Trust Radius=3.00D-01 FncErr=1.00D-07 GrdErr=1.00D-06 EigMax=2.50D+02 EigMin=1.00D-04
 Number of steps in this run=    276 maximum allowed number of steps=    276.
 Search for a saddle point of order  1.
 GradGradGradGradGradGradGradGradGradGradGradGradGradGradGradGradGradGrad

                          Input orientation:                          
 ---------------------------------------------------------------------
 Center     Atomic      Atomic             Coordinates (Angstroms)
 Number     Number       Type             X           Y           Z
 ---------------------------------------------------------------------
      1          6           0        1.654473   -2.793179   -0.033120
      2          6           0        1.469344   -1.445440    0.247309
      3          6           0        2.543220   -0.550378    0.318758
      4          6           0        3.861835   -0.872588    0.074063
      5          6           0        3.041745   -3.195745   -0.179639
      6          6           0        4.084763   -2.289963   -0.136226
      7          6           0        2.023652    0.741207    0.373159
      8          6           0        2.817320    1.845867    0.134598
      9          6           0        4.217857    1.568069   -0.028019
     10          6           0        4.725015    0.270991   -0.051034
     11          6           0        0.599842    0.676873    0.366292
     12          6           0       -0.144237    1.846195    0.084940
     13          6           0        0.691315    3.071818   -0.069923
     14          6           0        2.074864    3.059609   -0.033856
     15          6           0        0.450356   -3.501562   -0.215566
     16          6           0       -0.798798   -2.846433   -0.169245
     17          6           0       -0.938096   -1.405337    0.029907
     18          6           0        0.254879   -0.730814    0.261161
     19          6           0        0.018687    4.316827   -0.379269
     20          6           0       -1.533959    1.850856   -0.038718
     21          6           0       -2.196445    3.201311   -0.266015
     22          6           0       -1.308518    4.375760   -0.505922
     23          6           0       -1.990876   -3.623383   -0.321378
     24          6           0       -3.205009   -3.037964   -0.235466
     25          6           0       -3.366477   -1.621391   -0.037751
     26          6           0       -2.232111   -0.744809    0.029468
     27          6           0       -2.471323    0.700452    0.113256
     28          6           0       -3.821622    1.079585    0.292005
     29          6           0       -4.678493   -1.140730    0.098270
     30          6           0       -4.897568    0.200810    0.305629
     31          1           0       -5.899300    0.585421    0.458573
     32          1           0       -4.067314    2.117260    0.431628
     33          1           0        0.593641    1.276578    3.105129
     34          1           0       -5.503324   -1.843189    0.057588
     35          1           0       -4.107622   -3.633712   -0.314625
     36          1           0       -1.900877   -4.692451   -0.479803
     37          1           0        0.454776   -4.568753   -0.414136
     38          1           0        3.267975   -4.239834   -0.369518
     39          1           0        5.094131   -2.654131   -0.298931
     40          1           0        5.788187    0.132094   -0.217543
     41          1           0        4.905199    2.393823   -0.180482
     42          1           0        2.595492    3.997351   -0.201366
     43          1           0        0.630341    5.200026   -0.530319
     44          1           0       -1.801460    5.310860   -0.751146
     45          1           0       -2.925160    3.125081   -1.082319
     46          1           0       -2.798494    3.454507    0.621269
 ---------------------------------------------------------------------
                    Distance matrix (angstroms):
                    1          2          3          4          5
     1  C    0.000000
     2  C    1.388997   0.000000
     3  C    2.438000   1.399804   0.000000
     4  C    2.927901   2.466209   1.379290   0.000000
     5  C    1.451913   2.391296   2.737680   2.476685   0.000000
     6  C    2.483982   2.775020   2.368443   1.450128   1.382104
     7  C    3.576764   2.259319   1.393234   2.464287   4.103863
     8  C    4.785508   3.558433   2.418891   2.912846   5.056378
     9  C    5.058799   4.087954   2.722587   2.468599   4.909191
    10  C    4.337936   3.692497   2.360428   1.438229   3.855930
    11  C    3.648704   2.296607   2.298939   3.623096   4.610651
    12  C    4.977257   3.669451   3.608415   4.841540   5.970062
    13  C    5.943670   4.594734   4.086677   5.062733   6.694692
    14  C    5.867866   4.554248   3.657280   4.320542   6.331316
    15  C    1.408897   2.340989   3.657194   4.316663   2.609619
    16  C    2.457622   2.698290   4.084005   5.067224   3.856410
    17  C    2.941342   2.417569   3.596380   4.829608   4.369051
    18  C    2.509744   1.409187   2.296166   3.614587   3.746573
    19  C    7.303958   5.975009   5.527223   6.473432   8.100461
    20  C    5.633222   4.468468   4.745219   6.045201   6.813597
    21  C    7.128655   5.940859   6.073019   7.308561   8.268520
    22  C    7.771521   6.493862   6.307362   7.390135   8.738360
    23  C    3.749787   4.127949   5.514631   6.479002   5.052746
    24  C    4.869849   4.961732   6.287876   7.397631   6.248996
    25  C    5.155875   4.847410   6.016534   7.267854   6.600305
    26  C    4.393777   3.773474   4.788035   6.095449   5.819310
    27  C    5.408242   4.489062   5.172277   6.525709   6.757223
    28  C    6.715030   5.862770   6.570290   7.930573   8.099796
    29  C    6.546320   6.157188   7.249156   8.544571   7.993897
    30  C    7.211655   6.576558   7.478622   8.827964   8.648975
    31  H    8.289523   7.646303   8.519726   9.876912   9.728660
    32  H    7.554287   6.586455   7.129389   8.481654   8.896088
    33  H    5.247561   4.042694   3.860374   4.948471   6.065030
    34  H    7.221133   6.986580   8.153922   9.415335   8.654703
    35  H    5.829878   6.017213   7.358113   8.443171   7.164041
    36  H    4.055524   4.736049   6.127354   6.935919   5.172982
    37  H    2.176490   3.349917   4.587600   5.050547   2.938120
    38  H    2.193026   3.379968   3.822444   3.447866   1.085060
    39  H    3.452714   3.859844   3.363698   2.198084   2.125997
    40  H    5.067428   4.621375   3.359047   2.192089   4.314962
    41  H    6.123228   5.169917   3.807428   3.438436   5.892006
    42  H    6.857487   5.576154   4.577674   5.039424   7.206958
    43  H    8.073870   6.743208   6.119410   6.905394   8.742243
    44  H    8.839371   7.572494   7.373944   8.425492   9.805385
    45  H    7.556432   6.478367   6.736111   7.961274   8.739086
    46  H    7.700047   6.508745   6.683152   7.961355   8.886827
                    6          7          8          9         10
     6  C    0.000000
     7  C    3.700763   0.000000
     8  C    4.334149   1.380976   0.000000
     9  C    3.861843   2.378903   1.437053   0.000000
    10  C    2.641149   2.774600   2.480724   1.392893   0.000000
    11  C    4.604271   1.425279   2.517427   3.746965   4.166048
    12  C    5.919557   2.450268   2.961973   4.372411   5.119509
    13  C    6.345753   2.720881   2.462657   3.833995   4.910776
    14  C    5.715601   2.354415   1.432755   2.610966   3.847075
    15  C    3.831864   4.563217   5.858339   6.319050   5.703677
    16  C    4.915274   4.596911   5.931805   6.683906   6.343880
    17  C    5.102869   3.673884   4.968343   5.952172   5.906560
    18  C    4.154139   2.303898   3.636125   4.590608   4.591644
    19  C    7.761554   4.167864   3.768561   5.031111   6.214986
    20  C    6.980396   3.749341   4.354732   5.758773   6.455299
    21  C    8.344130   4.926446   5.209180   6.623246   7.519282
    22  C    8.582308   5.008604   4.881922   6.217101   7.311605
    23  C    6.222996   5.970633   7.296531   8.098494   7.768039
    24  C    7.328720   6.480081   7.762551   8.738279   8.594677
    25  C    7.481822   5.899509   7.091610   8.227689   8.309845
    26  C    6.505217   4.520828   5.676214   6.852357   7.031354
    27  C    7.210207   4.502667   5.411301   6.746692   7.211013
    28  C    8.605124   5.855622   6.684872   8.060661   8.591653
    29  C    8.841402   6.966778   8.068971   9.300462   9.510058
    30  C    9.331745   6.942613   7.890181   9.223432   9.629446
    31  H   10.406879   7.924944   8.813237  10.176406  10.641176
    32  H    9.284526   6.244742   6.896381   8.316065   8.997040
    33  H    5.951011   3.129731   3.754050   4.799638   5.295358
    34  H    9.600447   7.964550   9.102098  10.302688  10.445117
    35  H    8.303774   7.563431   8.842082   9.821113   9.660831
    36  H    6.458938   6.756783   8.086314   8.765679   8.289876
    37  H    4.294988   5.592574   6.857848   7.209053   6.464511
    38  H    2.126867   5.187550   6.123151   5.894967   4.750994
    39  H    1.085318   4.626864   5.061798   4.320674   2.958722
    40  H    2.962200   3.858973   3.447763   2.136324   1.085059
    41  H    4.755305   3.367636   2.181460   1.085151   2.134394
    42  H    6.461617   3.355526   2.188827   2.926351   4.294558
    43  H    8.257619   4.758010   4.058987   5.129687   6.425843
    44  H    9.633185   6.064427   5.841562   7.124856   8.275585
    45  H    8.908244   5.682606   6.007774   7.386374   8.230101
    46  H    8.997331   5.538650   5.861906   7.294478   8.196948
                   11         12         13         14         15
    11  C    0.000000
    12  C    1.414258   0.000000
    13  C    2.436065   1.491403   0.000000
    14  C    2.830767   2.531975   1.384073   0.000000
    15  C    4.221401   5.389095   6.579407   6.761731   0.000000
    16  C    3.828404   4.744873   6.103769   6.569444   1.411285
    17  C    2.610365   3.347492   4.765487   5.386811   2.526305
    18  C    1.453146   2.613680   3.841888   4.215055   2.818248
    19  C    3.760700   2.519138   1.448506   2.434701   7.832008
    20  C    2.468882   1.395221   2.538418   3.805878   5.711143
    21  C    3.819924   2.484163   2.897305   4.279960   7.206706
    22  C    4.252571   2.846641   2.426869   3.660925   8.076518
    23  C    5.067239   5.787180   7.216862   7.827854   2.446559
    24  C    5.351543   5.772867   7.248323   8.068339   3.684700
    25  C    4.601843   4.735191   6.204266   7.177741   4.258506
    26  C    3.186626   3.328002   4.808632   5.746968   3.854265
    27  C    3.081662   2.594004   3.957172   5.123971   5.128475
    28  C    4.440387   3.762144   4.946371   6.228582   6.284452
    29  C    5.588948   5.429676   6.827056   7.954127   5.654831
    30  C    5.518318   5.034893   6.294390   7.543394   6.525296
    31  H    6.500440   5.903381   7.063829   8.363694   7.581294
    32  H    4.884806   3.947683   4.879271   6.231456   7.238740
    33  H    2.803732   3.160770   3.648751   3.902108   5.820495
    34  H    6.610193   6.506314   7.908673   9.026335   6.186366
    35  H    6.419113   6.774766   8.249473   9.116058   4.560969
    36  H    5.983236   6.794013   8.195812   8.723521   2.648836
    37  H    5.305347   6.462155   7.651977   7.807766   1.085517
    38  H    5.642194   6.992101   7.758169   7.403921   2.916800
    39  H    5.633537   6.916704   7.226598   6.467848   4.721201
    40  H    5.249435   6.182499   5.885735   4.732109   6.457236
    41  H    4.667224   5.085976   4.269510   2.911283   7.389345
    42  H    3.915409   3.495076   2.121268   1.085575   7.799712
    43  H    4.611264   3.496669   2.178291   2.629545   8.709139
    44  H    5.337486   3.930564   3.419254   4.539661   9.111328
    45  H    4.529662   3.275908   3.755885   5.109188   7.487173
    46  H    4.396470   3.149507   3.578123   4.933027   7.722837
                   16         17         18         19         20
    16  C    0.000000
    17  C    1.461446   0.000000
    18  C    2.402359   1.389838   0.000000
    19  C    7.212814   5.816014   5.093586   0.000000
    20  C    4.756261   3.310975   3.155137   2.933888   0.000000
    21  C    6.207897   4.784581   4.663530   2.482743   1.521276
    22  C    7.247982   5.817681   5.395343   1.334536   2.577643
    23  C    1.431030   2.480217   3.708062   8.190765   5.500542
    24  C    2.414730   2.806205   4.188127   8.031553   5.170269
    25  C    2.847981   2.438912   3.741216   6.843859   3.926146
    26  C    2.551607   1.452850   2.497798   5.554576   2.688781
    27  C    3.931608   2.606162   3.082625   4.418246   1.491703
    28  C    4.976327   3.815528   4.460533   5.067378   2.436727
    29  C    4.246530   3.750368   4.953052   7.216403   4.342401
    30  C    5.129436   4.281723   5.236183   6.448275   3.762325
    31  H    6.179555   5.362874   6.296457   7.046129   4.572180
    32  H    5.973483   4.728856   5.178990   4.710738   2.590383
    33  H    5.446066   4.358426   3.497504   4.659905   3.839303
    34  H    4.815653   4.586261   5.868196   8.284277   5.423200
    35  H    3.404300   3.889763   5.271600   8.957772   6.064681
    36  H    2.172281   3.462928   4.570654   9.212053   6.568413
    37  H    2.144249   3.484891   3.902020   8.896343   6.731076
    38  H    4.303524   5.087725   4.667947   9.152836   7.763022
    39  H    5.897492   6.168905   5.237481   8.623273   8.018366
    40  H    7.229269   6.904188   5.620611   7.129185   7.523293
    41  H    7.745708   6.972946   5.619954   5.255041   6.463564
    42  H    7.639347   6.459781   5.296031   2.602621   4.656851
    43  H    8.180362   6.812097   5.995188   1.084886   4.017811
    44  H    8.239258   6.816359   6.461820   2.106972   3.542702
    45  H    6.404225   5.070518   5.175472   3.252810   2.155967
    46  H    6.657743   5.237258   5.193234   3.111460   2.146236
                   21         22         23         24         25
    21  C    0.000000
    22  C    1.491744   0.000000
    23  C    6.828014   8.030315   0.000000
    24  C    6.320339   7.657227   1.350635   0.000000
    25  C    4.967850   6.357688   2.445546   1.439390   0.000000
    26  C    3.957328   5.230669   2.909893   2.505051   1.435166
    27  C    2.544347   3.904278   4.372103   3.825658   2.493002
    28  C    2.730258   4.221036   5.083874   4.196742   2.758834
    29  C    5.014637   6.492568   3.682792   2.425290   1.403896
    30  C    4.077481   5.565079   4.844218   3.694211   2.404697
    31  H    4.591192   6.030937   5.796390   4.568349   3.395813
    32  H    2.272009   3.686567   6.150902   5.269243   3.832623
    33  H    4.780564   5.124727   6.513854   6.648653   5.827388
    34  H    6.040459   7.522584   3.956008   2.606841   2.150442
    35  H    7.097359   8.486649   2.116782   1.084386   2.162265
    36  H    7.902186   9.087575   1.084484   2.120799   3.431443
    37  H    8.211261   9.117124   2.623651   3.971053   4.840515
    38  H    9.232618   9.756606   5.295077   6.584982   7.140187
    39  H    9.350924   9.510843   7.151033   8.308254   8.527406
    40  H    8.554343   8.273759   8.638762   9.535574   9.322817
    41  H    7.147916   6.530258   9.153276   9.761291   9.195811
    42  H    4.858037   3.934113   8.895210   9.118258   8.194029
    43  H    3.472094   2.106937   9.206899   9.091827   7.921421
    44  H    2.200355   1.085145   8.946579   8.481671   7.142431
    45  H    1.096900   2.123667   6.855194   6.227247   4.880049
    46  H    1.101746   2.083097   7.185914   6.561359   5.149918
                   26         27         28         29         30
    26  C    0.000000
    27  C    1.467318   0.000000
    28  C    2.433903   1.413860   0.000000
    29  C    2.479168   2.874330   2.387794   0.000000
    30  C    2.841676   2.484616   1.389277   1.375035   0.000000
    31  H    3.924528   3.447246   2.142123   2.144711   1.083875
    32  H    3.423615   2.157752   1.075467   3.331541   2.092362
    33  H    4.640105   4.321716   5.238990   6.532991   6.256825
    34  H    3.450806   3.958060   3.380189   1.084182   2.146252
    35  H    3.461460   4.652476   4.760774   2.590624   3.963873
    36  H    3.994114   5.455321   6.131994   4.545772   5.791465
    37  H    4.694539   6.050183   7.119687   6.193896   7.205163
    38  H    6.528808   7.588085   8.887982   8.542226   9.319401
    39  H    7.578072   8.286086   9.684033   9.897087  10.409142
    40  H    8.071874   8.285648   9.669840  10.548517  10.698775
    41  H    7.799762   7.574092   8.837866  10.218509  10.056831
    42  H    6.771050   6.053193   7.066550   8.910697   8.415267
    43  H    6.621786   5.502788   6.121620   8.293614   7.499917
    44  H    6.120943   4.738330   4.803427   7.114903   6.067559
    45  H    4.085638   2.741203   2.622301   4.760789   3.790535
    46  H    4.278466   2.819563   2.606810   4.992407   3.884879
                   31         32         33         34         35
    31  H    0.000000
    32  H    2.388185   0.000000
    33  H    7.045583   5.438645   0.000000
    34  H    2.493137   4.229325   7.496228   0.000000
    35  H    4.648551   5.799327   7.609700   2.300543   0.000000
    36  H    6.687591   7.203910   7.396193   4.624360   2.453148
    37  H    8.228087   8.115872   6.824398   6.568880   4.658291
    38  H   10.392678   9.739658   7.046704   9.102857   7.400664
    39  H   11.485819  10.355287   6.876955  10.634415   9.253761
    40  H   11.715801  10.074384   6.271627  11.466284  10.588567
    41  H   10.973418   8.997619   5.534709  11.240387  10.843436
    42  H    9.178141   6.951864   4.726830   9.988483  10.157642
    43  H    8.056593   5.700592   5.348951   9.358117  10.026452
    44  H    6.370674   4.090493   6.073121   8.095571   9.247394
    45  H    4.203538   2.147616   5.773530   5.712270   6.904263
    46  H    4.227662   1.853132   4.734925   5.974900   7.268601
                   36         37         38         39         40
    36  H    0.000000
    37  H    2.359812   0.000000
    38  H    5.189803   2.832714   0.000000
    39  H    7.288182   5.020226   2.419562   0.000000
    40  H    9.081119   7.112094   5.048596   2.872523   0.000000
    41  H    9.829931   8.266700   6.835323   5.052877   2.428263
    42  H    9.788132   8.832105   8.266301   7.105978   5.013360
    43  H   10.211303   9.771047   9.802751   9.036965   7.237758
    44  H   10.007484  10.139572  10.819453  10.544892   9.203646
    45  H    7.907338   8.430037   9.649092   9.915746   9.253552
    46  H    8.269885   8.719434   9.848177  10.022762   9.245168
                   41         42         43         44         45
    41  H    0.000000
    42  H    2.811847   0.000000
    43  H    5.125580   2.327328   0.000000
    44  H    7.335805   4.621769   2.444321   0.000000
    45  H    7.915969   5.658139   4.153515   2.479921   0.000000
    46  H    7.817592   5.483292   4.016205   2.514686   1.739764
                   46
    46  H    0.000000
 Stoichiometry    C30H16
 Framework group  C1[X(C30H16)]
 Deg. of freedom   132
 Full point group                 C1      NOp   1
 Largest Abelian subgroup         C1      NOp   1
 Largest concise Abelian subgroup C1      NOp   1
                         Standard orientation:                         
 ---------------------------------------------------------------------
 Center     Atomic      Atomic             Coordinates (Angstroms)
 Number     Number       Type             X           Y           Z
 ---------------------------------------------------------------------
      1          6           0        1.654473   -2.793179   -0.033120
      2          6           0        1.469344   -1.445440    0.247309
      3          6           0        2.543220   -0.550378    0.318758
      4          6           0        3.861835   -0.872588    0.074063
      5          6           0        3.041745   -3.195745   -0.179639
      6          6           0        4.084763   -2.289963   -0.136226
      7          6           0        2.023652    0.741207    0.373159
      8          6           0        2.817320    1.845867    0.134598
      9          6           0        4.217857    1.568069   -0.028019
     10          6           0        4.725015    0.270990   -0.051034
     11          6           0        0.599842    0.676873    0.366292
     12          6           0       -0.144237    1.846195    0.084940
     13          6           0        0.691315    3.071818   -0.069923
     14          6           0        2.074864    3.059609   -0.033856
     15          6           0        0.450356   -3.501562   -0.215566
     16          6           0       -0.798798   -2.846433   -0.169245
     17          6           0       -0.938096   -1.405337    0.029907
     18          6           0        0.254879   -0.730814    0.261161
     19          6           0        0.018687    4.316827   -0.379269
     20          6           0       -1.533959    1.850856   -0.038718
     21          6           0       -2.196445    3.201311   -0.266015
     22          6           0       -1.308518    4.375760   -0.505922
     23          6           0       -1.990876   -3.623383   -0.321378
     24          6           0       -3.205009   -3.037964   -0.235466
     25          6           0       -3.366477   -1.621391   -0.037751
     26          6           0       -2.232111   -0.744809    0.029468
     27          6           0       -2.471323    0.700452    0.113256
     28          6           0       -3.821622    1.079585    0.292005
     29          6           0       -4.678493   -1.140730    0.098270
     30          6           0       -4.897568    0.200810    0.305629
     31          1           0       -5.899300    0.585421    0.458573
     32          1           0       -4.067314    2.117260    0.431628
     33          1           0        0.593641    1.276578    3.105129
     34          1           0       -5.503324   -1.843189    0.057588
     35          1           0       -4.107622   -3.633712   -0.314625
     36          1           0       -1.900877   -4.692451   -0.479803
     37          1           0        0.454776   -4.568753   -0.414136
     38          1           0        3.267975   -4.239834   -0.369518
     39          1           0        5.094131   -2.654132   -0.298931
     40          1           0        5.788187    0.132093   -0.217543
     41          1           0        4.905199    2.393822   -0.180482
     42          1           0        2.595492    3.997351   -0.201366
     43          1           0        0.630341    5.200026   -0.530319
     44          1           0       -1.801460    5.310860   -0.751146
     45          1           0       -2.925160    3.125081   -1.082319
     46          1           0       -2.798494    3.454507    0.621269
 ---------------------------------------------------------------------
 Rotational constants (GHZ):           0.2379833           0.1763988           0.1026017
 Standard basis: 6-311+G(d,p) (5D, 7F)
 There are   786 symmetry adapted cartesian basis functions of A   symmetry.
 There are   756 symmetry adapted basis functions of A   symmetry.
   756 basis functions,  1208 primitive gaussians,   786 cartesian basis functions
    98 alpha electrons       98 beta electrons
       nuclear repulsion energy      2624.7280898781 Hartrees.
 NAtoms=   46 NActive=   46 NUniq=   46 SFac= 1.00D+00 NAtFMM=   60 NAOKFM=F Big=F
 Integral buffers will be    131072 words long.
 Raffenetti 2 integral format.
 Two-electron integral symmetry is turned on.
 One-electron integrals computed using PRISM.
 NBasis=   756 RedAO= T EigKep=  1.60D-06  NBF=   756
 NBsUse=   732 1.00D-06 EigRej=  8.88D-07 NBFU=   732
 ExpMin= 4.38D-02 ExpMax= 4.56D+03 ExpMxC= 6.82D+02 IAcc=2 IRadAn=         4 AccDes= 0.00D+00
 Harris functional with IExCor=  402 and IRadAn=       4 diagonalized for initial guess.
 HarFok:  IExCor=  402 AccDes= 0.00D+00 IRadAn=         4 IDoV= 1 UseB2=F ITyADJ=14
 ICtDFT=  3500011 ScaDFX=  1.000000  1.000000  1.000000  1.000000
 FoFCou: FMM=F IPFlag=           0 FMFlag=      100000 FMFlg1=           0
         NFxFlg=           0 DoJE=T BraDBF=F KetDBF=T FulRan=T
         wScrn=  0.000000 ICntrl=       500 IOpCl=  0 I1Cent=   200000004 NGrid=           0
         NMat0=    1 NMatS0=      1 NMatT0=    0 NMatD0=    1 NMtDS0=    0 NMtDT0=    0
 Petite list used in FoFCou.
 Requested convergence on RMS density matrix=1.00D-08 within 128 cycles.
 Requested convergence on MAX density matrix=1.00D-06.
 Requested convergence on             energy=1.00D-06.
 No special actions if energy rises.
 Rare condition: small coef for last iteration:  0.000D+00
 Restarting incremental Fock formation.
 SCF Done:  E(RB3LYP) =  -1152.96467262     A.U. after   22 cycles
            NFock= 22  Conv=0.64D-08     -V/T= 2.0045
 DoSCS=F DFT=T ScalE2(SS,OS)=  1.000000  1.000000
 Range of M.O.s used for correlation:     1   732
 NBasis=   756 NAE=    98 NBE=    98 NFC=     0 NFV=     0
 NROrb=    732 NOA=    98 NOB=    98 NVA=   634 NVB=   634

 **** Warning!!: The largest alpha MO coefficient is  0.10897252D+03


 **** Warning!!: The smallest alpha delta epsilon is  0.44006176D-01

 Symmetrizing basis deriv contribution to polar:
 IMax=3 JMax=2 DiffMx= 0.00D+00
 G2DrvN: will do    47 centers at a time, making    1 passes.
 Calling FoFCou, ICntrl=  3107 FMM=F I1Cent=   0 AccDes= 0.00D+00.
 End of G2Drv F.D. properties file   721 does not exist.
 End of G2Drv F.D. properties file   722 does not exist.
 End of G2Drv F.D. properties file   788 does not exist.
          IDoAtm=1111111111111111111111111111111111111111111111
          Differentiating once with respect to nuclear coordinates.
 CalDSu exits because no D1Ps are significant.
          There are   141 degrees of freedom in the 1st order CPHF.  IDoFFX=6 NUNeed=     0.
    135 vectors produced by pass  0 Test12= 6.21D-14 1.00D-09 XBig12= 2.96D-01 1.97D-01.
 AX will form   135 AO Fock derivatives at one time.
    135 vectors produced by pass  1 Test12= 6.21D-14 1.00D-09 XBig12= 1.48D-01 1.24D-01.
    135 vectors produced by pass  2 Test12= 6.21D-14 1.00D-09 XBig12= 1.80D-03 5.33D-03.
    135 vectors produced by pass  3 Test12= 6.21D-14 1.00D-09 XBig12= 8.24D-06 2.85D-04.
    135 vectors produced by pass  4 Test12= 6.21D-14 1.00D-09 XBig12= 2.47D-08 1.08D-05.
    135 vectors produced by pass  5 Test12= 6.21D-14 1.00D-09 XBig12= 7.76D-11 6.15D-07.
    104 vectors produced by pass  6 Test12= 6.21D-14 1.00D-09 XBig12= 1.17D-11 2.24D-07.
     80 vectors produced by pass  7 Test12= 6.21D-14 1.00D-09 XBig12= 1.94D-12 7.92D-08.
     33 vectors produced by pass  8 Test12= 6.21D-14 1.00D-09 XBig12= 7.87D-14 1.73D-08.
      1 vectors produced by pass  9 Test12= 6.21D-14 1.00D-09 XBig12= 4.36D-16 1.55D-09.
 InvSVY:  IOpt=1 It=  1 EMax= 5.55D-16
 Solved reduced A of dimension  1028 with   141 vectors.
 End of Minotr F.D. properties file   721 does not exist.
 End of Minotr F.D. properties file   722 does not exist.
 End of Minotr F.D. properties file   788 does not exist.

 **********************************************************************

            Population analysis using the SCF Density.

 **********************************************************************

 Orbital symmetries:
       Occupied  (A) (A) (A) (A) (A) (A) (A) (A) (A) (A) (A) (A)
                 (A) (A) (A) (A) (A) (A) (A) (A) (A) (A) (A) (A)
                 (A) (A) (A) (A) (A) (A) (A) (A) (A) (A) (A) (A)
                 (A) (A) (A) (A) (A) (A) (A) (A) (A) (A) (A) (A)
                 (A) (A) (A) (A) (A) (A) (A) (A) (A) (A) (A) (A)
                 (A) (A) (A) (A) (A) (A) (A) (A) (A) (A) (A) (A)
                 (A) (A) (A) (A) (A) (A) (A) (A) (A) (A) (A) (A)
                 (A) (A) (A) (A) (A) (A) (A) (A) (A) (A) (A) (A)
                 (A) (A)
       Virtual   (A) (A) (A) (A) (A) (A) (A) (A) (A) (A) (A) (A)
                 (A) (A) (A) (A) (A) (A) (A) (A) (A) (A) (A) (A)
                 (A) (A) (A) (A) (A) (A) (A) (A) (A) (A) (A) (A)
                 (A) (A) (A) (A) (A) (A) (A) (A) (A) (A) (A) (A)
                 (A) (A) (A) (A) (A) (A) (A) (A) (A) (A) (A) (A)
                 (A) (A) (A) (A) (A) (A) (A) (A) (A) (A) (A) (A)
                 (A) (A) (A) (A) (A) (A) (A) (A) (A) (A) (A) (A)
                 (A) (A) (A) (A) (A) (A) (A) (A) (A) (A) (A) (A)
                 (A) (A) (A) (A) (A) (A) (A) (A) (A) (A) (A) (A)
                 (A) (A) (A) (A) (A) (A) (A) (A) (A) (A) (A) (A)
                 (A) (A) (A) (A) (A) (A) (A) (A) (A) (A) (A) (A)
                 (A) (A) (A) (A) (A) (A) (A) (A) (A) (A) (A) (A)
                 (A) (A) (A) (A) (A) (A) (A) (A) (A) (A) (A) (A)
                 (A) (A) (A) (A) (A) (A) (A) (A) (A) (A) (A) (A)
                 (A) (A) (A) (A) (A) (A) (A) (A) (A) (A) (A) (A)
                 (A) (A) (A) (A) (A) (A) (A) (A) (A) (A) (A) (A)
                 (A) (A) (A) (A) (A) (A) (A) (A) (A) (A) (A) (A)
                 (A) (A) (A) (A) (A) (A) (A) (A) (A) (A) (A) (A)
                 (A) (A) (A) (A) (A) (A) (A) (A) (A) (A) (A) (A)
                 (A) (A) (A) (A) (A) (A) (A) (A) (A) (A) (A) (A)
                 (A) (A) (A) (A) (A) (A) (A) (A) (A) (A) (A) (A)
                 (A) (A) (A) (A) (A) (A) (A) (A) (A) (A) (A) (A)
                 (A) (A) (A) (A) (A) (A) (A) (A) (A) (A) (A) (A)
                 (A) (A) (A) (A) (A) (A) (A) (A) (A) (A) (A) (A)
                 (A) (A) (A) (A) (A) (A) (A) (A) (A) (A) (A) (A)
                 (A) (A) (A) (A) (A) (A) (A) (A) (A) (A) (A) (A)
                 (A) (A) (A) (A) (A) (A) (A) (A) (A) (A) (A) (A)
                 (A) (A) (A) (A) (A) (A) (A) (A) (A) (A) (A) (A)
                 (A) (A) (A) (A) (A) (A) (A) (A) (A) (A) (A) (A)
                 (A) (A) (A) (A) (A) (A) (A) (A) (A) (A) (A) (A)
                 (A) (A) (A) (A) (A) (A) (A) (A) (A) (A) (A) (A)
                 (A) (A) (A) (A) (A) (A) (A) (A) (A) (A) (A) (A)
                 (A) (A) (A) (A) (A) (A) (A) (A) (A) (A) (A) (A)
                 (A) (A) (A) (A) (A) (A) (A) (A) (A) (A) (A) (A)
                 (A) (A) (A) (A) (A) (A) (A) (A) (A) (A) (A) (A)
                 (A) (A) (A) (A) (A) (A) (A) (A) (A) (A) (A) (A)
                 (A) (A) (A) (A) (A) (A) (A) (A) (A) (A) (A) (A)
                 (A) (A) (A) (A) (A) (A) (A) (A) (A) (A) (A) (A)
                 (A) (A) (A) (A) (A) (A) (A) (A) (A) (A) (A) (A)
                 (A) (A) (A) (A) (A) (A) (A) (A) (A) (A) (A) (A)
                 (A) (A) (A) (A) (A) (A) (A) (A) (A) (A) (A) (A)
                 (A) (A) (A) (A) (A) (A) (A) (A) (A) (A) (A) (A)
                 (A) (A) (A) (A) (A) (A) (A) (A) (A) (A) (A) (A)
                 (A) (A) (A) (A) (A) (A) (A) (A) (A) (A) (A) (A)
                 (A) (A) (A) (A) (A) (A) (A) (A) (A) (A) (A) (A)
                 (A) (A) (A) (A) (A) (A) (A) (A) (A) (A) (A) (A)
                 (A) (A) (A) (A) (A) (A) (A) (A) (A) (A) (A) (A)
                 (A) (A) (A) (A) (A) (A) (A) (A) (A) (A) (A) (A)
                 (A) (A) (A) (A) (A) (A) (A) (A) (A) (A) (A) (A)
                 (A) (A) (A) (A) (A) (A) (A) (A) (A) (A) (A) (A)
                 (A) (A) (A) (A) (A) (A) (A) (A) (A) (A) (A) (A)
                 (A) (A) (A) (A) (A) (A) (A) (A) (A) (A) (A) (A)
                 (A) (A) (A) (A) (A) (A) (A) (A) (A) (A)
 The electronic state is 1-A.
 Alpha  occ. eigenvalues --  -10.22410 -10.22214 -10.21965 -10.21323 -10.21223
 Alpha  occ. eigenvalues --  -10.21069 -10.20587 -10.20438 -10.20383 -10.19904
 Alpha  occ. eigenvalues --  -10.19818 -10.19689 -10.19683 -10.19581 -10.19565
 Alpha  occ. eigenvalues --  -10.19448 -10.19445 -10.19310 -10.19303 -10.19169
 Alpha  occ. eigenvalues --  -10.19158 -10.19154 -10.19107 -10.18867 -10.18837
 Alpha  occ. eigenvalues --  -10.18708 -10.18422 -10.17526 -10.17417 -10.17003
 Alpha  occ. eigenvalues --   -0.93020  -0.89736  -0.88665  -0.86089  -0.84866
 Alpha  occ. eigenvalues --   -0.84095  -0.81316  -0.80493  -0.79289  -0.78418
 Alpha  occ. eigenvalues --   -0.76155  -0.75536  -0.73597  -0.72128  -0.71602
 Alpha  occ. eigenvalues --   -0.67882  -0.66679  -0.65085  -0.64066  -0.63171
 Alpha  occ. eigenvalues --   -0.60906  -0.59874  -0.59155  -0.57607  -0.56817
 Alpha  occ. eigenvalues --   -0.53472  -0.52818  -0.51891  -0.51638  -0.50477
 Alpha  occ. eigenvalues --   -0.50137  -0.48375  -0.47681  -0.46630  -0.46304
 Alpha  occ. eigenvalues --   -0.45954  -0.45448  -0.44691  -0.44144  -0.43982
 Alpha  occ. eigenvalues --   -0.43346  -0.43175  -0.41923  -0.41232  -0.41108
 Alpha  occ. eigenvalues --   -0.40950  -0.40606  -0.39703  -0.38657  -0.38069
 Alpha  occ. eigenvalues --   -0.37091  -0.36862  -0.36405  -0.35296  -0.35074
 Alpha  occ. eigenvalues --   -0.34824  -0.33713  -0.33589  -0.33437  -0.31079
 Alpha  occ. eigenvalues --   -0.30444  -0.29587  -0.27210  -0.25455  -0.24437
 Alpha  occ. eigenvalues --   -0.22327  -0.21586  -0.17161
 Alpha virt. eigenvalues --   -0.12760  -0.09298  -0.05845  -0.04858  -0.04147
 Alpha virt. eigenvalues --   -0.01415  -0.00649   0.00107   0.00456   0.00866
 Alpha virt. eigenvalues --    0.01245   0.01257   0.01464   0.02491   0.02580
 Alpha virt. eigenvalues --    0.02657   0.02735   0.03596   0.03879   0.04315
 Alpha virt. eigenvalues --    0.04516   0.04828   0.05256   0.05479   0.05740
 Alpha virt. eigenvalues --    0.06424   0.06686   0.06978   0.07561   0.07933
 Alpha virt. eigenvalues --    0.08344   0.08430   0.08808   0.09072   0.09152
 Alpha virt. eigenvalues --    0.09787   0.09977   0.10231   0.10760   0.11286
 Alpha virt. eigenvalues --    0.11463   0.11832   0.11899   0.12268   0.12684
 Alpha virt. eigenvalues --    0.12993   0.13587   0.13907   0.14169   0.14603
 Alpha virt. eigenvalues --    0.14729   0.15032   0.15419   0.15490   0.15801
 Alpha virt. eigenvalues --    0.15862   0.16116   0.16385   0.16603   0.16890
 Alpha virt. eigenvalues --    0.16936   0.17051   0.17419   0.17865   0.17952
 Alpha virt. eigenvalues --    0.18117   0.18410   0.18705   0.18846   0.19102
 Alpha virt. eigenvalues --    0.19183   0.19425   0.19821   0.19869   0.20222
 Alpha virt. eigenvalues --    0.20410   0.20504   0.20932   0.20971   0.21088
 Alpha virt. eigenvalues --    0.21341   0.21470   0.21716   0.21899   0.22351
 Alpha virt. eigenvalues --    0.22475   0.22566   0.22758   0.22961   0.23293
 Alpha virt. eigenvalues --    0.23548   0.23847   0.24107   0.24487   0.24603
 Alpha virt. eigenvalues --    0.24740   0.24981   0.25202   0.25412   0.25462
 Alpha virt. eigenvalues --    0.25922   0.26077   0.26278   0.26744   0.26828
 Alpha virt. eigenvalues --    0.27133   0.27170   0.27350   0.27948   0.28288
 Alpha virt. eigenvalues --    0.28552   0.28710   0.29042   0.29087   0.29544
 Alpha virt. eigenvalues --    0.29723   0.29931   0.30520   0.30985   0.31203
 Alpha virt. eigenvalues --    0.31356   0.31854   0.32241   0.32652   0.32821
 Alpha virt. eigenvalues --    0.32949   0.33486   0.33783   0.34794   0.35057
 Alpha virt. eigenvalues --    0.35207   0.35635   0.35901   0.36314   0.36807
 Alpha virt. eigenvalues --    0.37453   0.38062   0.38422   0.39035   0.39128
 Alpha virt. eigenvalues --    0.39606   0.40285   0.40474   0.40901   0.41161
 Alpha virt. eigenvalues --    0.42047   0.42258   0.42745   0.43666   0.44079
 Alpha virt. eigenvalues --    0.44411   0.45509   0.46077   0.46734   0.47349
 Alpha virt. eigenvalues --    0.47550   0.47725   0.48784   0.48846   0.50423
 Alpha virt. eigenvalues --    0.51016   0.51336   0.51607   0.52263   0.52851
 Alpha virt. eigenvalues --    0.53053   0.53200   0.53505   0.54178   0.54819
 Alpha virt. eigenvalues --    0.54892   0.55574   0.55992   0.56285   0.56569
 Alpha virt. eigenvalues --    0.56863   0.57202   0.57402   0.57884   0.58427
 Alpha virt. eigenvalues --    0.58956   0.59003   0.59322   0.59756   0.59980
 Alpha virt. eigenvalues --    0.60220   0.60635   0.60940   0.61281   0.61788
 Alpha virt. eigenvalues --    0.62268   0.62677   0.63022   0.63428   0.63990
 Alpha virt. eigenvalues --    0.64750   0.65042   0.65680   0.65852   0.66345
 Alpha virt. eigenvalues --    0.66533   0.66984   0.67494   0.67601   0.67893
 Alpha virt. eigenvalues --    0.68723   0.69366   0.69590   0.69627   0.70470
 Alpha virt. eigenvalues --    0.70862   0.71011   0.71436   0.71654   0.71863
 Alpha virt. eigenvalues --    0.72067   0.72315   0.72957   0.73269   0.73560
 Alpha virt. eigenvalues --    0.73764   0.74091   0.74522   0.75075   0.75192
 Alpha virt. eigenvalues --    0.75744   0.75954   0.76416   0.77454   0.77873
 Alpha virt. eigenvalues --    0.78444   0.79287   0.79401   0.80898   0.81248
 Alpha virt. eigenvalues --    0.82280   0.82295   0.84305   0.85117   0.85753
 Alpha virt. eigenvalues --    0.85991   0.86661   0.86971   0.87134   0.87684
 Alpha virt. eigenvalues --    0.87824   0.88716   0.89313   0.89605   0.90295
 Alpha virt. eigenvalues --    0.90639   0.90784   0.90915   0.91576   0.91900
 Alpha virt. eigenvalues --    0.92548   0.92809   0.92988   0.93559   0.93909
 Alpha virt. eigenvalues --    0.94383   0.94625   0.94856   0.95053   0.95259
 Alpha virt. eigenvalues --    0.95558   0.95993   0.96915   0.97822   0.98128
 Alpha virt. eigenvalues --    0.98393   0.98889   0.98958   0.99015   1.00454
 Alpha virt. eigenvalues --    1.00974   1.01450   1.02098   1.02403   1.03314
 Alpha virt. eigenvalues --    1.03408   1.03631   1.04308   1.05212   1.05810
 Alpha virt. eigenvalues --    1.06848   1.07277   1.07523   1.08681   1.09088
 Alpha virt. eigenvalues --    1.09605   1.09811   1.11284   1.12083   1.12998
 Alpha virt. eigenvalues --    1.13658   1.14501   1.15701   1.16692   1.17303
 Alpha virt. eigenvalues --    1.18457   1.19531   1.19911   1.20967   1.22200
 Alpha virt. eigenvalues --    1.23141   1.25149   1.25890   1.26822   1.28854
 Alpha virt. eigenvalues --    1.30787   1.31487   1.31602   1.32717   1.33774
 Alpha virt. eigenvalues --    1.35294   1.36582   1.37712   1.39036   1.39151
 Alpha virt. eigenvalues --    1.39706   1.40999   1.42610   1.43131   1.43782
 Alpha virt. eigenvalues --    1.44559   1.45116   1.45509   1.45568   1.47601
 Alpha virt. eigenvalues --    1.48073   1.48191   1.48716   1.49202   1.49501
 Alpha virt. eigenvalues --    1.49762   1.50480   1.51029   1.51737   1.52034
 Alpha virt. eigenvalues --    1.52848   1.53358   1.53933   1.54985   1.55622
 Alpha virt. eigenvalues --    1.56401   1.56888   1.57032   1.57900   1.58053
 Alpha virt. eigenvalues --    1.58211   1.59656   1.60320   1.60454   1.61019
 Alpha virt. eigenvalues --    1.61894   1.62219   1.62925   1.64487   1.64947
 Alpha virt. eigenvalues --    1.65423   1.65626   1.67542   1.68307   1.69354
 Alpha virt. eigenvalues --    1.69927   1.70254   1.71416   1.71919   1.72169
 Alpha virt. eigenvalues --    1.72503   1.73089   1.73580   1.74145   1.74997
 Alpha virt. eigenvalues --    1.75833   1.76551   1.76886   1.77804   1.78224
 Alpha virt. eigenvalues --    1.79444   1.80467   1.80982   1.82078   1.82125
 Alpha virt. eigenvalues --    1.83132   1.83751   1.84522   1.85132   1.85849
 Alpha virt. eigenvalues --    1.86105   1.86761   1.87288   1.87856   1.88637
 Alpha virt. eigenvalues --    1.89477   1.89709   1.90430   1.91162   1.91485
 Alpha virt. eigenvalues --    1.92035   1.92342   1.93588   1.94032   1.94112
 Alpha virt. eigenvalues --    1.94636   1.95575   1.95852   1.96512   1.97561
 Alpha virt. eigenvalues --    1.98173   1.98779   1.99223   2.00524   2.01885
 Alpha virt. eigenvalues --    2.02403   2.02876   2.03373   2.03932   2.04669
 Alpha virt. eigenvalues --    2.05010   2.06171   2.06682   2.08139   2.08873
 Alpha virt. eigenvalues --    2.10910   2.11182   2.12094   2.13012   2.13693
 Alpha virt. eigenvalues --    2.14611   2.15042   2.16568   2.17881   2.18556
 Alpha virt. eigenvalues --    2.19410   2.19686   2.20500   2.20615   2.21616
 Alpha virt. eigenvalues --    2.22141   2.23321   2.24597   2.25207   2.25758
 Alpha virt. eigenvalues --    2.26944   2.29145   2.30446   2.31673   2.32388
 Alpha virt. eigenvalues --    2.33596   2.35710   2.36789   2.37983   2.38405
 Alpha virt. eigenvalues --    2.38989   2.39815   2.40407   2.42296   2.43047
 Alpha virt. eigenvalues --    2.45406   2.46387   2.47342   2.47649   2.50063
 Alpha virt. eigenvalues --    2.50604   2.51836   2.53890   2.55671   2.55854
 Alpha virt. eigenvalues --    2.56193   2.56704   2.57738   2.59173   2.59764
 Alpha virt. eigenvalues --    2.60135   2.60947   2.62684   2.64152   2.64959
 Alpha virt. eigenvalues --    2.67620   2.68736   2.69218   2.69523   2.70170
 Alpha virt. eigenvalues --    2.70981   2.71735   2.71996   2.72229   2.72421
 Alpha virt. eigenvalues --    2.73110   2.73663   2.74040   2.74464   2.75067
 Alpha virt. eigenvalues --    2.75438   2.75747   2.76774   2.77314   2.77560
 Alpha virt. eigenvalues --    2.78033   2.78663   2.79422   2.80002   2.80351
 Alpha virt. eigenvalues --    2.80935   2.81729   2.82706   2.83383   2.84945
 Alpha virt. eigenvalues --    2.85492   2.86801   2.86930   2.87580   2.88386
 Alpha virt. eigenvalues --    2.89598   2.89945   2.90848   2.91916   2.92441
 Alpha virt. eigenvalues --    2.92572   2.94006   2.96446   2.98004   2.98879
 Alpha virt. eigenvalues --    3.00493   3.02387   3.03323   3.04314   3.06561
 Alpha virt. eigenvalues --    3.07657   3.08907   3.09586   3.11911   3.12838
 Alpha virt. eigenvalues --    3.13320   3.16584   3.17166   3.18665   3.20247
 Alpha virt. eigenvalues --    3.20806   3.21323   3.21605   3.23651   3.24803
 Alpha virt. eigenvalues --    3.26078   3.27089   3.29852   3.32163   3.33658
 Alpha virt. eigenvalues --    3.33741   3.36011   3.36349   3.37374   3.39096
 Alpha virt. eigenvalues --    3.39939   3.41508   3.42713   3.43493   3.43866
 Alpha virt. eigenvalues --    3.46813   3.47681   3.48589   3.49866   3.53011
 Alpha virt. eigenvalues --    3.55954   3.56552   3.57920   3.59965   3.60848
 Alpha virt. eigenvalues --    3.62325   3.62650   3.67006   3.69005   3.71911
 Alpha virt. eigenvalues --    3.79116   3.82411   3.83736   3.85664   3.91961
 Alpha virt. eigenvalues --    3.94210   3.99824   4.05041   4.05596   4.06523
 Alpha virt. eigenvalues --    4.07425   4.09371   4.10134   4.14001   4.20104
 Alpha virt. eigenvalues --    4.23885   4.27441   4.34120   4.43440   4.52012
 Alpha virt. eigenvalues --    4.69469   4.72140   4.74130   4.75857   4.77849
 Alpha virt. eigenvalues --    4.79093   4.80968   4.86586   4.89249  23.38157
 Alpha virt. eigenvalues --   23.61622  23.65690  23.75870  23.76928  23.81047
 Alpha virt. eigenvalues --   23.84157  23.85047  23.87403  23.90268  23.91210
 Alpha virt. eigenvalues --   23.92020  23.92736  23.96994  23.98254  23.98985
 Alpha virt. eigenvalues --   24.00497  24.04235  24.05782  24.06230  24.08495
 Alpha virt. eigenvalues --   24.09442  24.09850  24.11078  24.12203  24.15736
 Alpha virt. eigenvalues --   24.18811  24.20638  24.22777  24.26746
          Condensed to atoms (all electrons):
               1          2          3          4          5          6
     1  C   10.249194   0.633876   0.098455   0.817360  -0.724238  -1.977275
     2  C    0.633876   7.591041   0.601020   0.032336   0.328438   0.750034
     3  C    0.098455   0.601020   8.544808   0.449930   0.733973  -0.310230
     4  C    0.817360   0.032336   0.449930  11.685784  -1.968660  -1.745972
     5  C   -0.724238   0.328438   0.733973  -1.968660   9.840739   2.727875
     6  C   -1.977275   0.750034  -0.310230  -1.745972   2.727875  10.296770
     7  C   -0.006218  -0.372390   0.391123   0.907996  -0.706834  -1.326784
     8  C   -0.320244  -0.020611  -0.145448   0.215535   0.013310   0.473736
     9  C    0.051487  -0.593766   1.783238  -1.452854  -0.221059  -1.227690
    10  C    0.094561  -1.174949  -0.600707  -0.695973  -0.704958  -1.878340
    11  C   -0.807621  -0.186368  -1.072106  -0.080927  -0.104158   0.644061
    12  C   -0.187329  -0.055052  -0.379956  -0.004773  -0.144039  -0.203542
    13  C    0.148509  -0.157842  -0.487387  -0.145178  -0.061365  -0.056200
    14  C   -0.054247  -0.252593  -0.881509  -0.280602  -0.031348   0.087756
    15  C    0.843281   0.481751  -0.399654  -0.683836  -0.656025  -0.023261
    16  C   -0.418893  -0.078685  -0.679541  -0.590442  -0.679043  -0.021073
    17  C   -1.014272   0.387338  -0.177635  -0.367561  -0.411270   0.134981
    18  C    0.277745  -0.234188  -0.519609   0.364968  -0.806258  -0.472823
    19  C    0.065399   0.117109   0.244677  -0.177287  -0.016216  -0.038368
    20  C    0.032643  -0.422006  -0.635659   0.060647   0.051289   0.110247
    21  C   -0.036026  -0.179390  -0.085150   0.009125   0.006274   0.001902
    22  C   -0.022532  -0.105797  -0.082536  -0.004415  -0.002578   0.005297
    23  C   -0.984917  -0.746968  -0.007698  -0.239768  -0.263150  -0.092112
    24  C   -0.006905  -0.107068   0.019248  -0.019351  -0.114521  -0.037751
    25  C    0.043688  -0.228456   0.093668  -0.066268  -0.026704   0.020518
    26  C   -0.878639  -0.168588  -0.336859   0.018011  -0.177543  -0.029087
    27  C   -0.212915   0.012907   0.030330  -0.041772  -0.094117   0.002594
    28  C    0.077518   0.093447  -0.081788  -0.003486  -0.010678   0.003725
    29  C   -0.007310  -0.146684   0.029980   0.000271   0.003627   0.001712
    30  C   -0.011004   0.048755  -0.005853  -0.001850  -0.005201  -0.002204
    31  H    0.000046   0.000091   0.000003   0.000001   0.000001  -0.000000
    32  H   -0.000081   0.000437   0.000057  -0.000008  -0.000001  -0.000004
    33  H   -0.030284   0.076963   0.081725  -0.042739  -0.006147  -0.016564
    34  H    0.000398  -0.000173   0.000006  -0.000004   0.000027   0.000001
    35  H    0.003933   0.001093   0.000158   0.000020   0.000344   0.000010
    36  H    0.044932   0.005850   0.001179   0.000237   0.008328   0.000521
    37  H   -0.022224   0.018591  -0.004081   0.003385   0.016078   0.007506
    38  H   -0.117153   0.023902  -0.005053  -0.053735   0.415978  -0.013672
    39  H   -0.005403   0.000758   0.018224  -0.102852  -0.021880   0.414209
    40  H    0.007778  -0.010156   0.029187  -0.093014   0.013656   0.027680
    41  H    0.001499  -0.003516  -0.016638  -0.037883  -0.000861   0.002657
    42  H    0.000104   0.001480  -0.003649   0.006752   0.000118   0.000053
    43  H   -0.000019  -0.000454   0.001726   0.000527   0.000007   0.000037
    44  H   -0.000002   0.000133   0.000096  -0.000005  -0.000000  -0.000001
    45  H    0.000114  -0.002227  -0.002122   0.000350  -0.000010   0.000056
[...]
 00022003,-0.00004762,-0.00010151,0.00002582,-0.00006242,0.00000165,-0.
 00002710,0.00001353,0.00006761,-0.00004357,0.00002375,-0.00000402,0.00
 000306,-0.00000552,0.00010958,-0.00009493,0.00004187,0.00022716,0.0001
 3362,0.00003453,-0.00000124,-0.00001722,-0.00000065,-0.00000256,-0.000
 00467,-0.00000055,0.00000273,-0.00000238,-0.00000004,0.00000026,-0.000
 00213,-0.00000252,-0.00000232,-0.00000232,-0.00000289,0.00000282,-0.00
 000006,-0.00000002,0.00000397,-0.00000589,0.00000265,0.00000118,0.0000
 0744,0.00000364,-0.00000865,-0.00021974,-0.00010433,0.13965202,0.00009
 487,0.00003820,-0.00002535,-0.00011932,-0.00018600,0.00001661,0.000113
 27,0.00011821,-0.00007699,0.00002076,-0.00003091,-0.00000696,-0.000004
 70,-0.00002313,0.00000370,0.00000468,0.00000144,0.00000384,-0.00001050
 ,0.00019984,0.00001226,0.00054615,-0.00009212,0.00018451,-0.00009747,0
 .00001023,0.00000480,-0.00001037,-0.00006730,-0.00000059,-0.00118214,-
 0.00085986,-0.00043759,0.00407731,-0.00193788,-0.00073132,-0.01500866,
 -0.01737752,-0.00821141,-0.00193838,0.00074608,0.00090746,-0.00006249,
 0.00001853,0.00000413,0.00003234,-0.00006057,-0.00000722,-0.00002831,0
 .00007917,-0.00000913,0.00033685,-0.00020208,0.00021886,-0.11438033,-0
 .22597759,-0.07341469,0.00002373,-0.00023706,0.00005015,0.00202136,0.0
 0149902,-0.00242993,0.00350951,0.00541605,0.00088095,-0.00000791,-0.00
 001098,-0.00000013,0.00001199,0.00000106,0.00000240,-0.00005328,0.0000
 2600,-0.00003005,0.00000636,-0.00005736,0.00001749,0.00011621,0.000355
 67,0.00020966,-0.00016204,-0.00003672,0.00002482,-0.00001863,-0.000091
 06,0.00000961,0.00004075,0.00007525,0.00002269,-0.00001557,-0.00000175
 ,-0.00000106,-0.00001238,-0.00000780,-0.00005626,-0.00013453,0.0000253
 6,0.00005857,-0.00000123,-0.00000588,-0.00000691,-0.00000540,-0.000003
 69,-0.00000140,0.00000101,-0.00000772,-0.00000115,-0.00000075,-0.00000
 722,0.00000220,0.00000562,-0.00000640,-0.00000322,0.00000630,-0.000006
 19,-0.00000321,0.00000945,-0.00000092,-0.00000561,0.00002614,0.0000045
 3,-0.00000658,0.00100986,0.00044011,-0.00029439,0.12175955,0.23755392,
 0.00001151,0.00000313,0.00001584,-0.00006656,-0.00009071,0.00002139,0.
 00002648,0.00013625,-0.00003488,0.00004956,0.00000409,-0.00001090,0.00
 002578,-0.00001855,-0.00000833,-0.00001502,-0.00000914,-0.00000466,0.0
 0005461,-0.00001593,0.00014206,0.00014738,0.00022807,-0.00014751,-0.00
 005984,-0.00000112,-0.00004122,-0.00001377,-0.00006116,0.00001815,-0.0
 0031779,-0.00062816,0.00012907,0.00135079,-0.00047083,0.00230930,-0.00
 389044,-0.00181122,0.00022702,-0.00082349,-0.00003412,-0.00022614,0.00
 002264,0.00001499,-0.00000660,-0.00003996,0.00000547,0.00001395,0.0000
 0464,-0.00001789,-0.00001259,0.00017175,-0.00000305,-0.00017669,-0.046
 69458,-0.07397106,-0.06480665,0.00000840,-0.00002951,0.00015350,-0.002
 44320,-0.00161359,0.01059465,-0.00254820,-0.00446905,0.00237863,0.0000
 2081,-0.00000529,-0.00000019,-0.00001029,0.00001687,-0.00000022,0.0000
 6142,-0.00001627,0.00002544,-0.00002700,-0.00004959,-0.00003859,0.0001
 1417,-0.00002419,-0.00013659,0.00003258,0.00006435,-0.00010910,-0.0000
 3167,0.00005145,0.00000841,-0.00001377,-0.00005055,-0.00004634,-0.0000
 0038,-0.00000247,-0.00000786,-0.00002279,-0.00002266,0.00009701,-0.000
 02986,-0.00034658,-0.00011983,-0.00000374,0.00000025,0.00001047,-0.000
 00147,-0.00000222,0.00000101,-0.00000037,-0.00000191,0.00000326,-0.000
 00009,-0.00000212,-0.00000221,0.00000299,-0.00000175,0.00000565,0.0000
 0262,-0.00000267,0.00000214,0.00000414,0.00000028,0.00000584,0.0000138
 0,-0.00000099,0.00000791,0.00048683,0.00005507,0.00012721,0.05337042,0
 .08093213,0.05633467,0.00007642,-0.00001199,-0.00002177,-0.00000437,0.
 00008059,-0.00001514,0.00005244,-0.00008396,0.00003470,-0.00008614,-0.
 00011658,0.00001054,-0.00009332,0.00001156,0.00001661,0.00005520,0.000
 07711,-0.00001030,-0.00017034,-0.00002064,0.00013547,-0.00046776,0.000
 19838,0.00037643,0.00017147,0.00005054,0.00002574,-0.00003358,0.000149
 62,-0.00001386,0.00012012,0.00012345,0.00023498,-0.00057187,-0.0003620
 1,-0.00046990,-0.00449982,-0.00127373,-0.00261467,0.00020209,0.0012217
 6,-0.00025120,-0.00005323,0.00000332,0.00000189,0.00003733,-0.00003795
 ,0.00000143,-0.00010600,0.00007581,-0.00000677,0.00002589,0.00004060,0
 .00002941,-0.01208418,0.03045372,0.00520619,-0.00236498,-0.00198274,-0
 .00151409,0.00964866,-0.01742262,-0.00295545,-0.11179686,0.10807174,0.
 01669099,-0.00001720,-0.00002189,0.00000345,-0.00001299,-0.00000474,-0
 .00000530,0.00001876,-0.00008879,0.00003403,-0.00024076,-0.00010905,0.
 00001088,0.00069631,-0.00081027,0.00002082,0.00004484,-0.00003653,0.00
 004034,0.00002765,-0.00004717,0.00000578,0.00000849,0.00005539,-0.0000
 0923,-0.00001006,-0.00000747,-0.00000261,0.00004066,0.00004176,-0.0000
 1755,-0.00004613,-0.00024655,0.00032205,-0.00000179,-0.00000075,0.0000
 0049,0.00000292,-0.00001252,0.00000122,0.00000200,0.00000187,0.0000000
 4,0.00000220,0.00000323,-0.00000056,0.00000081,0.00000333,0.00000163,-
 0.00000416,0.00000535,-0.00000021,-0.00001163,0.00001782,-0.00000589,-
 0.00000967,-0.00000978,0.00000178,-0.00003694,-0.00002804,-0.00014888,
 0.00066450,-0.00049545,0.00117524,0.11941257,0.00005037,-0.00002877,-0
 .00001467,0.00002473,0.00002024,-0.00001410,0.00004625,-0.00009548,0.0
 0001460,-0.00003283,-0.00005893,0.00000902,-0.00007514,0.00000769,0.00
 001409,0.00003362,0.00005865,-0.00000852,-0.00021426,0.00002546,0.0001
 4823,0.00018400,0.00025119,0.00010534,0.00001326,-0.00005091,0.0000098
 5,0.00004656,0.00006432,-0.00002146,0.00007787,0.00012975,0.00023723,-
 0.00074686,0.00041084,-0.00016827,0.00030954,0.00226903,-0.00232488,0.
 00021420,-0.00045393,-0.00007950,-0.00003615,-0.00000683,-0.00000113,0
 .00005193,-0.00004392,0.00000505,-0.00007133,0.00005422,-0.00001282,0.
 00002154,0.00003545,0.00001390,-0.00113583,0.00054206,-0.00204999,-0.0
 0371243,-0.00067336,-0.00167002,0.01108605,-0.01677624,-0.00283297,0.1
 1203649,-0.26368639,-0.04360670,-0.00001243,-0.00001860,0.00000591,-0.
 00001653,0.00000238,-0.00000208,0.00000764,-0.00009041,0.00004208,-0.0
 0031904,-0.00008644,-0.00002263,0.00100841,-0.00070762,-0.00006271,-0.
 00012452,-0.00009362,0.00002839,-0.00000965,-0.00010577,0.00001536,0.0
 0006693,0.00006785,-0.00000082,-0.00003173,-0.00000918,-0.00001020,0.0
 0011410,0.00002380,-0.00000589,0.00007792,-0.00008148,0.00019576,-0.00
 000685,-0.00001562,-0.00000078,-0.00000562,-0.00001952,-0.00000094,0.0
 0000479,-0.00000813,0.00000004,0.00000111,-0.00000649,-0.00000151,0.00
 000249,-0.00000691,0.00000118,0.00000593,-0.00000084,-0.00000190,0.000
 00563,-0.00000527,-0.00000215,0.00000770,0.00000482,-0.00000326,0.0000
 1692,0.00000544,-0.00009750,-0.00015336,0.00053795,0.00211521,-0.11853
 850,0.27799760,-0.00005918,0.00001782,0.00003196,-0.00005247,-0.000040
 75,0.00002803,-0.00004581,0.00021795,-0.00006446,0.00016506,0.00011345
 ,-0.00003548,0.00009087,0.00000688,-0.00001663,-0.00003788,-0.00007447
 ,0.00000777,0.00044447,-0.00014044,-0.00017650,-0.00030559,-0.00064208
 ,-0.00072005,-0.00023241,0.00024277,-0.00007467,-0.00006276,-0.0002518
 5,0.00007935,-0.00018536,0.00024934,-0.00026203,-0.00026202,-0.0001652
 0,-0.00038347,-0.00225712,-0.00304446,0.00982978,-0.00085538,0.0015265
 0,0.00082064,0.00003224,0.00001796,0.00000034,-0.00001805,0.00001638,-
 0.00000090,0.00000879,-0.00001857,-0.00000159,-0.00004136,-0.00004746,
 -0.00001106,-0.00292288,0.00398526,0.00682076,-0.00261600,0.00008530,0
 .00070705,0.00553111,-0.00915752,0.00090772,0.01801219,-0.04523822,-0.
 04775932,0.00001364,0.00000346,0.00000137,-0.00002763,0.00001066,-0.00
 000983,0.00004962,-0.00006719,0.00001167,-0.00022251,-0.00001371,-0.00
 006583,0.00046877,-0.00054623,0.00007854,0.00006501,-0.00004136,0.0000
 2874,-0.00003000,0.00001479,-0.00000194,-0.00000992,-0.00001517,-0.000
 00866,-0.00001463,-0.00000576,0.00000180,0.00000380,0.00000975,0.00002
 085,0.00081689,-0.00010827,0.00001969,-0.00000369,-0.00000212,-0.00000
 042,-0.00000286,-0.00000814,0.00000786,0.00000194,-0.00000365,0.000001
 38,0.00000092,-0.00000385,0.00000011,-0.00000121,-0.00000209,-0.000006
 04,0.00000359,-0.00000424,0.00000238,0.00000290,0.00000942,0.00001233,
 0.00000527,0.00000324,0.00000430,0.00007358,-0.00000877,0.00032821,0.0
 0130510,0.00207095,-0.00622717,-0.01658129,0.05013272,0.03521552,0.000
 06672,0.00002741,-0.00000433,0.00004114,0.00005623,-0.00003017,-0.0001
 4771,-0.00009650,0.00015574,-0.00008503,-0.00010915,-0.00000272,-0.000
 07244,-0.00000442,0.00001559,0.00002607,0.00008508,-0.00001755,-0.0000
 3859,0.00043692,0.00029788,-0.00031265,0.00044968,0.00011272,0.0002537
 1,-0.00011920,-0.00008160,-0.00004670,0.00021283,0.00001033,-0.0012396
 3,-0.00041250,-0.00013910,0.00166423,0.00113426,-0.00022869,-0.0002833
 2,0.00074387,-0.00079893,0.00069882,-0.00020537,-0.00019679,-0.0000479
 7,0.00001492,0.00000322,-0.00001022,-0.00006447,0.00001697,-0.00007510
 ,0.00003768,-0.00003011,0.00002079,-0.00003547,0.00001545,0.00125221,-
 0.00272305,-0.00032696,-0.00880316,0.00764339,-0.01143146,-0.07064065,
 0.02245244,-0.08016772,-0.01346158,0.00100654,-0.02100398,0.00001216,-
 0.00003703,0.00000208,0.00001838,0.00005642,-0.00001525,-0.00003971,-0
 .00005876,0.00006467,0.00011489,0.00027077,-0.00002923,-0.00042578,-0.
 00072673,-0.00032273,0.00004057,-0.00017519,0.00097532,0.00005759,0.00
 012108,-0.00010813,0.00003895,-0.00021480,-0.00002477,0.00000467,0.000
 00439,0.00004006,-0.00066458,-0.00160878,0.00042064,-0.00065285,0.0006
 7582,-0.00017458,0.00000063,0.00000504,0.00001956,0.00000635,0.0000039
 9,0.00000123,0.00000320,0.00000953,-0.00000234,-0.00000002,0.00000989,
 -0.00000060,-0.00000271,0.00000858,-0.00000054,-0.00000980,0.00001224,
 -0.00000608,-0.00000703,0.00000896,0.00000611,-0.00002005,-0.00001110,
 0.00000146,0.00001097,-0.00003211,-0.00001726,-0.00070137,-0.00031838,
 0.00115148,0.00046281,-0.00021731,0.00045784,0.08537823,0.00001238,-0.
 00006890,-0.00002511,0.00007781,0.00004125,-0.00007455,0.00026819,-0.0
 0019790,-0.00000423,-0.00009824,-0.00008639,0.00004956,-0.00006311,-0.
 00001243,0.00000464,0.00003342,0.00005322,-0.00000021,-0.00059208,-0.0
 0046954,0.00020628,0.00007037,0.00032072,-0.00019889,0.00001204,0.0000
 3521,0.00004195,0.00006549,0.00006394,-0.00000604,0.00201181,0.0002393
 1,-0.00035617,-0.00315290,-0.00142462,-0.00091488,-0.00010193,-0.00055
 011,0.00021106,-0.00010332,0.00027314,-0.00020710,0.00002948,-0.000039
 01,0.00000699,-0.00004200,-0.00005768,0.00000861,0.00003981,0.00008896
 ,0.00002544,-0.00000805,0.00024463,0.00009739,-0.00054313,-0.00252367,
 -0.00070855,0.01334309,-0.00953862,0.02325257,0.02152979,-0.05843106,0
 .05234705,-0.01068716,0.00652657,-0.02235752,0.00007205,0.00004344,-0.
 00000998,-0.00006562,0.00001847,0.00005424,0.00025895,-0.00001389,0.00
 002942,-0.00003326,-0.00051642,-0.00048159,0.00131056,0.00042763,-0.00
 011030,-0.00014149,-0.00021872,0.00019930,-0.00011437,0.00024153,-0.00
 005561,-0.00026460,-0.00001546,-0.00019397,-0.00002436,-0.00002073,0.0
 0001858,-0.00173374,-0.00139377,0.00081056,0.00049821,-0.00097157,0.00
 043091,-0.00001341,0.00003771,0.00002148,-0.00000661,-0.00000483,-0.00
 000472,-0.00000361,-0.00000364,-0.00000555,-0.00000090,-0.00000282,0.0
 0000341,0.00000304,-0.00000450,0.00000435,0.00000473,-0.00000937,-0.00
 000045,0.00000083,0.00000175,-0.00000463,0.00001476,0.00000016,-0.0000
 1346,0.00014268,-0.00000430,-0.00003744,-0.00076779,-0.00032649,0.0017
 3646,0.00067740,0.00012376,0.00083002,-0.02203588,0.06865167,0.0000710
 1,-0.00000498,-0.00001302,-0.00000684,0.00009531,-0.00001128,0.0000137
 8,-0.00006310,0.00005038,-0.00006712,-0.00012134,0.00001564,-0.0000922
 8,0.00002418,0.00001557,0.00006439,0.00007724,-0.00001271,0.00009513,0
 .00001561,0.00010623,-0.00017342,0.00023302,0.00005261,0.00019425,-0.0
 0005967,-0.00004635,-0.00001949,0.00016715,0.00000041,0.00003756,-0.00
 023302,-0.00030599,0.00105954,0.00029111,0.00035238,-0.00056627,0.0006
 2245,-0.00042464,0.00044488,-0.00005780,-0.00011783,-0.00004855,0.0000
 1120,0.00000874,0.00002021,-0.00005409,0.00001027,-0.00015461,-0.00002
 585,-0.00003160,0.00005459,0.00001208,0.00004056,0.00168481,-0.0016563
 5,-0.00020371,-0.00025670,0.00200695,0.00607145,-0.07704190,0.05305748
 ,-0.23658942,-0.00621901,-0.00063158,-0.00740250,-0.00001174,-0.000076
 02,0.00000489,0.00005981,0.00005080,0.00000883,0.00001753,-0.00000991,
 0.00001093,0.00033372,0.00002340,-0.00011353,-0.00087363,-0.00031557,-
 0.00001069,-0.00090476,0.00062289,0.00006917,-0.00012731,0.00003881,-0
 .00006277,0.00027965,-0.00072047,0.00012302,0.00001277,0.00003930,0.00
 000079,0.00065977,-0.00040519,0.00035166,-0.00022324,-0.00041466,-0.00
 015696,-0.00000201,-0.00007428,0.00004242,0.00000109,0.00000327,-0.000
 00129,0.00000546,0.00000393,-0.00000383,0.00000227,0.00000587,0.000000
 06,-0.00000004,0.00000512,-0.00000040,-0.00000589,0.00000755,-0.000001
 98,-0.00000587,0.00000939,0.00000407,-0.00000833,-0.00000787,-0.000001
 68,0.00000189,-0.00002070,-0.00003428,-0.00025389,-0.00003966,0.000372
 16,-0.00024186,-0.00068793,0.00026274,0.08819804,-0.05688875,0.2598759
 8,0.00003796,-0.00000547,-0.00001003,0.00003693,0.00013181,-0.00001504
 ,-0.00008338,-0.00005580,0.00000455,-0.00001788,-0.00013044,0.00002412
 ,-0.00006330,0.00001709,0.00001596,0.00004730,0.00007917,-0.00000628,0
 .00005404,-0.00006274,-0.00002066,-0.00029398,0.00029407,0.00024719,0.
 00023936,-0.00007182,-0.00010382,-0.00010040,0.00015681,0.00000398,-0.
 00004890,-0.00077749,-0.00059775,0.00174058,0.00338926,0.00217160,-0.0
 0101886,0.00066565,0.00035897,0.00054105,-0.00029972,-0.00008266,-0.00
 001301,0.00003307,-0.00000150,-0.00006174,-0.00008541,0.00002928,-0.00
 006984,0.00003058,0.00005834,-0.00006520,-0.00005045,-0.00003679,0.001
 48649,-0.00362896,-0.00016986,-0.01442525,0.00403121,0.00771425,-0.192
 92047,-0.00392176,0.12352294,-0.02133881,-0.00450204,0.00930067,0.0000
 5098,-0.00008537,0.00001322,0.00002874,0.00014315,-0.00000263,-0.00005
 793,-0.00017629,0.00007699,0.00010130,0.00049673,-0.00024202,-0.000442
 81,-0.00149538,-0.00075830,-0.00038770,-0.00109328,-0.00167216,-0.0000
 0371,0.00019439,0.00008019,0.00005259,-0.00051830,0.00006190,0.0000099
 9,-0.00001124,-0.00005330,-0.00046545,-0.00267802,-0.00156057,-0.00069
 515,-0.00055500,-0.00057291,-0.00000053,-0.00002539,0.00000558,0.00000
 666,0.00000101,0.00000286,0.00000855,0.00000940,-0.00000861,0.00000046
 ,0.00001123,-0.00000170,-0.00000339,0.00000818,-0.00000026,-0.00000623
 ,0.00000784,0.00000018,-0.00000288,0.00001142,0.00001133,-0.00001452,-
 0.00000884,0.00000283,-0.00008815,0.00000121,-0.00004145,-0.00044166,0
 .00029414,-0.00125576,0.00094965,-0.00005565,-0.00070557,0.00761557,0.
 00012065,-0.00600738,0.22012293,0.00000599,-0.00009503,-0.00003574,0.0
 0009455,0.00005758,-0.00006965,0.00008373,-0.00027650,0.00008594,-0.00
 009610,-0.00004743,-0.00001573,-0.00006540,-0.00001245,0.00001818,0.00
 001632,0.00005729,-0.00001777,-0.00053656,0.00016929,0.00071600,0.0000
 5866,0.00038767,-0.00021897,0.00001694,0.00002670,-0.00001403,0.000060
 47,0.00007407,0.00000704,0.00015816,0.00051726,0.00089071,-0.00069970,
 -0.00546935,-0.00169566,0.00101655,-0.00117198,0.00085789,0.00010194,0
 .00046826,-0.00022978,0.00006725,-0.00003262,0.00000097,-0.00012517,-0
 .00012075,0.00000771,-0.00007004,0.00012533,-0.00003958,0.00007805,0.0
 0016121,0.00008574,-0.00117146,-0.00263442,-0.00145713,0.02357416,-0.0
 0118766,-0.01726510,-0.00609410,-0.04671308,0.00559859,-0.02065121,-0.
 00133795,0.01456388,0.00017288,0.00004677,0.00000846,-0.00007800,0.000
 10653,-0.00002888,0.00042179,-0.00004387,0.00002676,0.00013948,-0.0003
 8674,0.00042363,0.00148987,0.00123373,-0.00022434,-0.00069568,-0.00070
 251,-0.00096288,-0.00033369,0.00047618,-0.00008211,-0.00044416,-0.0006
 1510,0.00018356,0.00000820,-0.00002313,-0.00004892,-0.00104340,-0.0018
 2265,-0.00202466,0.00043106,0.00038377,0.00045267,-0.00000165,0.000013
 45,-0.00002542,0.00000042,0.00000759,0.00000132,-0.00000313,0.00000165
 ,-0.00000408,-0.00000067,0.00000259,-0.00000218,0.00000156,0.00000013,
 -0.00000067,-0.00000149,-0.00000029,-0.00000242,-0.00000355,0.00000376
 ,0.00000278,0.00000451,-0.00000362,-0.00000048,0.00012349,0.00004360,-
 0.00004009,-0.00030125,0.00047557,-0.00158969,0.00040535,0.00049818,0.
 00008693,-0.00628173,-0.00052663,0.00514469,0.01016677,0.05788559,-0.0
 0005374,-0.00001586,0.00000092,0.00004682,-0.00003702,-0.00001161,0.00
 001618,-0.00008400,-0.00002859,-0.00001410,0.00008106,0.00001361,0.000
 04945,-0.00001709,-0.00001081,-0.00003959,-0.00005200,0.00000885,-0.00
 023557,0.00002356,0.00012745,0.00011402,0.00002024,-0.00006457,-0.0001
 1307,0.00004237,0.00003596,0.00004821,-0.00006674,-0.00000828,0.000092
 91,0.00027091,0.00027112,-0.00084225,-0.00035100,-0.00073553,-0.000108
 34,-0.00028356,0.00021944,-0.00008307,0.00006489,-0.00001693,0.0000549
 0,-0.00002155,0.00000038,-0.00002994,0.00003663,-0.00001402,0.00008181
 ,0.00006058,0.00002933,-0.00000710,0.00006351,0.00000883,-0.00101448,-
 0.00096483,-0.00062821,-0.00091819,-0.00076881,0.00183517,0.12073536,0
 .00404249,-0.13832973,-0.01138414,-0.00106468,0.00838030,0.00003280,0.
 00009939,-0.00000988,-0.00007507,-0.00005208,0.00001830,0.00015613,0.0
 0008041,-0.00001921,-0.00025269,-0.00031740,-0.00016271,0.00077185,0.0
 0063024,0.00065461,0.00033595,-0.00094354,0.00064316,-0.00002512,0.000
 06929,-0.00009535,-0.00029679,0.00041959,0.00002676,-0.00002027,-0.000
 03071,0.00003704,-0.00112204,-0.00078516,-0.00171101,0.00035540,-0.000
 20568,0.00013547,0.00000619,0.00007060,-0.00003953,0.00000301,0.000001
 35,-0.00000099,-0.00000758,-0.00000039,-0.00000051,-0.00000153,-0.0000
 0148,0.00000230,0.00000057,-0.00000109,0.00000186,0.00000022,-0.000003
 76,-0.00000029,-0.00000164,-0.00000386,-0.00000243,0.00000328,0.000001
 39,-0.00000286,0.00000233,0.00001745,-0.00004415,-0.00018085,0.0001630
 2,-0.00084045,0.00050441,0.00061136,0.00059513,0.02319527,0.00226943,-
 0.02230453,-0.12977989,-0.00306748,0.15203616\\-0.00000253,0.00000191,
 -0.00000511,0.00000431,0.00000251,-0.00000511,0.00000115,0.00000248,0.
 00000388,-0.00001120,0.00000088,0.00000593,-0.00000102,-0.00000361,-0.
 00000063,0.00000488,0.00000315,0.00000033,-0.00000015,-0.00000225,0.00
 001318,-0.00001622,0.00000225,0.00000041,0.00000431,0.00000494,0.00000
 118,0.00000432,0.00000064,-0.00000008,0.00001167,0.00000227,-0.0000032
 9,0.00002613,-0.00000336,-0.00000007,-0.00001076,-0.00000621,-0.000002
 11,0.00001889,-0.00000156,-0.00000309,0.00000492,-0.00000117,0.0000020
 8,-0.00000291,0.00000154,-0.00000439,0.00000164,-0.00000103,0.00000614
 ,-0.00000595,-0.00000031,-0.00000871,-0.00000333,0.00000326,0.00000423
 ,-0.00003682,0.00000224,0.00000810,0.00000662,0.00000496,0.00000739,0.
 00000674,-0.00000312,-0.00000098,0.00000253,-0.00000046,-0.00000709,0.
 00000077,0.00000019,-0.00000083,0.00000159,-0.00000320,-0.00000222,0.0
 0000129,-0.00000305,0.00000416,-0.00000351,0.00000865,-0.00000467,-0.0
 0000918,-0.00000318,-0.00001032,0.00000045,0.00000031,-0.00000391,0.00
 000148,-0.00000120,-0.00000010,0.00000022,-0.00000087,-0.00000248,-0.0
 0000606,-0.00001441,-0.00000104,-0.00000515,0.00000155,-0.00000062,0.0
 0000019,-0.00000087,-0.00000102,0.00000085,-0.00000079,-0.00000183,0.0
 0000110,-0.00000065,-0.00000302,0.00000179,-0.00000004,-0.00000219,0.0
 0000089,0.00000071,-0.00000154,0.00000125,0.00000206,0.00000049,0.0000
 0040,0.00000146,0.00000172,-0.00000030,0.00000209,0.00000309,0.0000007
 1,0.00000026,0.00000375,-0.00000148,-0.00000054,0.00000482,-0.00000103
 ,-0.00000094,0.00000467,0.00000539,0.00000046,-0.00000110,0.00000112,0
 .00000205,0.00000202\\\@


 IF YOU DON'T HAVE THE LAW - ARGUE THE FACTS.
 IF YOU DON'T HAVE THE FACTS - ARGUE THE LAW.
 IF YOU DON'T HAVE EITHER - POUND THE TABLE.
 Job cpu time:       0 days 22 hours 54 minutes 52.0 seconds.
 Elapsed time:       0 days  1 hours  8 minutes 56.2 seconds.
 File lengths (MBytes):  RWF=   2270 Int=      0 D2E=      0 Chk=     62 Scr=      1
 Normal termination of Gaussian 16 at Fri Jun 21 19:45:29 2019.
