 Entering Gaussian System, Link 0=/share/apps/gaussian16/g16/g16
 Initial command:
 /share/apps/gaussian16/g16/l1.exe "/home/amen01//scratch/571/Gau-16166.inp" -scrdir="/home/amen01//scratch/571/"
 Entering Link 1 = /share/apps/gaussian16/g16/l1.exe PID=     16167.
  
 Copyright (c) 1988-2017, Gaussian, Inc.  All Rights Reserved.
  
 This is part of the Gaussian(R) 16 program.  It is based on
 the Gaussian(R) 09 system (copyright 2009, Gaussian, Inc.),
 the Gaussian(R) 03 system (copyright 2003, Gaussian, Inc.),
 the Gaussian(R) 98 system (copyright 1998, Gaussian, Inc.),
 the Gaussian(R) 94 system (copyright 1995, Gaussian, Inc.),
 the Gaussian 92(TM) system (copyright 1992, Gaussian, Inc.),
 the Gaussian 90(TM) system (copyright 1990, Gaussian, Inc.),
 the Gaussian 88(TM) system (copyright 1988, Gaussian, Inc.),
 the Gaussian 86(TM) system (copyright 1986, Carnegie Mellon
 University), and the Gaussian 82(TM) system (copyright 1983,
 Carnegie Mellon University). Gaussian is a federally registered
 trademark of Gaussian, Inc.
  
 This software contains proprietary and confidential information,
 including trade secrets, belonging to Gaussian, Inc.
  
 This software is provided under written license and may be
 used, copied, transmitted, or stored only in accord with that
 written license.
  
 The following legend is applicable only to US Government
 contracts under FAR:
  
                    RESTRICTED RIGHTS LEGEND
  
 Use, reproduction and disclosure by the US Government is
 subject to restrictions as set forth in subparagraphs (a)
 and (c) of the Commercial Computer Software - Restricted
 Rights clause in FAR 52.227-19.
  
 Gaussian, Inc.
 340 Quinnipiac St., Bldg. 40, Wallingford CT 06492
  
  
 ---------------------------------------------------------------
 Warning -- This program may not be used in any manner that
 competes with the business of Gaussian, Inc. or will provide
 assistance to any competitor of Gaussian, Inc.  The licensee
 of this program is prohibited from giving any competitor of
 Gaussian, Inc. access to this program.  By using this program,
 the user acknowledges that Gaussian, Inc. is engaged in the
 business of creating and licensing software in the field of
 computational chemistry and represents and warrants to the
 licensee that it is not a competitor of Gaussian, Inc. and that
 it will not use this program in any manner prohibited above.
 ---------------------------------------------------------------
  

 Cite this work as:
 Gaussian 16, Revision B.01,
 M. J. Frisch, G. W. Trucks, H. B. Schlegel, G. E. Scuseria, 
 M. A. Robb, J. R. Cheeseman, G. Scalmani, V. Barone, 
 G. A. Petersson, H. Nakatsuji, X. Li, M. Caricato, A. V. Marenich, 
 J. Bloino, B. G. Janesko, R. Gomperts, B. Mennucci, H. P. Hratchian, 
 J. V. Ortiz, A. F. Izmaylov, J. L. Sonnenberg, D. Williams-Young, 
 F. Ding, F. Lipparini, F. Egidi, J. Goings, B. Peng, A. Petrone, 
 T. Henderson, D. Ranasinghe, V. G. Zakrzewski, J. Gao, N. Rega, 
 G. Zheng, W. Liang, M. Hada, M. Ehara, K. Toyota, R. Fukuda, 
 J. Hasegawa, M. Ishida, T. Nakajima, Y. Honda, O. Kitao, H. Nakai, 
 T. Vreven, K. Throssell, J. A. Montgomery, Jr., J. E. Peralta, 
 F. Ogliaro, M. J. Bearpark, J. J. Heyd, E. N. Brothers, K. N. Kudin, 
 V. N. Staroverov, T. A. Keith, R. Kobayashi, J. Normand, 
 K. Raghavachari, A. P. Rendell, J. C. Burant, S. S. Iyengar, 
 J. Tomasi, M. Cossi, J. M. Millam, M. Klene, C. Adamo, R. Cammi, 
 J. W. Ochterski, R. L. Martin, K. Morokuma, O. Farkas, 
 J. B. Foresman, and D. J. Fox, Gaussian, Inc., Wallingford CT, 2016.
 
 ******************************************
 Gaussian 16:  ES64L-G16RevB.01 20-Dec-2017
                20-Jun-2019 
 ******************************************
 %nprocshared=20
 Will use up to   20 processors via shared memory.
 %mem=100GB
 %chk=7-memb-carbTSguess-4d.chk
 ---------------------------------------------------------------
 # opt=(ts,calcfc,noeigen) freq b3lyp/6-311+g(d,p) int=grid=fine
 ---------------------------------------------------------------
 1/5=1,10=4,11=1,18=20,26=3,38=1/1,3;
 2/9=110,12=2,17=6,18=5,40=1/2;
 3/5=4,6=6,7=111,11=2,25=1,30=1,71=2,74=-5,75=-4,140=1/1,2,3;
 4//1;
 5/5=2,38=5/2;
 8/6=4,10=90,11=11/1;
 11/6=1,8=1,9=11,15=111,16=1/1,2,10;
 10/6=1,13=1/2;
 6/7=2,8=2,9=2,10=2,28=1/1;
 7/10=1,18=20,25=1/1,2,3,16;
 1/5=1,10=4,11=1,18=20,26=3/3(2);
 2/9=110/2;
 99//99;
 2/9=110/2;
 3/5=4,6=6,7=111,11=2,25=1,30=1,71=1,74=-5,75=-4/1,2,3;
 4/5=5,16=3,69=1/1;
 5/5=2,38=5/2;
 7//1,2,3,16;
 1/5=1,11=1,18=20,26=3/3(-5);
 2/9=110/2;
 6/7=2,8=2,9=2,10=2,19=2,28=1/1;
 99/9=1/99;
 ---------------------
 7-memb-carbTSguess-4d
 ---------------------
 Symbolic Z-matrix:
 Charge =  0 Multiplicity = 1
 C                    -1.61343  -2.80575  -0.10316 
 C                    -1.44784  -1.45568   0.20135 
 C                    -2.53879  -0.58729   0.33271 
 C                    -3.85405  -0.93423   0.14171 
 C                    -2.99619  -3.23147  -0.20982 
 C                    -4.0567   -2.34866  -0.09978 
 C                    -2.04458   0.72292   0.39467 
 C                    -2.88231   1.82936   0.24607 
 C                    -4.29601   1.50265   0.15702 
 C                    -4.75779   0.20048   0.10641 
 C                    -0.64577   0.69418   0.31001 
 C                     0.04653   1.87349   0.08275 
 C                    -0.78244   3.07264  -0.04267 
 C                    -2.19995   3.03989   0.05604 
 C                    -0.40394  -3.4834   -0.33176 
 C                     0.83645  -2.80008  -0.27618 
 C                     0.94806  -1.35872  -0.0502 
 C                    -0.25677  -0.71302   0.18934 
 C                    -0.13438   4.29422  -0.37089 
 C                     1.48082   1.91479  -0.09732 
 C                     1.997     3.14454  -0.49576 
 C                     1.21007   4.31137  -0.62255 
 C                     2.04376  -3.54058  -0.4172 
 C                     3.24724  -2.92781  -0.24476 
 C                     3.36697  -1.53008   0.00753 
 C                     2.23152  -0.68178  -0.00349 
 C                     2.42908   0.77275   0.16489 
 C                     3.88001   1.23224   0.10136 
 C                     4.66912  -1.05339   0.41597 
 C                     4.90249   0.25471   0.55764 
 H                     5.86093   0.63139   0.89687 
 H                     4.1101    1.46049  -0.95807 
 H                     5.42778  -1.79278   0.64933 
 H                     4.16095  -3.51132  -0.27701 
 H                     1.98991  -4.60613  -0.61214 
 H                    -0.38762  -4.54547  -0.55564 
 H                    -3.21056  -4.27459  -0.41867 
 H                    -5.06396  -2.73071  -0.23153 
 H                    -5.82439   0.03288  -0.00375 
 H                    -5.01693   2.31055   0.0837 
 H                    -2.73895   3.97022  -0.09333 
 H                    -0.7258    5.19938  -0.45611 
 H                     1.69677   5.23353  -0.91935 
 H                     3.04558   3.25905  -0.71748 
 H                     2.4122    0.74904   2.36772 
 H                     3.99493   2.16474   0.6458 
 
 Add virtual bond connecting atoms H45        and C27        Dist= 4.16D+00.

 GradGradGradGradGradGradGradGradGradGradGradGradGradGradGradGradGradGrad
 Berny optimization.
 Initialization pass.
                           ----------------------------
                           !    Initial Parameters    !
                           ! (Angstroms and Degrees)  !
 --------------------------                            --------------------------
 ! Name  Definition              Value          Derivative Info.                !
 --------------------------------------------------------------------------------
 ! R1    R(1,2)                  1.3939         calculate D2E/DX2 analytically  !
 ! R2    R(1,5)                  1.4507         calculate D2E/DX2 analytically  !
 ! R3    R(1,15)                 1.4051         calculate D2E/DX2 analytically  !
 ! R4    R(2,3)                  1.4005         calculate D2E/DX2 analytically  !
 ! R5    R(2,18)                 1.4037         calculate D2E/DX2 analytically  !
 ! R6    R(3,4)                  1.3736         calculate D2E/DX2 analytically  !
 ! R7    R(3,7)                  1.4017         calculate D2E/DX2 analytically  !
 ! R8    R(4,6)                  1.4491         calculate D2E/DX2 analytically  !
 ! R9    R(4,10)                 1.4511         calculate D2E/DX2 analytically  !
 ! R10   R(5,6)                  1.3842         calculate D2E/DX2 analytically  !
 ! R11   R(5,37)                 1.0852         calculate D2E/DX2 analytically  !
 ! R12   R(6,38)                 1.0853         calculate D2E/DX2 analytically  !
 ! R13   R(7,8)                  1.3957         calculate D2E/DX2 analytically  !
 ! R14   R(7,11)                 1.4017         calculate D2E/DX2 analytically  !
 ! R15   R(8,9)                  1.4537         calculate D2E/DX2 analytically  !
 ! R16   R(8,14)                 1.4025         calculate D2E/DX2 analytically  !
 ! R17   R(9,10)                 1.3825         calculate D2E/DX2 analytically  !
 ! R18   R(9,40)                 1.0853         calculate D2E/DX2 analytically  !
 ! R19   R(10,39)                1.0853         calculate D2E/DX2 analytically  !
 ! R20   R(11,12)                1.3863         calculate D2E/DX2 analytically  !
 ! R21   R(11,18)                1.465          calculate D2E/DX2 analytically  !
 ! R22   R(12,13)                1.4632         calculate D2E/DX2 analytically  !
 ! R23   R(12,20)                1.4461         calculate D2E/DX2 analytically  !
 ! R24   R(13,14)                1.4213         calculate D2E/DX2 analytically  !
 ! R25   R(13,19)                1.4213         calculate D2E/DX2 analytically  !
 ! R26   R(14,41)                1.0855         calculate D2E/DX2 analytically  !
 ! R27   R(15,16)                1.4172         calculate D2E/DX2 analytically  !
 ! R28   R(15,36)                1.0855         calculate D2E/DX2 analytically  !
 ! R29   R(16,17)                1.4632         calculate D2E/DX2 analytically  !
 ! R30   R(16,23)                1.4233         calculate D2E/DX2 analytically  !
 ! R31   R(17,18)                1.3878         calculate D2E/DX2 analytically  !
 ! R32   R(17,26)                1.4518         calculate D2E/DX2 analytically  !
 ! R33   R(19,22)                1.3679         calculate D2E/DX2 analytically  !
 ! R34   R(19,42)                1.0846         calculate D2E/DX2 analytically  !
 ! R35   R(20,21)                1.3919         calculate D2E/DX2 analytically  !
 ! R36   R(20,27)                1.5074         calculate D2E/DX2 analytically  !
 ! R37   R(21,22)                1.4131         calculate D2E/DX2 analytically  !
 ! R38   R(21,44)                1.0779         calculate D2E/DX2 analytically  !
 ! R39   R(22,43)                1.0841         calculate D2E/DX2 analytically  !
 ! R40   R(23,24)                1.3615         calculate D2E/DX2 analytically  !
 ! R41   R(23,35)                1.0846         calculate D2E/DX2 analytically  !
 ! R42   R(24,25)                1.4254         calculate D2E/DX2 analytically  !
 ! R43   R(24,34)                1.0846         calculate D2E/DX2 analytically  !
 ! R44   R(25,26)                1.4174         calculate D2E/DX2 analytically  !
 ! R45   R(25,29)                1.4456         calculate D2E/DX2 analytically  !
 ! R46   R(26,27)                1.4775         calculate D2E/DX2 analytically  !
 ! R47   R(27,28)                1.5233         calculate D2E/DX2 analytically  !
 ! R48   R(27,45)                2.203          calculate D2E/DX2 analytically  !
 ! R49   R(28,30)                1.4863         calculate D2E/DX2 analytically  !
 ! R50   R(28,32)                1.1079         calculate D2E/DX2 analytically  !
 ! R51   R(28,46)                1.0859         calculate D2E/DX2 analytically  !
 ! R52   R(29,30)                1.3363         calculate D2E/DX2 analytically  !
 ! R53   R(29,33)                1.0848         calculate D2E/DX2 analytically  !
 ! R54   R(30,31)                1.0842         calculate D2E/DX2 analytically  !
 ! A1    A(2,1,5)              114.4266         calculate D2E/DX2 analytically  !
 ! A2    A(2,1,15)             113.6039         calculate D2E/DX2 analytically  !
 ! A3    A(5,1,15)             131.8327         calculate D2E/DX2 analytically  !
 ! A4    A(1,2,3)              121.905          calculate D2E/DX2 analytically  !
 ! A5    A(1,2,18)             127.69           calculate D2E/DX2 analytically  !
 ! A6    A(3,2,18)             109.4946         calculate D2E/DX2 analytically  !
 ! A7    A(2,3,4)              125.1851         calculate D2E/DX2 analytically  !
 ! A8    A(2,3,7)              108.0032         calculate D2E/DX2 analytically  !
 ! A9    A(4,3,7)              125.4401         calculate D2E/DX2 analytically  !
 ! A10   A(3,4,6)              113.8035         calculate D2E/DX2 analytically  !
 ! A11   A(3,4,10)             113.7181         calculate D2E/DX2 analytically  !
 ! A12   A(6,4,10)             132.2304         calculate D2E/DX2 analytically  !
 ! A13   A(1,5,6)              122.4952         calculate D2E/DX2 analytically  !
 ! A14   A(1,5,37)             118.98           calculate D2E/DX2 analytically  !
 ! A15   A(6,5,37)             118.4886         calculate D2E/DX2 analytically  !
 ! A16   A(4,6,5)              121.9107         calculate D2E/DX2 analytically  !
 ! A17   A(4,6,38)             119.5779         calculate D2E/DX2 analytically  !
 ! A18   A(5,6,38)             118.4813         calculate D2E/DX2 analytically  !
 ! A19   A(3,7,8)              121.6455         calculate D2E/DX2 analytically  !
 ! A20   A(3,7,11)             109.2706         calculate D2E/DX2 analytically  !
 ! A21   A(8,7,11)             127.5032         calculate D2E/DX2 analytically  !
 ! A22   A(7,8,9)              114.3336         calculate D2E/DX2 analytically  !
 ! A23   A(7,8,14)             113.9928         calculate D2E/DX2 analytically  !
 ! A24   A(9,8,14)             131.2094         calculate D2E/DX2 analytically  !
 ! A25   A(8,9,10)             122.5979         calculate D2E/DX2 analytically  !
 ! A26   A(8,9,40)             118.8706         calculate D2E/DX2 analytically  !
 ! A27   A(10,9,40)            118.4767         calculate D2E/DX2 analytically  !
 ! A28   A(4,10,9)             121.8442         calculate D2E/DX2 analytically  !
 ! A29   A(4,10,39)            119.5902         calculate D2E/DX2 analytically  !
 ! A30   A(9,10,39)            118.517          calculate D2E/DX2 analytically  !
 ! A31   A(7,11,12)            119.396          calculate D2E/DX2 analytically  !
 ! A32   A(7,11,18)            106.8383         calculate D2E/DX2 analytically  !
 ! A33   A(12,11,18)           132.1493         calculate D2E/DX2 analytically  !
 ! A34   A(11,12,13)           115.3612         calculate D2E/DX2 analytically  !
 ! A35   A(11,12,20)           122.6848         calculate D2E/DX2 analytically  !
 ! A36   A(13,12,20)           121.8593         calculate D2E/DX2 analytically  !
 ! A37   A(12,13,14)           122.6973         calculate D2E/DX2 analytically  !
 ! A38   A(12,13,19)           117.7668         calculate D2E/DX2 analytically  !
 ! A39   A(14,13,19)           119.3796         calculate D2E/DX2 analytically  !
 ! A40   A(8,14,13)            120.9646         calculate D2E/DX2 analytically  !
 ! A41   A(8,14,41)            121.1167         calculate D2E/DX2 analytically  !
 ! A42   A(13,14,41)           117.7686         calculate D2E/DX2 analytically  !
 ! A43   A(1,15,16)            120.961          calculate D2E/DX2 analytically  !
 ! A44   A(1,15,36)            121.2211         calculate D2E/DX2 analytically  !
 ! A45   A(16,15,36)           117.8179         calculate D2E/DX2 analytically  !
 ! A46   A(15,16,17)           123.2134         calculate D2E/DX2 analytically  !
 ! A47   A(15,16,23)           119.187          calculate D2E/DX2 analytically  !
 ! A48   A(17,16,23)           117.5863         calculate D2E/DX2 analytically  !
 ! A49   A(16,17,18)           114.7562         calculate D2E/DX2 analytically  !
 ! A50   A(16,17,26)           122.1214         calculate D2E/DX2 analytically  !
 ! A51   A(18,17,26)           123.025          calculate D2E/DX2 analytically  !
 ! A52   A(2,18,11)            106.391          calculate D2E/DX2 analytically  !
 ! A53   A(2,18,17)            119.471          calculate D2E/DX2 analytically  !
 ! A54   A(11,18,17)           133.7637         calculate D2E/DX2 analytically  !
 ! A55   A(13,19,22)           120.0936         calculate D2E/DX2 analytically  !
 ! A56   A(13,19,42)           119.1315         calculate D2E/DX2 analytically  !
 ! A57   A(22,19,42)           120.7321         calculate D2E/DX2 analytically  !
 ! A58   A(12,20,21)           115.3829         calculate D2E/DX2 analytically  !
 ! A59   A(12,20,27)           125.4946         calculate D2E/DX2 analytically  !
 ! A60   A(21,20,27)           119.0693         calculate D2E/DX2 analytically  !
 ! A61   A(20,21,22)           123.2776         calculate D2E/DX2 analytically  !
 ! A62   A(20,21,44)           120.8968         calculate D2E/DX2 analytically  !
 ! A63   A(22,21,44)           115.822          calculate D2E/DX2 analytically  !
 ! A64   A(19,22,21)           121.3642         calculate D2E/DX2 analytically  !
 ! A65   A(19,22,43)           120.1492         calculate D2E/DX2 analytically  !
 ! A66   A(21,22,43)           118.4851         calculate D2E/DX2 analytically  !
 ! A67   A(16,23,24)           120.2053         calculate D2E/DX2 analytically  !
 ! A68   A(16,23,35)           119.1321         calculate D2E/DX2 analytically  !
 ! A69   A(24,23,35)           120.587          calculate D2E/DX2 analytically  !
 ! A70   A(23,24,25)           122.5501         calculate D2E/DX2 analytically  !
 ! A71   A(23,24,34)           119.9184         calculate D2E/DX2 analytically  !
 ! A72   A(25,24,34)           117.5197         calculate D2E/DX2 analytically  !
 ! A73   A(24,25,26)           121.2132         calculate D2E/DX2 analytically  !
 ! A74   A(24,25,29)           116.6831         calculate D2E/DX2 analytically  !
 ! A75   A(26,25,29)           121.7656         calculate D2E/DX2 analytically  !
 ! A76   A(17,26,25)           115.4286         calculate D2E/DX2 analytically  !
 ! A77   A(17,26,27)           125.5143         calculate D2E/DX2 analytically  !
 ! A78   A(25,26,27)           118.7627         calculate D2E/DX2 analytically  !
 ! A79   A(20,27,26)           129.934          calculate D2E/DX2 analytically  !
 ! A80   A(20,27,28)           111.31           calculate D2E/DX2 analytically  !
 ! A81   A(20,27,45)           100.2109         calculate D2E/DX2 analytically  !
 ! A82   A(26,27,28)           114.8068         calculate D2E/DX2 analytically  !
 ! A83   A(26,27,45)            95.8735         calculate D2E/DX2 analytically  !
 ! A84   A(28,27,45)            92.9948         calculate D2E/DX2 analytically  !
 ! A85   A(27,28,30)           116.3634         calculate D2E/DX2 analytically  !
 ! A86   A(27,28,32)           107.4483         calculate D2E/DX2 analytically  !
 ! A87   A(27,28,46)           109.8113         calculate D2E/DX2 analytically  !
 ! A88   A(30,28,32)           106.6294         calculate D2E/DX2 analytically  !
 ! A89   A(30,28,46)           109.7583         calculate D2E/DX2 analytically  !
 ! A90   A(32,28,46)           106.2924         calculate D2E/DX2 analytically  !
 ! A91   A(25,29,30)           120.669          calculate D2E/DX2 analytically  !
 ! A92   A(25,29,33)           117.7751         calculate D2E/DX2 analytically  !
 ! A93   A(30,29,33)           121.486          calculate D2E/DX2 analytically  !
 ! A94   A(28,30,29)           119.414          calculate D2E/DX2 analytically  !
 ! A95   A(28,30,31)           118.403          calculate D2E/DX2 analytically  !
 ! A96   A(29,30,31)           121.8454         calculate D2E/DX2 analytically  !
 ! D1    D(5,1,2,3)             -2.584          calculate D2E/DX2 analytically  !
 ! D2    D(5,1,2,18)          -170.4792         calculate D2E/DX2 analytically  !
 ! D3    D(15,1,2,3)           173.6757         calculate D2E/DX2 analytically  !
 ! D4    D(15,1,2,18)            5.7806         calculate D2E/DX2 analytically  !
 ! D5    D(2,1,5,6)              3.8206         calculate D2E/DX2 analytically  !
 ! D6    D(2,1,5,37)          -178.4032         calculate D2E/DX2 analytically  !
 ! D7    D(15,1,5,6)          -171.5778         calculate D2E/DX2 analytically  !
 ! D8    D(15,1,5,37)            6.1984         calculate D2E/DX2 analytically  !
 ! D9    D(2,1,15,16)           -1.4105         calculate D2E/DX2 analytically  !
 ! D10   D(2,1,15,36)          178.5441         calculate D2E/DX2 analytically  !
 ! D11   D(5,1,15,16)          174.0173         calculate D2E/DX2 analytically  !
 ! D12   D(5,1,15,36)           -6.028          calculate D2E/DX2 analytically  !
 ! D13   D(1,2,3,4)             -2.2            calculate D2E/DX2 analytically  !
 ! D14   D(1,2,3,7)           -169.3936         calculate D2E/DX2 analytically  !
 ! D15   D(18,2,3,4)           167.6611         calculate D2E/DX2 analytically  !
 ! D16   D(18,2,3,7)             0.4676         calculate D2E/DX2 analytically  !
 ! D17   D(1,2,18,11)          168.6489         calculate D2E/DX2 analytically  !
 ! D18   D(1,2,18,17)           -5.2677         calculate D2E/DX2 analytically  !
 ! D19   D(3,2,18,11)           -0.4656         calculate D2E/DX2 analytically  !
 ! D20   D(3,2,18,17)         -174.3822         calculate D2E/DX2 analytically  !
 ! D21   D(2,3,4,6)              5.4017         calculate D2E/DX2 analytically  !
 ! D22   D(2,3,4,10)          -169.5895         calculate D2E/DX2 analytically  !
 ! D23   D(7,3,4,6)            170.4061         calculate D2E/DX2 analytically  !
 ! D24   D(7,3,4,10)            -4.5851         calculate D2E/DX2 analytically  !
 ! D25   D(2,3,7,8)            166.3931         calculate D2E/DX2 analytically  !
 ! D26   D(2,3,7,11)            -0.2765         calculate D2E/DX2 analytically  !
 ! D27   D(4,3,7,8)             -0.7593         calculate D2E/DX2 analytically  !
 ! D28   D(4,3,7,11)          -167.429          calculate D2E/DX2 analytically  !
 ! D29   D(3,4,6,5)             -3.9763         calculate D2E/DX2 analytically  !
 ! D30   D(3,4,6,38)           178.0513         calculate D2E/DX2 analytically  !
 ! D31   D(10,4,6,5)           169.8263         calculate D2E/DX2 analytically  !
 ! D32   D(10,4,6,38)           -8.1461         calculate D2E/DX2 analytically  !
 ! D33   D(3,4,10,9)             4.7817         calculate D2E/DX2 analytically  !
 ! D34   D(3,4,10,39)         -177.7896         calculate D2E/DX2 analytically  !
 ! D35   D(6,4,10,9)          -169.0249         calculate D2E/DX2 analytically  !
 ! D36   D(6,4,10,39)            8.4038         calculate D2E/DX2 analytically  !
 ! D37   D(1,5,6,4)             -0.523          calculate D2E/DX2 analytically  !
 ! D38   D(1,5,6,38)           177.4709         calculate D2E/DX2 analytically  !
 ! D39   D(37,5,6,4)          -178.3096         calculate D2E/DX2 analytically  !
 ! D40   D(37,5,6,38)           -0.3157         calculate D2E/DX2 analytically  !
 ! D41   D(3,7,8,9)              5.6894         calculate D2E/DX2 analytically  !
 ! D42   D(3,7,8,14)          -167.3855         calculate D2E/DX2 analytically  !
 ! D43   D(11,7,8,9)           169.7661         calculate D2E/DX2 analytically  !
 ! D44   D(11,7,8,14)           -3.3089         calculate D2E/DX2 analytically  !
 ! D45   D(3,7,11,12)          167.2138         calculate D2E/DX2 analytically  !
 ! D46   D(3,7,11,18)           -0.0101         calculate D2E/DX2 analytically  !
 ! D47   D(8,7,11,12)            1.5387         calculate D2E/DX2 analytically  !
 ! D48   D(8,7,11,18)         -165.6852         calculate D2E/DX2 analytically  !
 ! D49   D(7,8,9,10)            -5.3696         calculate D2E/DX2 analytically  !
 ! D50   D(7,8,9,40)           177.3661         calculate D2E/DX2 analytically  !
 ! D51   D(14,8,9,10)          166.2108         calculate D2E/DX2 analytically  !
 ! D52   D(14,8,9,40)          -11.0535         calculate D2E/DX2 analytically  !
 ! D53   D(7,8,14,13)            3.2357         calculate D2E/DX2 analytically  !
 ! D54   D(7,8,14,41)          178.6838         calculate D2E/DX2 analytically  !
 ! D55   D(9,8,14,13)         -168.3674         calculate D2E/DX2 analytically  !
 ! D56   D(9,8,14,41)            7.0808         calculate D2E/DX2 analytically  !
 ! D57   D(8,9,10,4)             0.1186         calculate D2E/DX2 analytically  !
 ! D58   D(8,9,10,39)         -177.3367         calculate D2E/DX2 analytically  !
 ! D59   D(40,9,10,4)          177.3932         calculate D2E/DX2 analytically  !
 ! D60   D(40,9,10,39)          -0.0621         calculate D2E/DX2 analytically  !
 ! D61   D(7,11,12,13)           0.3416         calculate D2E/DX2 analytically  !
 ! D62   D(7,11,12,20)        -176.1781         calculate D2E/DX2 analytically  !
 ! D63   D(18,11,12,13)        163.7536         calculate D2E/DX2 analytically  !
 ! D64   D(18,11,12,20)        -12.7661         calculate D2E/DX2 analytically  !
 ! D65   D(7,11,18,2)            0.2897         calculate D2E/DX2 analytically  !
 ! D66   D(7,11,18,17)         172.95           calculate D2E/DX2 analytically  !
 ! D67   D(12,11,18,2)        -164.6477         calculate D2E/DX2 analytically  !
 ! D68   D(12,11,18,17)          8.0125         calculate D2E/DX2 analytically  !
 ! D69   D(11,12,13,14)         -0.1887         calculate D2E/DX2 analytically  !
 ! D70   D(11,12,13,19)       -175.6106         calculate D2E/DX2 analytically  !
 ! D71   D(20,12,13,14)        176.3626         calculate D2E/DX2 analytically  !
 ! D72   D(20,12,13,19)          0.9407         calculate D2E/DX2 analytically  !
 ! D73   D(11,12,20,21)        171.5925         calculate D2E/DX2 analytically  !
 ! D74   D(11,12,20,27)        -11.0987         calculate D2E/DX2 analytically  !
 ! D75   D(13,12,20,21)         -4.7046         calculate D2E/DX2 analytically  !
 ! D76   D(13,12,20,27)        172.6043         calculate D2E/DX2 analytically  !
 ! D77   D(12,13,14,8)          -1.7435         calculate D2E/DX2 analytically  !
 ! D78   D(12,13,14,41)       -177.3397         calculate D2E/DX2 analytically  !
 ! D79   D(19,13,14,8)         173.6076         calculate D2E/DX2 analytically  !
 ! D80   D(19,13,14,41)         -1.9886         calculate D2E/DX2 analytically  !
 ! D81   D(12,13,19,22)          3.189          calculate D2E/DX2 analytically  !
 ! D82   D(12,13,19,42)       -179.1728         calculate D2E/DX2 analytically  !
 ! D83   D(14,13,19,22)       -172.3901         calculate D2E/DX2 analytically  !
 ! D84   D(14,13,19,42)          5.248          calculate D2E/DX2 analytically  !
 ! D85   D(1,15,16,17)          -3.1714         calculate D2E/DX2 analytically  !
 ! D86   D(1,15,16,23)         175.4649         calculate D2E/DX2 analytically  !
 ! D87   D(36,15,16,17)        176.8724         calculate D2E/DX2 analytically  !
 ! D88   D(36,15,16,23)         -4.4912         calculate D2E/DX2 analytically  !
 ! D89   D(15,16,17,18)          3.763          calculate D2E/DX2 analytically  !
 ! D90   D(15,16,17,26)       -179.7252         calculate D2E/DX2 analytically  !
 ! D91   D(23,16,17,18)       -174.8939         calculate D2E/DX2 analytically  !
 ! D92   D(23,16,17,26)          1.618          calculate D2E/DX2 analytically  !
 ! D93   D(15,16,23,24)       -173.9396         calculate D2E/DX2 analytically  !
 ! D94   D(15,16,23,35)          2.919          calculate D2E/DX2 analytically  !
 ! D95   D(17,16,23,24)          4.7732         calculate D2E/DX2 analytically  !
 ! D96   D(17,16,23,35)       -178.3682         calculate D2E/DX2 analytically  !
 ! D97   D(16,17,18,2)           0.1607         calculate D2E/DX2 analytically  !
 ! D98   D(16,17,18,11)       -171.7465         calculate D2E/DX2 analytically  !
 ! D99   D(26,17,18,2)        -176.3157         calculate D2E/DX2 analytically  !
 ! D100  D(26,17,18,11)         11.7771         calculate D2E/DX2 analytically  !
 ! D101  D(16,17,26,25)         -8.9528         calculate D2E/DX2 analytically  !
 ! D102  D(16,17,26,27)        177.3886         calculate D2E/DX2 analytically  !
 ! D103  D(18,17,26,25)        167.2688         calculate D2E/DX2 analytically  !
 ! D104  D(18,17,26,27)         -6.3899         calculate D2E/DX2 analytically  !
 ! D105  D(13,19,22,21)         -3.3812         calculate D2E/DX2 analytically  !
 ! D106  D(13,19,22,43)        177.0654         calculate D2E/DX2 analytically  !
 ! D107  D(42,19,22,21)        179.019          calculate D2E/DX2 analytically  !
 ! D108  D(42,19,22,43)         -0.5344         calculate D2E/DX2 analytically  !
 ! D109  D(12,20,21,22)          4.7019         calculate D2E/DX2 analytically  !
 ! D110  D(12,20,21,44)       -176.0245         calculate D2E/DX2 analytically  !
 ! D111  D(27,20,21,22)       -172.7914         calculate D2E/DX2 analytically  !
 ! D112  D(27,20,21,44)          6.4822         calculate D2E/DX2 analytically  !
 ! D113  D(12,20,27,26)         33.7222         calculate D2E/DX2 analytically  !
 ! D114  D(12,20,27,28)       -170.2305         calculate D2E/DX2 analytically  !
 ! D115  D(12,20,27,45)        -72.92           calculate D2E/DX2 analytically  !
 ! D116  D(21,20,27,26)       -149.0596         calculate D2E/DX2 analytically  !
 ! D117  D(21,20,27,28)          6.9877         calculate D2E/DX2 analytically  !
 ! D118  D(21,20,27,45)        104.2982         calculate D2E/DX2 analytically  !
 ! D119  D(20,21,22,19)         -0.7997         calculate D2E/DX2 analytically  !
 ! D120  D(20,21,22,43)        178.7609         calculate D2E/DX2 analytically  !
 ! D121  D(44,21,22,19)        179.8927         calculate D2E/DX2 analytically  !
 ! D122  D(44,21,22,43)         -0.5467         calculate D2E/DX2 analytically  !
 ! D123  D(16,23,24,25)         -3.4664         calculate D2E/DX2 analytically  !
 ! D124  D(16,23,24,34)        175.2561         calculate D2E/DX2 analytically  !
 ! D125  D(35,23,24,25)        179.7212         calculate D2E/DX2 analytically  !
 ! D126  D(35,23,24,34)         -1.5563         calculate D2E/DX2 analytically  !
 ! D127  D(23,24,25,26)         -4.618          calculate D2E/DX2 analytically  !
 ! D128  D(23,24,25,29)        168.8192         calculate D2E/DX2 analytically  !
 ! D129  D(34,24,25,26)        176.6305         calculate D2E/DX2 analytically  !
 ! D130  D(34,24,25,29)         -9.9323         calculate D2E/DX2 analytically  !
 ! D131  D(24,25,26,17)         10.3906         calculate D2E/DX2 analytically  !
 ! D132  D(24,25,26,27)       -175.496          calculate D2E/DX2 analytically  !
 ! D133  D(29,25,26,17)       -162.7108         calculate D2E/DX2 analytically  !
 ! D134  D(29,25,26,27)         11.4026         calculate D2E/DX2 analytically  !
 ! D135  D(24,25,29,30)        174.0004         calculate D2E/DX2 analytically  !
 ! D136  D(24,25,29,33)         -8.9948         calculate D2E/DX2 analytically  !
 ! D137  D(26,25,29,30)        -12.6014         calculate D2E/DX2 analytically  !
 ! D138  D(26,25,29,33)        164.4033         calculate D2E/DX2 analytically  !
 ! D139  D(17,26,27,20)        -21.3393         calculate D2E/DX2 analytically  !
 ! D140  D(17,26,27,28)       -176.7146         calculate D2E/DX2 analytically  !
 ! D141  D(17,26,27,45)         87.2347         calculate D2E/DX2 analytically  !
 ! D142  D(25,26,27,20)        165.1946         calculate D2E/DX2 analytically  !
 ! D143  D(25,26,27,28)          9.8193         calculate D2E/DX2 analytically  !
 ! D144  D(25,26,27,45)        -86.2314         calculate D2E/DX2 analytically  !
 ! D145  D(20,27,28,30)        170.4005         calculate D2E/DX2 analytically  !
 ! D146  D(20,27,28,32)        -70.2209         calculate D2E/DX2 analytically  !
 ! D147  D(20,27,28,46)         44.9802         calculate D2E/DX2 analytically  !
 ! D148  D(26,27,28,30)        -29.6559         calculate D2E/DX2 analytically  !
 ! D149  D(26,27,28,32)         89.7227         calculate D2E/DX2 analytically  !
 ! D150  D(26,27,28,46)       -155.0762         calculate D2E/DX2 analytically  !
 ! D151  D(45,27,28,30)         68.2224         calculate D2E/DX2 analytically  !
 ! D152  D(45,27,28,32)       -172.399          calculate D2E/DX2 analytically  !
 ! D153  D(45,27,28,46)        -57.1979         calculate D2E/DX2 analytically  !
 ! D154  D(27,28,30,29)         30.0935         calculate D2E/DX2 analytically  !
 ! D155  D(27,28,30,31)       -156.4531         calculate D2E/DX2 analytically  !
 ! D156  D(32,28,30,29)        -89.7268         calculate D2E/DX2 analytically  !
 ! D157  D(32,28,30,31)         83.7265         calculate D2E/DX2 analytically  !
 ! D158  D(46,28,30,29)        155.5406         calculate D2E/DX2 analytically  !
 ! D159  D(46,28,30,31)        -31.006          calculate D2E/DX2 analytically  !
 ! D160  D(25,29,30,28)         -8.995          calculate D2E/DX2 analytically  !
 ! D161  D(25,29,30,31)        177.7851         calculate D2E/DX2 analytically  !
 ! D162  D(33,29,30,28)        174.1129         calculate D2E/DX2 analytically  !
 ! D163  D(33,29,30,31)          0.8929         calculate D2E/DX2 analytically  !
 --------------------------------------------------------------------------------
 Trust Radius=3.00D-01 FncErr=1.00D-07 GrdErr=1.00D-06 EigMax=2.50D+02 EigMin=1.00D-04
 Number of steps in this run=    276 maximum allowed number of steps=    276.
 Search for a saddle point of order  1.
 GradGradGradGradGradGradGradGradGradGradGradGradGradGradGradGradGradGrad

                          Input orientation:                          
 ---------------------------------------------------------------------
 Center     Atomic      Atomic             Coordinates (Angstroms)
 Number     Number       Type             X           Y           Z
 ---------------------------------------------------------------------
      1          6           0       -1.613428   -2.805749   -0.103158
      2          6           0       -1.447842   -1.455680    0.201353
      3          6           0       -2.538791   -0.587292    0.332706
      4          6           0       -3.854052   -0.934229    0.141708
      5          6           0       -2.996192   -3.231474   -0.209820
      6          6           0       -4.056699   -2.348658   -0.099780
      7          6           0       -2.044575    0.722919    0.394670
      8          6           0       -2.882305    1.829364    0.246069
      9          6           0       -4.296011    1.502647    0.157018
     10          6           0       -4.757789    0.200478    0.106410
     11          6           0       -0.645773    0.694177    0.310005
     12          6           0        0.046528    1.873494    0.082746
     13          6           0       -0.782435    3.072637   -0.042667
     14          6           0       -2.199953    3.039888    0.056038
     15          6           0       -0.403938   -3.483401   -0.331755
     16          6           0        0.836445   -2.800081   -0.276175
     17          6           0        0.948057   -1.358721   -0.050200
     18          6           0       -0.256767   -0.713024    0.189344
     19          6           0       -0.134380    4.294219   -0.370894
     20          6           0        1.480824    1.914792   -0.097322
     21          6           0        1.996995    3.144542   -0.495756
     22          6           0        1.210074    4.311365   -0.622549
     23          6           0        2.043761   -3.540577   -0.417195
     24          6           0        3.247236   -2.927805   -0.244763
     25          6           0        3.366974   -1.530078    0.007526
     26          6           0        2.231518   -0.681776   -0.003488
     27          6           0        2.429082    0.772754    0.164892
     28          6           0        3.880012    1.232235    0.101363
     29          6           0        4.669116   -1.053387    0.415974
     30          6           0        4.902487    0.254714    0.557642
     31          1           0        5.860928    0.631386    0.896872
     32          1           0        4.110102    1.460486   -0.958066
     33          1           0        5.427778   -1.792780    0.649329
     34          1           0        4.160952   -3.511318   -0.277009
     35          1           0        1.989908   -4.606128   -0.612135
     36          1           0       -0.387624   -4.545472   -0.555642
     37          1           0       -3.210561   -4.274585   -0.418674
     38          1           0       -5.063960   -2.730714   -0.231527
     39          1           0       -5.824385    0.032875   -0.003751
     40          1           0       -5.016929    2.310547    0.083703
     41          1           0       -2.738949    3.970215   -0.093329
     42          1           0       -0.725801    5.199379   -0.456108
     43          1           0        1.696772    5.233533   -0.919352
     44          1           0        3.045579    3.259046   -0.717478
     45          1           0        2.412204    0.749044    2.367720
     46          1           0        3.994932    2.164739    0.645801
 ---------------------------------------------------------------------
                    Distance matrix (angstroms):
                    1          2          3          4          5
     1  C    0.000000
     2  C    1.393855   0.000000
     3  C    2.442913   1.400543   0.000000
     4  C    2.929666   2.462786   1.373593   0.000000
     5  C    1.450743   2.391630   2.737745   2.477263   0.000000
     6  C    2.485662   2.773847   2.365058   1.449135   1.384250
     7  C    3.589599   2.267103   1.401692   2.466645   4.111959
     8  C    4.818328   3.584857   2.442485   2.931319   5.082606
     9  C    5.081950   4.106791   2.736153   2.476677   4.923007
    10  C    4.355264   3.702381   2.365532   1.451050   3.870597
    11  C    3.654660   2.297173   2.286087   3.601817   4.604935
    12  C    4.968433   3.651111   3.577963   4.806382   5.950163
    13  C    5.937140   4.583445   4.076858   5.052108   6.683598
    14  C    5.877144   4.560364   3.653463   4.305460   6.327295
    15  C    1.405110   2.342134   3.658764   4.315754   2.607320
    16  C    2.455981   2.693216   4.081592   5.065253   3.857410
    17  C    2.942431   2.411019   3.591633   4.824653   4.369186
    18  C    2.511092   1.403689   2.289977   3.604395   3.742509
    19  C    7.257328   5.925706   5.486838   6.437033   8.053072
    20  C    5.644284   4.475084   4.754225   6.052682   6.822051
    21  C    6.971029   5.789206   5.931803   7.160830   8.103534
    22  C    7.674324   6.403291   6.242062   7.331147   8.646238
    23  C    3.743477   4.113476   5.503092   6.472219   5.053679
    24  C    4.864258   4.940641   6.268140   7.385932   6.250906
    25  C    5.142372   4.819290   5.989378   7.246810   6.590286
    26  C    4.393723   3.765445   4.783074   6.092534   5.820007
    27  C    5.405499   4.471889   5.153411   6.510922   6.753358
    28  C    6.820926   5.968326   6.675719   8.031870   8.203884
    29  C    6.542983   6.133928   7.223441   8.528412   7.993286
    30  C    7.229124   6.586279   7.492142   8.846670   8.667851
    31  H    8.287337   7.632674   8.506394   9.869258   9.725998
    32  H    7.189605   6.382712   7.075823   8.388797   8.548320
    33  H    7.153386   6.898440   8.063478   9.335264   8.589019
    34  H    5.819924   5.992750   7.335410   8.429531   7.162928
    35  H    4.060105   4.733414   6.128041   6.942837   5.187748
    36  H    2.175770   3.353195   4.591718   5.054057   2.941226
    37  H    2.192684   3.381987   3.822562   3.447620   1.085198
    38  H    3.453734   3.858679   3.359925   2.197849   2.127650
    39  H    5.079353   4.627309   3.360497   2.199696   4.324016
    40  H    6.147782   5.190057   3.821079   3.447350   5.906228
    41  H    6.868812   5.585171   4.581751   5.035104   7.207223
    42  H    8.061918   6.726322   6.115122   6.911186   8.734679
    43  H    8.732334   7.475971   7.306822   8.365332   9.704828
    44  H    7.672384   6.577517   6.861661   8.119524   8.881867
    45  H    5.911641   4.945089   5.517194   6.859628   7.192982
    46  H    7.531294   6.552004   7.096565   8.453654   8.872825
                    6          7          8          9         10
     6  C    0.000000
     7  C    3.705092   0.000000
     8  C    4.353697   1.395742   0.000000
     9  C    3.867268   2.394456   1.453698   0.000000
    10  C    2.651817   2.778051   2.488014   1.382550   0.000000
    11  C    4.589247   1.401657   2.508947   3.741827   4.146549
    12  C    5.890361   2.407038   2.933715   4.358978   5.087338
    13  C    6.333601   2.702857   2.457346   3.853564   4.906624
    14  C    5.701597   2.346734   1.402528   2.601301   3.821951
    15  C    3.831986   4.573020   5.890811   6.344116   5.720050
    16  C    4.917088   4.600200   5.961007   6.711425   6.359652
    17  C    5.101962   3.672462   4.992328   5.977509   5.917120
    18  C    4.147092   2.302249   3.655189   4.607140   4.593535
    19  C    7.719191   4.121786   3.742625   5.038922   6.193742
    20  C    6.988646   3.753805   4.377455   5.797101   6.473073
    21  C    8.184085   4.794935   5.107599   6.536349   7.393052
    22  C    8.506944   4.950194   4.864400   6.230056   7.283280
    23  C    6.223908   5.962467   7.317261   8.121363   7.780150
    24  C    7.328294   6.460644   7.774500   8.757335   8.601738
    25  C    7.469438   5.874584   7.099031   8.242640   8.307610
    26  C    6.506108   4.518481   5.702569   6.885209   7.045627
    27  C    7.202681   4.479831   5.416073   6.764590   7.209857
    28  C    8.709457   5.953668   6.790172   8.180683   8.699204
    29  C    8.836491   6.944736   8.084744   9.325978   9.514964
    30  C    9.352901   6.964729   7.948559   9.291405   9.670961
    31  H   10.403524   7.921967   8.848888  10.221051  10.656813
    32  H    9.052230   6.344600   7.104912   8.479854   9.019990
    33  H    9.530240   7.888577   9.074140  10.278827  10.392960
    34  H    8.301384   7.542445   8.854601   9.841161   9.667905
    35  H    6.474576   6.759397   8.117298   8.798949   8.315719
    36  H    4.300688   5.603974   6.892366   7.236236   6.485422
    37  H    2.127637   5.195777   6.148807   5.906440   4.764013
    38  H    1.085310   4.629945   5.077601   4.319960   2.966451
    39  H    2.967429   3.862883   3.456243   2.126500   1.085289
    40  H    4.760662   3.384103   2.194201   1.085265   2.126043
    41  H    6.454817   3.356371   2.172322   2.928482   4.280949
    42  H    8.258009   4.743594   4.062089   5.175727   6.446888
    43  H    9.553206   6.005828   5.823617   7.140835   8.248951
    44  H    9.070295   5.794694   6.173510   7.599252   8.421768
    45  H    7.584921   4.874063   5.805198   7.103187   7.538120
    46  H    9.260421   6.214303   6.897003   8.331687   8.986623
                   11         12         13         14         15
    11  C    0.000000
    12  C    1.386260   0.000000
    13  C    2.408345   1.463165   0.000000
    14  C    2.825303   2.531376   1.421328   0.000000
    15  C    4.233497   5.391758   6.573315   6.777120   0.000000
    16  C    3.840627   4.753430   6.096238   6.590547   1.417239
    17  C    2.623820   3.358220   4.757267   5.410085   2.534054
    18  C    1.464957   2.606420   3.829019   4.228249   2.822799
    19  C    3.699385   2.469499   1.421257   2.454019   7.782388
    20  C    2.485605   1.446145   2.542820   3.851945   5.722567
    21  C    3.692934   2.398864   2.817036   4.234360   7.051312
    22  C    4.171076   2.791862   2.416775   3.702083   7.965424
    23  C    5.069078   5.792326   7.201545   7.844462   2.449857
    24  C    5.346217   5.779642   7.230795   8.085525   3.694229
    25  C    4.597928   4.755557   6.197185   7.202612   4.260324
    26  C    3.204735   3.363186   4.814672   5.787250   3.860374
    27  C    3.079280   2.625822   3.955551   5.155551   5.136878
    28  C    4.562430   3.886793   5.014602   6.343157   6.385690
    29  C    5.595825   5.481423   6.852287   8.004284   5.674499
    30  C    5.571144   5.140653   6.373335   7.645486   6.551540
    31  H    6.533415   6.001073   7.139798   8.454921   7.595363
    32  H    4.981323   4.215032   5.232008   6.583290   6.723901
    33  H    6.571767   6.536087   7.919463   9.049252   6.150580
    34  H    6.413687   6.786318   8.236532   9.137304   4.565304
    35  H    5.990859   6.800374   8.183741   8.744310   2.658877
    36  H    5.316945   6.465226   7.645561   7.822811   1.085535
    37  H    5.638946   6.975595   7.747183   7.399202   2.917303
    38  H    5.616361   6.885825   7.214292   6.448649   4.721482
    39  H    5.230085   6.153290   5.887523   4.709799   6.469392
    40  H    4.665926   5.082284   4.304380   2.909993   7.417690
    41  H    3.908515   3.490863   2.153174   1.085512   7.814443
    42  H    4.570577   3.456641   2.167296   2.664361   8.689633
    43  H    5.254007   3.875225   3.403603   4.576891   8.985722
    44  H    4.610895   3.399179   3.891505   5.306785   7.583439
    45  H    3.686248   3.475905   4.627609   5.644806   5.755989
    46  H    4.879698   3.998968   4.911365   6.284131   7.225452
                   16         17         18         19         20
    16  C    0.000000
    17  C    1.463230   0.000000
    18  C    2.401589   1.387770   0.000000
    19  C    7.161045   5.764568   5.039973   0.000000
    20  C    4.762063   3.316919   3.163355   2.888840   0.000000
    21  C    6.060828   4.645231   4.519914   2.424893   1.391929
    22  C    7.129673   5.704920   5.296723   1.367911   2.468346
    23  C    1.423318   2.468957   3.695318   8.132064   5.493657
    24  C    2.414376   2.790359   4.167942   7.975517   5.156811
    25  C    2.845518   2.425666   3.719158   6.806256   3.928827
    26  C    2.551040   1.451795   2.495941   5.522046   2.704535
    27  C    3.936519   2.604397   3.069514   4.388521   1.507382
    28  C    5.066104   3.915659   4.572167   5.070909   2.502292
    29  C    4.268416   3.762556   4.942826   7.231157   4.386202
    30  C    5.153612   4.313950   5.262135   6.523021   3.859095
    31  H    6.196486   5.384587   6.303509   7.139138   4.671281
    32  H    5.416109   4.332514   5.011012   5.137163   2.803636
    33  H    4.790778   4.554739   5.804439   8.308430   5.466445
    34  H    3.399736   3.873992   5.250160   8.909832   6.054589
    35  H    2.169136   3.456425   4.565761   9.153522   6.560991
    36  H    2.150078   3.492119   3.906378   8.845247   6.740635
    37  H    4.309609   5.092361   4.666830   9.104371   7.773078
    38  H    5.900982   6.169246   5.230422   8.583115   8.027013
    39  H    7.243377   6.914092   5.620678   7.118287   7.544299
    40  H    7.778819   7.004464   5.640238   5.289697   6.512310
    41  H    7.658576   6.480234   5.307905   2.639280   4.693747
    42  H    8.152567   6.780504   5.965996   1.084599   3.973214
    43  H    8.105109   6.691324   6.356655   2.129844   3.425844
    44  H    6.464367   5.115528   5.244536   3.362119   2.154082
    45  H    4.697817   3.526009   3.742509   5.152995   2.881470
    46  H    5.956133   4.709844   5.154301   4.756004   2.633523
                   21         22         23         24         25
    21  C    0.000000
    22  C    1.413081   0.000000
    23  C    6.685744   7.898747   0.000000
    24  C    6.204796   7.529830   1.361460   0.000000
    25  C    4.897163   6.258727   2.444051   1.425352   0.000000
    26  C    3.864976   5.134008   2.894676   2.476801   1.417391
    27  C    2.499707   3.824632   4.369453   3.811998   2.491474
    28  C    2.749404   4.139282   5.140083   4.222102   2.811118
    29  C    5.059060   6.467153   3.711169   2.443718   1.445558
    30  C    4.231151   5.610988   4.850449   3.675886   2.417832
    31  H    4.815116   6.122200   5.805412   4.560982   3.417992
    32  H    2.741349   4.080471   5.438101   4.528845   3.229254
    33  H    6.120346   7.527768   3.955229   2.615807   2.174359
    34  H    7.002216   8.367882   2.122029   1.084622   2.153294
    35  H    7.751547   8.951532   1.084574   2.128991   3.426715
    36  H    8.051479   9.000038   2.634505   3.990702   4.848378
    37  H    9.064658   9.659302   5.305343   6.599030   7.139883
    38  H    9.189425   9.439665   7.156120   8.313543   8.519350
    39  H    8.431994   8.256634   8.651486   9.545576   9.323306
    40  H    7.087062   6.578574   9.183675   9.790028   9.222041
    41  H    4.824194   3.998905   8.910174   9.134551   8.218619
    42  H    3.411385   2.136325   9.168360   9.048802   7.889953
    43  H    2.152545   1.084141   8.795315   8.334653   7.028166
    44  H    1.077868   2.117892   6.879584   6.208160   4.854342
    45  H    3.756368   4.803848   5.127607   4.587109   3.417089
    46  H    2.500984   3.737934   6.122717   5.223615   3.801763
                   26         27         28         29         30
    26  C    0.000000
    27  C    1.477512   0.000000
    28  C    2.528233   1.523272   0.000000
    29  C    2.501185   2.900963   2.438387   0.000000
    30  C    2.885473   2.557411   1.486335   1.336286   0.000000
    31  H    3.963289   3.511886   2.217630   2.118995   1.084236
    32  H    3.004927   2.135378   1.107894   2.918911   2.092637
    33  H    3.446241   3.976031   3.441884   1.084769   2.115790
    34  H    3.435671   4.641974   4.766905   2.603820   3.928042
    35  H    3.978613   5.452432   6.178030   4.566961   5.786128
    36  H    4.700311   6.061067   7.212924   6.221681   7.229555
    37  H    6.534285   7.590899   8.992871   8.553483   9.342874
    38  H    7.581171   8.281130   9.788280   9.897750  10.433870
    39  H    8.087540   8.288280   9.778795  10.557921  10.743843
    40  H    7.842295   7.603583   8.962066  10.258944  10.141296
    41  H    6.808424   6.082679   7.165548   8.965232   8.521752
    42  H    6.598377   5.471192   6.104303   8.304381   7.560094
    43  H    6.009629   4.648700   4.671058   7.081193   6.103012
    44  H    4.086876   2.709298   2.339817   4.745278   3.755003
    45  H    2.775342   2.203020   2.743047   3.485932   3.118053
    46  H    3.410843   2.149600   1.085902   3.296010   2.116512
                   31         32         33         34         35
    31  H    0.000000
    32  H    2.682088   0.000000
    33  H    2.474970   3.860535   0.000000
    34  H    4.629245   5.018492   2.327300   0.000000
    35  H    6.685316   6.435736   4.617918   2.454455   0.000000
    36  H    8.243425   7.514188   6.545851   4.672971   2.378976
    37  H   10.396688   9.315261   9.051016   7.412277   5.214617
    38  H   11.486086  10.112242  10.570345   9.257992   7.308837
    39  H   11.735241  10.081806  11.417999  10.599195   9.107890
    40  H   11.036693   9.225540  11.236064  10.874637   9.870175
    41  H    9.278263   7.345475  10.022928  10.179180   9.807390
    42  H    8.129091   6.133290   9.379702   9.989428  10.175824
    43  H    6.466732   4.479012   8.108652   9.108085   9.848819
    44  H    4.175753   2.103785   5.750129   6.875747   7.936403
    45  H    3.751124   3.801297   4.302026   5.310687   6.142942
    46  H    2.428199   1.755456   4.208921   5.752979   7.172668
                   36         37         38         39         40
    36  H    0.000000
    37  H    2.839210   0.000000
    38  H    5.026581   2.419432   0.000000
    39  H    7.129110   5.055536   2.875335   0.000000
    40  H    8.297242   6.846847   5.051326   2.418145   0.000000
    41  H    8.846434   8.264684   7.094168   5.003058   2.824010
    42  H    9.751225   9.794459   9.041927   7.272754   5.201012
    43  H   10.005295  10.711531  10.469471   9.189830   7.390788
    44  H    8.527812   9.797151  10.093463   9.465403   8.157547
    45  H    6.664607   8.038428   8.646261   8.601056   7.927613
    46  H    8.104147   9.721992  10.334345  10.069049   9.030551
                   41         42         43         44         45
    41  H    0.000000
    42  H    2.386466   0.000000
    43  H    4.685500   2.466703   0.000000
    44  H    5.861407   4.249296   2.399715   0.000000
    45  H    6.554928   6.134049   5.606008   4.027371   0.000000
    46  H    7.010792   5.719140   4.141104   1.989299   2.733903
                   46
    46  H    0.000000
 Stoichiometry    C30H16
 Framework group  C1[X(C30H16)]
 Deg. of freedom   132
 Full point group                 C1      NOp   1
 Largest Abelian subgroup         C1      NOp   1
 Largest concise Abelian subgroup C1      NOp   1
                         Standard orientation:                         
 ---------------------------------------------------------------------
 Center     Atomic      Atomic             Coordinates (Angstroms)
 Number     Number       Type             X           Y           Z
 ---------------------------------------------------------------------
      1          6           0       -1.613428   -2.805749   -0.103158
      2          6           0       -1.447842   -1.455680    0.201353
      3          6           0       -2.538791   -0.587292    0.332706
      4          6           0       -3.854052   -0.934229    0.141708
      5          6           0       -2.996192   -3.231474   -0.209820
      6          6           0       -4.056699   -2.348658   -0.099780
      7          6           0       -2.044575    0.722919    0.394670
      8          6           0       -2.882305    1.829364    0.246069
      9          6           0       -4.296011    1.502647    0.157018
     10          6           0       -4.757789    0.200478    0.106410
     11          6           0       -0.645773    0.694177    0.310005
     12          6           0        0.046528    1.873494    0.082746
     13          6           0       -0.782435    3.072637   -0.042667
     14          6           0       -2.199953    3.039888    0.056038
     15          6           0       -0.403938   -3.483401   -0.331755
     16          6           0        0.836445   -2.800081   -0.276175
     17          6           0        0.948057   -1.358721   -0.050200
     18          6           0       -0.256767   -0.713024    0.189344
     19          6           0       -0.134380    4.294219   -0.370894
     20          6           0        1.480824    1.914792   -0.097322
     21          6           0        1.996995    3.144542   -0.495756
     22          6           0        1.210074    4.311365   -0.622549
     23          6           0        2.043761   -3.540577   -0.417195
     24          6           0        3.247236   -2.927805   -0.244763
     25          6           0        3.366974   -1.530078    0.007526
     26          6           0        2.231518   -0.681776   -0.003488
     27          6           0        2.429082    0.772754    0.164892
     28          6           0        3.880012    1.232235    0.101363
     29          6           0        4.669116   -1.053387    0.415974
     30          6           0        4.902487    0.254714    0.557642
     31          1           0        5.860928    0.631385    0.896872
     32          1           0        4.110102    1.460486   -0.958066
     33          1           0        5.427778   -1.792780    0.649329
     34          1           0        4.160952   -3.511318   -0.277009
     35          1           0        1.989908   -4.606128   -0.612135
     36          1           0       -0.387624   -4.545472   -0.555642
     37          1           0       -3.210561   -4.274585   -0.418674
     38          1           0       -5.063960   -2.730714   -0.231527
     39          1           0       -5.824385    0.032875   -0.003751
     40          1           0       -5.016929    2.310547    0.083703
     41          1           0       -2.738949    3.970215   -0.093329
     42          1           0       -0.725801    5.199379   -0.456108
     43          1           0        1.696772    5.233533   -0.919352
     44          1           0        3.045579    3.259046   -0.717478
     45          1           0        2.412204    0.749044    2.367720
     46          1           0        3.994932    2.164739    0.645801
 ---------------------------------------------------------------------
 Rotational constants (GHZ):           0.2417037           0.1743663           0.1029046
 Standard basis: 6-311+G(d,p) (5D, 7F)
 There are   786 symmetry adapted cartesian basis functions of A   symmetry.
 There are   756 symmetry adapted basis functions of A   symmetry.
   756 basis functions,  1208 primitive gaussians,   786 cartesian basis functions
    98 alpha electrons       98 beta electrons
       nuclear repulsion energy      2626.8333283862 Hartrees.
 NAtoms=   46 NActive=   46 NUniq=   46 SFac= 1.00D+00 NAtFMM=   60 NAOKFM=F Big=F
 Integral buffers will be    131072 words long.
 Raffenetti 2 integral format.
 Two-electron integral symmetry is turned on.
 One-electron integrals computed using PRISM.
 NBasis=   756 RedAO= T EigKep=  1.02D-06  NBF=   756
 NBsUse=   734 1.00D-06 EigRej=  8.49D-07 NBFU=   734
 ExpMin= 4.38D-02 ExpMax= 4.56D+03 ExpMxC= 6.82D+02 IAcc=2 IRadAn=         4 AccDes= 0.00D+00
 Harris functional with IExCor=  402 and IRadAn=       4 diagonalized for initial guess.
 HarFok:  IExCor=  402 AccDes= 0.00D+00 IRadAn=         4 IDoV= 1 UseB2=F ITyADJ=14
 ICtDFT=  3500011 ScaDFX=  1.000000  1.000000  1.000000  1.000000
 FoFCou: FMM=F IPFlag=           0 FMFlag=      100000 FMFlg1=           0
         NFxFlg=           0 DoJE=T BraDBF=F KetDBF=T FulRan=T
         wScrn=  0.000000 ICntrl=       500 IOpCl=  0 I1Cent=   200000004 NGrid=           0
         NMat0=    1 NMatS0=      1 NMatT0=    0 NMatD0=    1 NMtDS0=    0 NMtDT0=    0
 Petite list used in FoFCou.
 Requested convergence on RMS density matrix=1.00D-08 within 128 cycles.
 Requested convergence on MAX density matrix=1.00D-06.
 Requested convergence on             energy=1.00D-06.
 No special actions if energy rises.
 SCF Done:  E(RB3LYP) =  -1152.98983814     A.U. after   20 cycles
            NFock= 20  Conv=0.53D-08     -V/T= 2.0046
 DoSCS=F DFT=T ScalE2(SS,OS)=  1.000000  1.000000
 Range of M.O.s used for correlation:     1   734
 NBasis=   756 NAE=    98 NBE=    98 NFC=     0 NFV=     0
 NROrb=    734 NOA=    98 NOB=    98 NVA=   636 NVB=   636

 **** Warning!!: The largest alpha MO coefficient is  0.12679294D+03


 **** Warning!!: The smallest alpha delta epsilon is  0.82543257D-01

 Symmetrizing basis deriv contribution to polar:
 IMax=3 JMax=2 DiffMx= 0.00D+00
 G2DrvN: will do    47 centers at a time, making    1 passes.
 Calling FoFCou, ICntrl=  3107 FMM=F I1Cent=   0 AccDes= 0.00D+00.
 End of G2Drv F.D. properties file   721 does not exist.
 End of G2Drv F.D. properties file   722 does not exist.
 End of G2Drv F.D. properties file   788 does not exist.
          IDoAtm=1111111111111111111111111111111111111111111111
          Differentiating once with respect to nuclear coordinates.
 CalDSu exits because no D1Ps are significant.
          There are   141 degrees of freedom in the 1st order CPHF.  IDoFFX=6 NUNeed=     0.
    135 vectors produced by pass  0 Test12= 6.23D-14 1.00D-09 XBig12= 3.13D-01 1.07D-01.
 AX will form   135 AO Fock derivatives at one time.
    135 vectors produced by pass  1 Test12= 6.23D-14 1.00D-09 XBig12= 9.65D-02 4.82D-02.
    135 vectors produced by pass  2 Test12= 6.23D-14 1.00D-09 XBig12= 1.11D-03 3.69D-03.
    135 vectors produced by pass  3 Test12= 6.23D-14 1.00D-09 XBig12= 7.27D-06 1.97D-04.
    135 vectors produced by pass  4 Test12= 6.23D-14 1.00D-09 XBig12= 2.76D-08 2.12D-05.
    135 vectors produced by pass  5 Test12= 6.23D-14 1.00D-09 XBig12= 1.28D-10 8.27D-07.
    108 vectors produced by pass  6 Test12= 6.23D-14 1.00D-09 XBig12= 3.05D-11 4.11D-07.
     84 vectors produced by pass  7 Test12= 6.23D-14 1.00D-09 XBig12= 4.22D-12 1.52D-07.
     48 vectors produced by pass  8 Test12= 6.23D-14 1.00D-09 XBig12= 3.10D-13 3.52D-08.
      8 vectors produced by pass  9 Test12= 6.23D-14 1.00D-09 XBig12= 2.54D-15 2.69D-09.
      3 vectors produced by pass 10 Test12= 6.23D-14 1.00D-09 XBig12= 4.19D-16 1.41D-09.
      1 vectors produced by pass 11 Test12= 6.23D-14 1.00D-09 XBig12= 3.77D-16 1.40D-09.
 InvSVY:  IOpt=1 It=  1 EMax= 8.88D-16
 Solved reduced A of dimension  1062 with   141 vectors.
 End of Minotr F.D. properties file   721 does not exist.
 End of Minotr F.D. properties file   722 does not exist.
 End of Minotr F.D. properties file   788 does not exist.

 **********************************************************************

            Population analysis using the SCF Density.

 **********************************************************************

 Orbital symmetries:
       Occupied  (A) (A) (A) (A) (A) (A) (A) (A) (A) (A) (A) (A)
                 (A) (A) (A) (A) (A) (A) (A) (A) (A) (A) (A) (A)
                 (A) (A) (A) (A) (A) (A) (A) (A) (A) (A) (A) (A)
                 (A) (A) (A) (A) (A) (A) (A) (A) (A) (A) (A) (A)
                 (A) (A) (A) (A) (A) (A) (A) (A) (A) (A) (A) (A)
                 (A) (A) (A) (A) (A) (A) (A) (A) (A) (A) (A) (A)
                 (A) (A) (A) (A) (A) (A) (A) (A) (A) (A) (A) (A)
                 (A) (A) (A) (A) (A) (A) (A) (A) (A) (A) (A) (A)
                 (A) (A)
       Virtual   (A) (A) (A) (A) (A) (A) (A) (A) (A) (A) (A) (A)
                 (A) (A) (A) (A) (A) (A) (A) (A) (A) (A) (A) (A)
                 (A) (A) (A) (A) (A) (A) (A) (A) (A) (A) (A) (A)
                 (A) (A) (A) (A) (A) (A) (A) (A) (A) (A) (A) (A)
                 (A) (A) (A) (A) (A) (A) (A) (A) (A) (A) (A) (A)
                 (A) (A) (A) (A) (A) (A) (A) (A) (A) (A) (A) (A)
                 (A) (A) (A) (A) (A) (A) (A) (A) (A) (A) (A) (A)
                 (A) (A) (A) (A) (A) (A) (A) (A) (A) (A) (A) (A)
                 (A) (A) (A) (A) (A) (A) (A) (A) (A) (A) (A) (A)
                 (A) (A) (A) (A) (A) (A) (A) (A) (A) (A) (A) (A)
                 (A) (A) (A) (A) (A) (A) (A) (A) (A) (A) (A) (A)
                 (A) (A) (A) (A) (A) (A) (A) (A) (A) (A) (A) (A)
                 (A) (A) (A) (A) (A) (A) (A) (A) (A) (A) (A) (A)
                 (A) (A) (A) (A) (A) (A) (A) (A) (A) (A) (A) (A)
                 (A) (A) (A) (A) (A) (A) (A) (A) (A) (A) (A) (A)
                 (A) (A) (A) (A) (A) (A) (A) (A) (A) (A) (A) (A)
                 (A) (A) (A) (A) (A) (A) (A) (A) (A) (A) (A) (A)
                 (A) (A) (A) (A) (A) (A) (A) (A) (A) (A) (A) (A)
                 (A) (A) (A) (A) (A) (A) (A) (A) (A) (A) (A) (A)
                 (A) (A) (A) (A) (A) (A) (A) (A) (A) (A) (A) (A)
                 (A) (A) (A) (A) (A) (A) (A) (A) (A) (A) (A) (A)
                 (A) (A) (A) (A) (A) (A) (A) (A) (A) (A) (A) (A)
                 (A) (A) (A) (A) (A) (A) (A) (A) (A) (A) (A) (A)
                 (A) (A) (A) (A) (A) (A) (A) (A) (A) (A) (A) (A)
                 (A) (A) (A) (A) (A) (A) (A) (A) (A) (A) (A) (A)
                 (A) (A) (A) (A) (A) (A) (A) (A) (A) (A) (A) (A)
                 (A) (A) (A) (A) (A) (A) (A) (A) (A) (A) (A) (A)
                 (A) (A) (A) (A) (A) (A) (A) (A) (A) (A) (A) (A)
                 (A) (A) (A) (A) (A) (A) (A) (A) (A) (A) (A) (A)
                 (A) (A) (A) (A) (A) (A) (A) (A) (A) (A) (A) (A)
                 (A) (A) (A) (A) (A) (A) (A) (A) (A) (A) (A) (A)
                 (A) (A) (A) (A) (A) (A) (A) (A) (A) (A) (A) (A)
                 (A) (A) (A) (A) (A) (A) (A) (A) (A) (A) (A) (A)
                 (A) (A) (A) (A) (A) (A) (A) (A) (A) (A) (A) (A)
                 (A) (A) (A) (A) (A) (A) (A) (A) (A) (A) (A) (A)
                 (A) (A) (A) (A) (A) (A) (A) (A) (A) (A) (A) (A)
                 (A) (A) (A) (A) (A) (A) (A) (A) (A) (A) (A) (A)
                 (A) (A) (A) (A) (A) (A) (A) (A) (A) (A) (A) (A)
                 (A) (A) (A) (A) (A) (A) (A) (A) (A) (A) (A) (A)
                 (A) (A) (A) (A) (A) (A) (A) (A) (A) (A) (A) (A)
                 (A) (A) (A) (A) (A) (A) (A) (A) (A) (A) (A) (A)
                 (A) (A) (A) (A) (A) (A) (A) (A) (A) (A) (A) (A)
                 (A) (A) (A) (A) (A) (A) (A) (A) (A) (A) (A) (A)
                 (A) (A) (A) (A) (A) (A) (A) (A) (A) (A) (A) (A)
                 (A) (A) (A) (A) (A) (A) (A) (A) (A) (A) (A) (A)
                 (A) (A) (A) (A) (A) (A) (A) (A) (A) (A) (A) (A)
                 (A) (A) (A) (A) (A) (A) (A) (A) (A) (A) (A) (A)
                 (A) (A) (A) (A) (A) (A) (A) (A) (A) (A) (A) (A)
                 (A) (A) (A) (A) (A) (A) (A) (A) (A) (A) (A) (A)
                 (A) (A) (A) (A) (A) (A) (A) (A) (A) (A) (A) (A)
                 (A) (A) (A) (A) (A) (A) (A) (A) (A) (A) (A) (A)
                 (A) (A) (A) (A) (A) (A) (A) (A) (A) (A) (A) (A)
                 (A) (A) (A) (A) (A) (A) (A) (A) (A) (A) (A) (A)
 The electronic state is 1-A.
 Alpha  occ. eigenvalues --  -10.24519 -10.21045 -10.20780 -10.20456 -10.20268
 Alpha  occ. eigenvalues --  -10.20119 -10.20105 -10.20034 -10.19941 -10.19506
 Alpha  occ. eigenvalues --  -10.19494 -10.19458 -10.19432 -10.19430 -10.19412
 Alpha  occ. eigenvalues --  -10.19388 -10.19246 -10.19000 -10.18907 -10.18859
 Alpha  occ. eigenvalues --  -10.18665 -10.18654 -10.18631 -10.18522 -10.18429
 Alpha  occ. eigenvalues --  -10.18335 -10.18149 -10.16998 -10.16885 -10.16842
 Alpha  occ. eigenvalues --   -0.92580  -0.89085  -0.88465  -0.85570  -0.84588
 Alpha  occ. eigenvalues --   -0.83709  -0.80856  -0.80170  -0.78703  -0.77923
 Alpha  occ. eigenvalues --   -0.75757  -0.75156  -0.73070  -0.71848  -0.71180
 Alpha  occ. eigenvalues --   -0.67063  -0.66087  -0.64366  -0.64165  -0.63110
 Alpha  occ. eigenvalues --   -0.60163  -0.59693  -0.58599  -0.57098  -0.56415
 Alpha  occ. eigenvalues --   -0.53189  -0.52168  -0.51729  -0.51360  -0.50357
 Alpha  occ. eigenvalues --   -0.49499  -0.48025  -0.47342  -0.46204  -0.45849
 Alpha  occ. eigenvalues --   -0.45539  -0.44949  -0.44561  -0.43877  -0.43800
 Alpha  occ. eigenvalues --   -0.42875  -0.42709  -0.41331  -0.41099  -0.40751
 Alpha  occ. eigenvalues --   -0.40349  -0.40098  -0.39652  -0.38858  -0.37216
 Alpha  occ. eigenvalues --   -0.36409  -0.36144  -0.35737  -0.35373  -0.34851
 Alpha  occ. eigenvalues --   -0.34450  -0.33723  -0.33309  -0.32601  -0.31215
 Alpha  occ. eigenvalues --   -0.29370  -0.28809  -0.27452  -0.25903  -0.23408
 Alpha  occ. eigenvalues --   -0.22759  -0.20386  -0.19519
 Alpha virt. eigenvalues --   -0.11265  -0.08332  -0.06409  -0.04096  -0.03787
 Alpha virt. eigenvalues --   -0.00909  -0.00171   0.00394   0.00461   0.00976
 Alpha virt. eigenvalues --    0.01363   0.01434   0.01961   0.02088   0.02676
 Alpha virt. eigenvalues --    0.02821   0.03047   0.03653   0.03881   0.04474
 Alpha virt. eigenvalues --    0.04558   0.04805   0.05724   0.05885   0.06010
 Alpha virt. eigenvalues --    0.06447   0.06897   0.07213   0.07495   0.08208
 Alpha virt. eigenvalues --    0.08263   0.08539   0.08635   0.08856   0.09425
 Alpha virt. eigenvalues --    0.09885   0.10029   0.10335   0.10689   0.11291
 Alpha virt. eigenvalues --    0.11474   0.11843   0.11935   0.12442   0.12949
 Alpha virt. eigenvalues --    0.13056   0.13755   0.13975   0.14427   0.14559
 Alpha virt. eigenvalues --    0.14664   0.14982   0.15346   0.15666   0.15868
 Alpha virt. eigenvalues --    0.16142   0.16279   0.16354   0.16546   0.16920
 Alpha virt. eigenvalues --    0.16978   0.17154   0.17400   0.17591   0.17868
 Alpha virt. eigenvalues --    0.17931   0.18379   0.18525   0.18627   0.18948
 Alpha virt. eigenvalues --    0.19099   0.19550   0.19835   0.19853   0.20177
 Alpha virt. eigenvalues --    0.20455   0.20579   0.20844   0.20957   0.21153
 Alpha virt. eigenvalues --    0.21341   0.21680   0.21913   0.21966   0.22357
 Alpha virt. eigenvalues --    0.22498   0.22586   0.22903   0.23342   0.23461
 Alpha virt. eigenvalues --    0.23507   0.23832   0.24063   0.24365   0.24553
 Alpha virt. eigenvalues --    0.24742   0.24859   0.25055   0.25252   0.25585
 Alpha virt. eigenvalues --    0.25992   0.26198   0.26365   0.26609   0.26791
 Alpha virt. eigenvalues --    0.27218   0.27571   0.27835   0.28197   0.28335
 Alpha virt. eigenvalues --    0.28524   0.28674   0.29013   0.29301   0.29736
 Alpha virt. eigenvalues --    0.29838   0.30134   0.30539   0.31007   0.31097
 Alpha virt. eigenvalues --    0.31272   0.31826   0.32025   0.32502   0.32758
 Alpha virt. eigenvalues --    0.33172   0.33417   0.33528   0.34454   0.34858
 Alpha virt. eigenvalues --    0.34930   0.35567   0.35816   0.36077   0.36804
 Alpha virt. eigenvalues --    0.36967   0.37175   0.37708   0.38261   0.38456
 Alpha virt. eigenvalues --    0.39251   0.39269   0.39936   0.40337   0.40629
 Alpha virt. eigenvalues --    0.41028   0.41822   0.41983   0.42909   0.43395
 Alpha virt. eigenvalues --    0.43505   0.43938   0.45513   0.46069   0.46285
 Alpha virt. eigenvalues --    0.46601   0.47298   0.47989   0.48275   0.48985
 Alpha virt. eigenvalues --    0.49295   0.50054   0.51001   0.51383   0.51853
 Alpha virt. eigenvalues --    0.52395   0.52852   0.53364   0.53457   0.53997
 Alpha virt. eigenvalues --    0.54279   0.54915   0.55445   0.55646   0.56021
 Alpha virt. eigenvalues --    0.56411   0.56804   0.57333   0.57565   0.57796
 Alpha virt. eigenvalues --    0.58205   0.58776   0.58955   0.59337   0.59716
 Alpha virt. eigenvalues --    0.59975   0.60045   0.60282   0.60729   0.61377
 Alpha virt. eigenvalues --    0.62086   0.62473   0.62946   0.63038   0.63362
 Alpha virt. eigenvalues --    0.63906   0.64312   0.64739   0.65452   0.66021
 Alpha virt. eigenvalues --    0.66337   0.66926   0.67226   0.67769   0.67921
 Alpha virt. eigenvalues --    0.68303   0.69054   0.69239   0.69815   0.69889
 Alpha virt. eigenvalues --    0.70382   0.70636   0.70944   0.71384   0.71414
 Alpha virt. eigenvalues --    0.71821   0.72140   0.72355   0.72846   0.73301
 Alpha virt. eigenvalues --    0.73394   0.73751   0.74426   0.74692   0.75423
 Alpha virt. eigenvalues --    0.75533   0.75964   0.76267   0.76656   0.76812
 Alpha virt. eigenvalues --    0.77130   0.77969   0.78056   0.78541   0.79357
 Alpha virt. eigenvalues --    0.79868   0.81497   0.82233   0.82983   0.83803
 Alpha virt. eigenvalues --    0.84376   0.85048   0.85843   0.85991   0.87145
 Alpha virt. eigenvalues --    0.87490   0.87633   0.87981   0.88558   0.89277
 Alpha virt. eigenvalues --    0.89412   0.89816   0.90222   0.90714   0.91740
 Alpha virt. eigenvalues --    0.92010   0.92174   0.92500   0.93239   0.93266
 Alpha virt. eigenvalues --    0.93541   0.94269   0.94734   0.94912   0.95176
 Alpha virt. eigenvalues --    0.95360   0.95620   0.96089   0.96397   0.96896
 Alpha virt. eigenvalues --    0.97334   0.98290   0.98753   0.99114   0.99538
 Alpha virt. eigenvalues --    0.99912   1.00420   1.01094   1.02281   1.02578
 Alpha virt. eigenvalues --    1.03336   1.03549   1.04390   1.04517   1.05220
 Alpha virt. eigenvalues --    1.05797   1.05923   1.06946   1.07679   1.08285
 Alpha virt. eigenvalues --    1.08935   1.09447   1.10200   1.10535   1.10853
 Alpha virt. eigenvalues --    1.12349   1.12540   1.13843   1.14861   1.16152
 Alpha virt. eigenvalues --    1.17342   1.17974   1.18972   1.19021   1.19902
 Alpha virt. eigenvalues --    1.21422   1.22471   1.23474   1.24201   1.25880
 Alpha virt. eigenvalues --    1.27055   1.27394   1.29376   1.31488   1.32716
 Alpha virt. eigenvalues --    1.33756   1.34268   1.35153   1.36601   1.37304
 Alpha virt. eigenvalues --    1.38882   1.39621   1.40675   1.41531   1.42590
 Alpha virt. eigenvalues --    1.42830   1.44278   1.44785   1.45600   1.45909
 Alpha virt. eigenvalues --    1.46363   1.46918   1.48152   1.48509   1.48951
 Alpha virt. eigenvalues --    1.49375   1.49874   1.50480   1.50577   1.51204
 Alpha virt. eigenvalues --    1.51812   1.52499   1.53250   1.53761   1.54265
 Alpha virt. eigenvalues --    1.54918   1.55581   1.55814   1.57197   1.57653
 Alpha virt. eigenvalues --    1.57731   1.59339   1.60089   1.60964   1.61504
 Alpha virt. eigenvalues --    1.61639   1.61941   1.62371   1.63502   1.64711
 Alpha virt. eigenvalues --    1.65176   1.66146   1.66917   1.67446   1.68572
 Alpha virt. eigenvalues --    1.69142   1.70761   1.70912   1.71465   1.72211
 Alpha virt. eigenvalues --    1.72738   1.73564   1.73950   1.74346   1.74619
 Alpha virt. eigenvalues --    1.75843   1.76198   1.76670   1.77260   1.78144
 Alpha virt. eigenvalues --    1.78351   1.78854   1.79777   1.80930   1.81652
 Alpha virt. eigenvalues --    1.82195   1.83289   1.84020   1.84458   1.84862
 Alpha virt. eigenvalues --    1.85455   1.85821   1.86645   1.86958   1.87191
 Alpha virt. eigenvalues --    1.88269   1.88332   1.89336   1.89796   1.90419
 Alpha virt. eigenvalues --    1.90984   1.91662   1.92007   1.93967   1.94095
 Alpha virt. eigenvalues --    1.94248   1.94878   1.95193   1.96052   1.96761
 Alpha virt. eigenvalues --    1.96805   1.97332   1.98713   1.99505   2.00350
 Alpha virt. eigenvalues --    2.01810   2.02726   2.02884   2.03375   2.04246
 Alpha virt. eigenvalues --    2.04424   2.05051   2.06324   2.07310   2.07426
 Alpha virt. eigenvalues --    2.08787   2.09157   2.10266   2.11130   2.11647
 Alpha virt. eigenvalues --    2.12993   2.13426   2.14411   2.16027   2.16897
 Alpha virt. eigenvalues --    2.18564   2.18736   2.19793   2.20716   2.21212
 Alpha virt. eigenvalues --    2.21291   2.22405   2.23375   2.23784   2.25283
 Alpha virt. eigenvalues --    2.25607   2.26076   2.27051   2.28279   2.30217
 Alpha virt. eigenvalues --    2.31725   2.32092   2.34780   2.35533   2.37183
 Alpha virt. eigenvalues --    2.38799   2.39304   2.40388   2.41453   2.42000
 Alpha virt. eigenvalues --    2.42892   2.44639   2.45368   2.46984   2.48293
 Alpha virt. eigenvalues --    2.49416   2.49810   2.51119   2.52923   2.54629
 Alpha virt. eigenvalues --    2.55360   2.56445   2.57155   2.58199   2.59036
 Alpha virt. eigenvalues --    2.59365   2.61691   2.62185   2.63950   2.64916
 Alpha virt. eigenvalues --    2.65392   2.66559   2.69216   2.69401   2.69713
 Alpha virt. eigenvalues --    2.70248   2.70809   2.71583   2.71916   2.72056
 Alpha virt. eigenvalues --    2.72436   2.73219   2.73812   2.74309   2.74618
 Alpha virt. eigenvalues --    2.75511   2.75796   2.76341   2.76529   2.76800
 Alpha virt. eigenvalues --    2.77582   2.77812   2.77957   2.78667   2.79130
 Alpha virt. eigenvalues --    2.80386   2.80580   2.81439   2.81995   2.82301
 Alpha virt. eigenvalues --    2.83243   2.85006   2.85637   2.86710   2.87276
 Alpha virt. eigenvalues --    2.87669   2.89097   2.89922   2.90041   2.91631
 Alpha virt. eigenvalues --    2.92690   2.92909   2.94391   2.95372   2.96896
 Alpha virt. eigenvalues --    2.98505   2.99784   3.01114   3.02702   3.03559
 Alpha virt. eigenvalues --    3.04310   3.06279   3.07942   3.09854   3.11477
 Alpha virt. eigenvalues --    3.13033   3.13418   3.14531   3.15049   3.17811
 Alpha virt. eigenvalues --    3.18478   3.19593   3.20240   3.21637   3.23126
 Alpha virt. eigenvalues --    3.24157   3.24523   3.25614   3.26070   3.30256
 Alpha virt. eigenvalues --    3.31390   3.34320   3.35029   3.36363   3.37892
 Alpha virt. eigenvalues --    3.38776   3.39384   3.40617   3.41861   3.43039
 Alpha virt. eigenvalues --    3.43507   3.45616   3.47211   3.48107   3.49052
 Alpha virt. eigenvalues --    3.50423   3.51658   3.55032   3.56593   3.57652
 Alpha virt. eigenvalues --    3.58545   3.61636   3.62616   3.64235   3.67830
 Alpha virt. eigenvalues --    3.69558   3.72890   3.80938   3.83003   3.83431
 Alpha virt. eigenvalues --    3.86816   3.92597   3.94249   4.03424   4.04123
 Alpha virt. eigenvalues --    4.05520   4.06513   4.07180   4.09019   4.11444
 Alpha virt. eigenvalues --    4.14928   4.20155   4.24223   4.27849   4.32499
 Alpha virt. eigenvalues --    4.43716   4.49745   4.62754   4.71736   4.73028
 Alpha virt. eigenvalues --    4.76673   4.77735   4.79278   4.80487   4.86024
 Alpha virt. eigenvalues --    4.89359  23.38328  23.62274  23.66519  23.77500
 Alpha virt. eigenvalues --   23.79535  23.80779  23.83589  23.85446  23.86898
 Alpha virt. eigenvalues --   23.88200  23.91807  23.93113  23.93608  23.93873
 Alpha virt. eigenvalues --   23.98547  23.99641  24.00168  24.04175  24.06307
 Alpha virt. eigenvalues --   24.07671  24.08334  24.09936  24.11264  24.12014
 Alpha virt. eigenvalues --   24.12825  24.16917  24.18868  24.19853  24.20434
 Alpha virt. eigenvalues --   24.25754
          Condensed to atoms (all electrons):
               1          2          3          4          5          6
     1  C   12.844626   0.588338   0.128023   1.693654  -2.257487  -2.252131
     2  C    0.588338   9.324015  -0.073167  -1.232975  -1.286271   1.839559
     3  C    0.128023  -0.073167   8.873224   0.999187   1.591474  -0.869607
     4  C    1.693654  -1.232975   0.999187  13.795551  -0.449059  -2.857507
     5  C   -2.257487  -1.286271   1.591474  -0.449059  11.820051   1.382007
     6  C   -2.252131   1.839559  -0.869607  -2.857507   1.382007  10.522998
     7  C   -0.313709  -0.541546  -0.165201  -0.924929  -0.260553  -0.303627
     8  C   -0.050191  -0.332621  -0.002226   1.018897   0.458297   0.073838
     9  C    0.648962  -0.515407   2.051718  -0.204861  -0.131677  -1.257841
    10  C   -0.123038  -0.447342  -0.885643  -2.245089  -1.000202  -0.385521
    11  C   -2.063405  -0.357667  -1.681863  -1.024573  -0.469341   0.435123
    12  C   -0.203219  -0.123358  -0.486313  -0.386818  -0.219743   0.000553
    13  C    0.239369  -0.396606  -0.556836   0.276397   0.035406  -0.255954
    14  C   -0.131371  -0.282486  -0.868014  -0.449960  -0.101684   0.131332
    15  C    0.233782   0.638317  -0.527172  -0.490045  -0.772977  -0.035983
    16  C    1.053333  -0.342670  -0.225960   0.121220  -0.120616  -0.267962
    17  C   -1.624854   0.918753  -0.193052  -0.389835  -0.585547   0.301482
    18  C   -0.435605   0.402776  -1.348126  -1.061182  -1.820724   0.000875
    19  C    0.093827   0.172276   0.317998  -0.221853  -0.032917  -0.053148
    20  C    0.223915  -0.411916  -0.005980   0.152128   0.198319  -0.034003
    21  C    0.087241  -0.025502   0.126602   0.107693   0.063884  -0.025522
    22  C   -0.060324  -0.279313  -0.221625  -0.038459   0.002376   0.010815
    23  C   -1.221645  -0.799870  -0.005262  -0.146294  -0.060066  -0.126921
    24  C   -0.329138  -0.122188  -0.131456  -0.045497  -0.325722  -0.000872
    25  C    0.673781   0.017291   0.320532   0.008191   0.152374   0.010658
    26  C   -0.939618  -0.084073  -0.154506   0.063564   0.028518  -0.067301
    27  C   -0.906179  -0.387426  -0.225024  -0.264830  -0.128190   0.006055
    28  C   -0.056599  -0.016957  -0.090526  -0.005640   0.008180  -0.007758
    29  C    0.033255  -0.110493   0.000603  -0.005273   0.052089  -0.004375
    30  C    0.021831   0.094344   0.030178   0.003399  -0.019980   0.001264
    31  H    0.000031   0.000029  -0.000000  -0.000000   0.000002  -0.000000
    32  H   -0.000830  -0.002562  -0.000802  -0.000009  -0.000045   0.000019
    33  H    0.000651   0.000138   0.000031   0.000003   0.000030   0.000003
    34  H    0.001017   0.000732   0.000125   0.000003   0.000311  -0.000007
    35  H    0.042144   0.007113   0.001130   0.000315   0.006237   0.000567
    36  H   -0.020586   0.009297  -0.002673   0.007149   0.021614   0.003802
    37  H   -0.092634   0.045226  -0.008157  -0.048902   0.383079   0.005811
    38  H   -0.011135   0.000093   0.025684  -0.103814  -0.001678   0.400953
    39  H    0.009833  -0.011507   0.031374  -0.082256   0.008552   0.004134
    40  H    0.000332  -0.002654  -0.010362  -0.053937  -0.002026   0.001979
    41  H    0.000563   0.003981  -0.004074   0.011805   0.000258  -0.000302
    42  H   -0.000088  -0.000912   0.001044   0.000167  -0.000002   0.000043
[...]
 223,-0.00000608,0.00002961,0.00006590,-0.00003020,-0.00022458,0.000137
 01,0.00002862,0.00058561,0.00056453,0.00017929,0.00003491,0.00000400,-
 0.00003485,0.00000309,0.00004654,0.00000699,0.00004878,-0.00002279,-0.
 00002090,-0.00000854,0.00000646,-0.00000706,0.00000195,-0.00001588,0.0
 0000091,-0.00000254,-0.00000084,0.00000628,0.00000264,0.00000874,-0.00
 000218,0.00000120,-0.00000289,0.00000026,0.00000104,-0.00000324,-0.000
 00049,-0.00000056,-0.00000433,0.00000003,-0.00000370,-0.00000311,-0.00
 000053,-0.00000900,-0.00002124,-0.00000018,-0.00001121,0.00001007,0.00
 000230,-0.00003288,0.00006016,-0.00003257,0.00093540,0.00028300,0.0006
 0601,0.12295630,-0.00003452,-0.00003895,-0.00000015,-0.00000687,0.0000
 1861,-0.00000752,0.00000832,-0.00002932,0.00000435,-0.00000638,-0.0000
 5653,0.00000340,0.00006678,-0.00000460,-0.00000061,-0.00002469,0.00006
 136,-0.00000128,0.00015670,-0.00005859,-0.00002039,-0.00004098,0.00021
 446,0.00013124,-0.00000536,-0.00003054,0.00001694,-0.00002967,0.000040
 01,-0.00000885,-0.00020245,-0.00002198,0.00004146,0.00078147,0.0003972
 2,0.00022398,0.00080746,0.00190119,-0.00095315,-0.00017621,-0.00015115
 ,-0.00008549,0.00000878,-0.00000982,0.00000032,-0.00003977,-0.00000653
 ,-0.00000742,0.00001900,0.00002838,0.00000006,-0.00000234,0.00001788,0
 .00001135,0.00141778,0.00262985,-0.00002622,0.00394101,-0.00193881,-0.
 00072710,-0.01399520,-0.01850901,-0.00441385,-0.11112492,-0.26681136,-
 0.04359526,0.00001201,-0.00000951,0.00000254,0.00003212,0.00000453,0.0
 0001093,-0.00000655,-0.00008140,0.00005662,0.00043886,-0.00003772,0.00
 001250,-0.00095893,-0.00076739,-0.00030788,-0.00004537,-0.00005918,0.0
 0005380,0.00006961,-0.00014032,-0.00006565,-0.00013356,0.00002284,0.00
 005203,0.00002965,-0.00000353,0.00000952,0.00001835,-0.00000867,-0.000
 02240,0.00001028,-0.00000689,-0.00000945,0.00000590,-0.00001881,0.0000
 0151,-0.00000349,-0.00000827,-0.00000036,-0.00000132,-0.00000680,0.000
 00073,-0.00000109,-0.00000664,0.00000105,-0.00000660,-0.00000146,0.000
 00046,-0.00000569,-0.00000241,-0.00000340,-0.00000802,0.00000475,0.000
 00024,-0.00001111,0.00000298,-0.00003109,-0.00038281,0.00070665,0.0007
 9001,0.11926890,0.28190469,0.00006038,0.00003872,0.00000487,-0.0000486
 0,-0.00005091,0.00002367,-0.00002534,-0.00003342,-0.00002069,-0.000005
 22,0.00008169,-0.00001388,-0.00007834,0.00002189,-0.00000040,0.0000215
 5,-0.00007942,-0.00000233,-0.00004272,0.00004401,0.00015957,-0.0001507
 3,-0.00007154,-0.00077371,0.00004837,0.00004156,-0.00010587,0.00000027
 ,-0.00005842,0.00005562,0.00011637,0.00005036,-0.00052479,-0.00009629,
 0.00025087,-0.00063772,-0.00137260,-0.00084107,0.00844593,0.00019668,-
 0.00023309,0.00030606,-0.00002337,-0.00000278,-0.00000261,0.00001026,0
 .00003143,0.00000782,-0.00006020,-0.00005133,0.00003544,0.00002495,0.0
 0005084,0.00000794,-0.00038199,-0.00282418,0.00335154,0.00003616,-0.00
 005860,0.00509614,-0.00104474,-0.00225131,0.00200373,-0.02494314,-0.04
 325125,-0.04477852,-0.00000060,0.00000204,-0.00000152,-0.00000117,-0.0
 0000097,-0.00000627,0.00000874,-0.00000926,-0.00003338,0.00002016,0.00
 008368,-0.00016914,0.00016706,-0.00036377,0.00038971,0.00010465,0.0000
 0840,-0.00007695,0.00000208,0.00003562,-0.00000170,0.00001381,-0.00004
 329,-0.00003743,-0.00000135,0.00000795,0.00000790,0.00001017,-0.000030
 29,-0.00000402,-0.00000074,0.00000253,0.00000328,0.00000011,-0.0000000
 8,0.00000713,0.00000012,-0.00000121,0.00000122,-0.00000006,-0.00000132
 ,0.00000004,-0.00000184,-0.00000131,-0.00000323,-0.00000053,-0.0000010
 3,0.00000135,0.00000043,-0.00000363,0.00002027,-0.00000240,0.00000167,
 0.00000172,-0.00000745,-0.00001981,0.00021418,0.00049620,0.00079802,-0
 .00479332,0.02658518,0.04826784,0.03462882,0.00002335,0.00003474,-0.00
 000413,-0.00004073,-0.00014524,0.00000380,-0.00010728,0.00004204,-0.00
 000559,-0.00001019,0.00001355,-0.00000315,-0.00006176,-0.00004708,0.00
 000737,0.00004756,-0.00003023,0.00000384,0.00007832,-0.00035701,0.0000
 6507,-0.00001725,0.00001651,-0.00000830,0.00008149,0.00000476,-0.00001
 568,-0.00001522,-0.00006126,-0.00000253,-0.00076174,0.00049131,-0.0000
 4295,0.00113907,-0.00240200,-0.00104394,0.00057321,0.00008688,0.000143
 88,-0.00001879,0.00000603,0.00005531,0.00000116,-0.00002225,0.00000153
 ,-0.00003041,0.00001274,0.00000369,-0.00010253,0.00001173,-0.00001271,
 0.00005231,0.00009158,-0.00001301,0.00033318,0.00356908,-0.00003479,-0
 .01041730,0.00017619,-0.00123418,-0.32707947,-0.02717254,-0.03932035,-
 0.01444937,-0.00374072,-0.00234085,0.00000538,0.00009510,0.00000763,0.
 00007401,-0.00012153,-0.00005358,-0.00005247,0.00011599,-0.00004462,0.
 00024881,-0.00019147,0.00014375,-0.00133316,0.00117660,0.00061716,-0.0
 0059662,0.00134212,0.00182504,0.00005945,-0.00006220,-0.00008362,0.000
 44324,0.00010944,0.00032899,-0.00005751,-0.00002758,-0.00009196,0.0001
 0041,0.00040966,-0.00013339,0.00000430,0.00002644,-0.00001079,-0.00000
 021,-0.00000493,-0.00000251,0.00000698,-0.00000487,0.00000701,0.000002
 14,-0.00000654,-0.00000279,-0.00000018,-0.00000469,-0.00000155,-0.0000
 0579,-0.00001094,-0.00000103,-0.00000756,-0.00000702,0.00000225,-0.000
 00747,0.00000555,0.00000194,0.00001194,0.00000585,-0.00000608,-0.00077
 924,-0.00018245,-0.00013117,0.00091906,0.00019476,0.00043936,0.3514221
 6,0.00009503,0.00001121,-0.00000015,0.00001849,-0.00010981,0.00001712,
 -0.00017968,0.00008460,-0.00001868,-0.00004252,0.00009743,-0.00000152,
 -0.00011870,-0.00001876,0.00000631,0.00005859,-0.00010165,0.00000422,-
 0.00023407,-0.00036615,0.00012278,-0.00008497,-0.00030294,-0.00004964,
 0.00013048,0.00007740,-0.00002291,0.00000010,-0.00013603,-0.00000022,-
 0.00127282,0.00097179,-0.00001160,-0.00118654,-0.00524656,-0.00217916,
 -0.00043980,-0.00084665,-0.00000854,0.00042697,0.00030037,0.00014493,-
 0.00006615,-0.00002230,-0.00000149,0.00006182,0.00007076,0.00001652,-0
 .00016954,-0.00002547,-0.00003907,0.00009554,0.00008357,-0.00002141,0.
 00245094,-0.00401898,-0.00116572,-0.02769089,0.00203120,-0.00343789,-0
 .02588995,-0.05937095,-0.00593016,0.02779078,0.00485001,0.00313613,-0.
 00002440,0.00008510,-0.00000336,0.00006980,-0.00007723,-0.00001584,-0.
 00008355,0.00004030,-0.00007063,0.00018917,0.00000731,0.00014001,-0.00
 119814,0.00078978,0.00081113,0.00061862,-0.00153829,-0.00078731,-0.000
 01004,0.00002770,-0.00002834,0.00046851,-0.00012366,0.00011469,0.00017
 296,-0.00005763,-0.00012031,-0.00000749,0.00028440,-0.00003971,0.00000
 792,0.00006078,-0.00002939,-0.00000374,0.00000656,-0.00000339,0.000011
 13,0.00000329,0.00000660,0.00000337,0.00000058,-0.00000511,-0.00000073
 ,0.00000053,-0.00000182,-0.00000015,-0.00001049,-0.00000426,0.00000022
 ,-0.00000322,0.00000340,-0.00001104,0.00000041,0.00000346,-0.00008040,
 0.00002577,-0.00001141,0.00126448,0.00002368,0.00008746,-0.00037656,0.
 00085454,0.00056087,0.02388695,0.06248434,-0.00005965,0.00013574,0.000
 01207,-0.00003099,-0.00013171,-0.00006040,-0.00007371,0.00009966,-0.00
 000661,-0.00000271,0.00001075,0.00005064,-0.00003035,-0.00001843,-0.00
 001081,0.00001932,-0.00000166,0.00000880,-0.00030139,0.00000665,-0.000
 99124,0.00008761,-0.00023052,0.00008811,-0.00000343,-0.00006202,0.0001
 3909,-0.00002651,0.00000339,-0.00001342,-0.00008815,0.00018014,0.00042
 814,-0.00054895,-0.00255108,0.00760765,0.00001624,-0.00001933,-0.00071
 519,0.00019329,0.00020407,-0.00058977,0.00015070,0.00001453,-0.0000004
 1,-0.00008818,0.00009061,0.00000171,-0.00016572,-0.00004672,0.00005620
 ,0.00008981,0.00019753,0.00011235,0.00008702,-0.00093451,0.00505111,-0
 .00461540,0.00237406,0.00348767,-0.03960201,-0.00722509,-0.04174199,0.
 00223644,-0.00007242,0.00377011,0.00014091,-0.00004590,0.00001061,-0.0
 0006348,-0.00012335,0.00000796,0.00048037,0.00001467,0.00017078,0.0000
 2053,0.00072347,-0.00036579,0.00145179,-0.00039370,-0.00329933,-0.0001
 8714,-0.00147324,0.00002528,-0.00032896,-0.00042304,-0.00022642,-0.000
 31139,0.00058798,0.00049224,-0.00005749,-0.00001689,0.00004342,-0.0000
 7301,0.00042311,-0.00001086,-0.00000334,0.00004957,-0.00001287,-0.0000
 0102,0.00000720,0.00001080,0.00000566,0.00000191,0.00000372,0.00000272
 ,-0.00000130,0.00000005,0.00000052,0.00000012,0.00000185,0.00000027,-0
 .00000248,0.00001502,-0.00000205,-0.00000136,-0.00002213,-0.00000459,0
 .00000046,-0.00000195,-0.00001109,-0.00001154,0.00003373,0.00011252,-0
 .00003955,0.00006359,0.00030046,0.00056308,-0.00276639,0.03984767,0.01
 021203,0.03088824,0.00413543,-0.00196415,0.00017073,0.00307648,0.00191
 617,0.00026388,-0.00288320,-0.00059718,-0.00011524,0.00244413,0.002571
 13,-0.00019653,-0.00307907,0.00050390,0.00001804,0.00087821,-0.0032530
 1,0.00017069,0.00095354,0.00095568,0.00026120,-0.00045340,-0.00091823,
 -0.00015311,0.00005334,0.00031012,0.00006158,-0.00019829,-0.00002702,0
 .00003630,-0.00079208,-0.00388375,-0.00029419,0.00560904,0.00356217,-0
 .00208812,0.00004484,-0.00078239,0.00035773,0.00072299,0.00069094,0.00
 021277,-0.00537698,-0.00077492,0.00007582,0.00773403,-0.00268889,0.001
 14619,0.01376094,0.00227410,-0.00500760,-0.00668948,0.00369420,-0.0004
 9191,0.00113541,0.00045984,0.00025147,-0.01634137,0.01651784,-0.003951
 32,-0.00235271,-0.00647375,0.00029703,-0.00258495,0.00173988,0.0002096
 5,-0.00943460,-0.00026772,-0.00083983,0.00392177,0.00860812,-0.0017755
 7,-0.04469831,-0.00634082,-0.00838039,-0.00185029,-0.05998479,-0.00761
 979,0.05995207,0.02853107,0.07693974,-0.00524543,0.00213933,0.00514486
 ,0.01993747,0.07314451,0.01383129,0.05451603,-0.07015134,-0.04945360,-
 0.00282218,0.00168493,0.00505939,0.00315257,-0.00040126,0.00141754,-0.
 00136553,0.00194472,0.00467191,0.00017283,-0.00006350,0.00026481,-0.00
 012312,-0.00005976,0.00001432,-0.00006664,-0.00000572,0.00005442,-0.00
 006870,0.00001485,-0.00003005,0.00003311,-0.00003879,-0.00002015,0.000
 00712,0.00001700,-0.00000310,-0.00001821,-0.00001169,-0.00000992,-0.00
 004885,0.00004221,-0.00008043,0.00004241,0.00007787,-0.00004608,-0.000
 02813,-0.00000082,-0.00009571,0.00030086,-0.00003756,-0.00011371,-0.07
 467147,0.00024102,0.00002689,0.00006309,-0.00039055,0.00013387,-0.0001
 2321,0.00013492,-0.00034477,-0.00000163,-0.00016764,0.00002611,-0.0000
 2512,-0.00001543,0.00014675,-0.00001528,0.00000875,0.00005212,-0.00000
 460,0.00000739,0.00029951,0.00007322,-0.00010992,-0.00011648,-0.000014
 09,-0.00008589,0.00011200,0.00001036,0.00013634,-0.00003290,0.00000680
 ,0.00012964,0.00060606,0.00009622,-0.00110085,-0.00073406,0.00017425,-
 0.00008006,-0.00054959,-0.00023215,0.00016801,0.00003610,-0.00001179,-
 0.00011970,0.00012355,-0.00007421,0.00030250,-0.00015891,0.00025754,-0
 .00089653,-0.00158696,0.00044859,0.00060683,-0.00031344,-0.00005056,0.
 00059575,-0.00000161,0.00013230,0.00558858,-0.00265283,0.00581430,0.00
 202807,-0.00108487,0.00025253,-0.00054245,0.00061608,0.00048139,0.0004
 4351,-0.00105317,-0.00004341,-0.00059923,0.00071528,0.00084257,0.00256
 957,-0.00557404,-0.00177450,-0.00455997,-0.00101933,-0.00928921,-0.005
 02679,-0.02097495,-0.00565019,-0.00048878,0.00559954,0.00863598,0.0063
 1685,-0.01714089,-0.01161060,-0.00840235,-0.01358864,0.00014256,-0.003
 85615,0.00123975,0.00637137,-0.00012417,0.00003619,0.00125344,0.000109
 48,-0.00052828,0.00026533,-0.00000519,-0.00012502,-0.00003506,0.000000
 81,0.00005314,-0.00009059,0.00000292,0.00002284,0.00007022,0.00000292,
 -0.00000727,0.00000468,-0.00001774,0.00000488,-0.00000002,-0.00001313,
 0.00000780,0.00000219,0.00000561,0.00000689,-0.00000290,0.00000088,0.0
 0001737,-0.00003329,-0.00000530,0.00003325,-0.00009899,-0.00002314,0.0
 0001605,-0.00002156,0.00004792,-0.00027005,-0.00046632,0.00707908,0.05
 768329,0.00116212,-0.00033347,0.00009934,0.00036787,0.00029237,-0.0001
 0007,-0.00054845,-0.00029899,0.00001578,0.00041793,0.00074385,-0.00004
 766,-0.00083091,0.00003861,0.00001001,0.00042190,-0.00073565,0.0000298
 7,0.00047682,0.00029961,0.00004725,-0.00021558,-0.00025117,-0.00002498
 ,0.00011430,0.00011177,0.00000208,-0.00001444,-0.00011576,0.00001061,-
 0.00034474,0.00017369,-0.00005597,0.00053333,0.00090591,-0.00031545,-0
 .00004315,-0.00036167,0.00000164,0.00035633,0.00009932,0.00003726,-0.0
 0114595,-0.00016601,-0.00004645,0.00171635,-0.00025218,0.00029615,0.00
 159380,-0.00066608,-0.00028124,-0.00068276,0.00053442,-0.00002917,0.00
 069983,0.00050215,0.00012635,-0.00063284,0.00153197,0.00165254,-0.0003
 6676,-0.00178582,0.00098867,-0.00106065,0.00074085,0.00009462,-0.00101
 058,-0.00036103,-0.00018258,0.00019194,0.00082512,0.00002029,-0.007589
 27,-0.00256247,0.00016462,0.00106896,-0.00694669,-0.00247042,0.0004082
 1,0.00365195,-0.00717765,0.00717396,-0.00291639,-0.04883022,0.00185963
 ,0.01131821,0.00107037,0.02634007,-0.01217171,-0.02640166,-0.00197970,
 0.00073343,0.00275278,0.00136399,0.00243320,-0.00505877,-0.00012345,0.
 00002477,0.00043757,0.00003034,-0.00006757,0.00000241,-0.00000813,0.00
 003696,-0.00002833,-0.00000330,0.00003143,-0.00000177,0.00000319,0.000
 02018,-0.00001055,0.00000894,-0.00001523,-0.00000453,0.00000825,-0.000
 00178,-0.00000085,0.00000467,-0.00000699,-0.00000189,-0.00000865,0.000
 00505,-0.00003533,0.00003333,0.00000798,-0.00002174,-0.00003383,0.0000
 3702,-0.00004669,0.00023606,0.00040827,-0.00018199,-0.02955589,0.00442
 958,0.08214584,-0.00009327,-0.00001389,-0.00000903,0.00006870,0.000150
 56,0.00001702,0.00004535,0.00004388,-0.00000260,-0.00002528,-0.0000923
 1,0.00000314,0.00011528,0.00004022,0.00000354,-0.00008710,0.00007472,-
 0.00000546,-0.00022628,0.00003968,-0.00000685,0.00007246,-0.00005321,0
 .00001170,-0.00008645,0.00002854,0.00000413,0.00006387,0.00003721,-0.0
 0000501,0.00031447,-0.00010108,0.00008018,-0.00034821,-0.00022949,-0.0
 0022809,0.00003596,-0.00013192,0.00006302,-0.00000086,0.00003993,-0.00
 001179,0.00014354,-0.00011213,-0.00000265,-0.00043326,-0.00020763,-0.0
 0018601,0.00077224,-0.00119986,0.00036347,-0.00001656,-0.00011298,-0.0
 0003049,0.00027121,-0.00001986,0.00003113,0.00145252,-0.00154003,-0.00
 009813,-0.00074468,0.00082409,0.00051592,-0.00004691,0.00053530,-0.000
 10665,-0.00003117,-0.00003763,0.00004382,-0.00000522,0.00004221,0.0000
 2823,-0.00025552,-0.00001411,-0.00012160,-0.00587668,-0.00009591,0.002
 64682,-0.00469931,-0.02968489,0.00393841,-0.04705724,-0.03682914,0.005
 52025,-0.00353489,0.00080440,-0.00362873,0.00381805,0.02638895,-0.0032
 7023,0.00125555,-0.00066388,0.00061103,0.00066046,0.00236047,-0.000654
 77,0.00011008,0.00123876,-0.00026112,0.00000766,-0.00006679,-0.0000082
 5,0.00000531,-0.00000674,0.00001787,-0.00003911,-0.00002610,-0.0000253
 1,-0.00000193,0.00000036,0.00000184,0.00000066,0.00000705,0.00000079,-
 0.00000012,0.00000729,0.00000276,0.00000733,-0.00000221,-0.00000185,0.
 00001692,-0.00000353,0.00000205,0.00004788,-0.00000407,0.00002385,-0.0
 0001017,-0.00003302,0.00002207,0.00002390,0.00138756,0.00155055,-0.001
 39163,0.00010362,-0.00039308,0.05570246,-0.00009406,0.00003848,-0.0000
 0262,0.00007723,0.00005032,-0.00001650,-0.00005471,0.00007930,0.000003
 88,0.00000886,-0.00009378,0.00000178,0.00007141,0.00002651,-0.00000685
 ,-0.00005502,0.00006724,-0.00000056,-0.00029759,0.00003211,0.00000291,
 0.00013780,-0.00009690,-0.00000946,-0.00011476,-0.00004259,-0.00000602
 ,0.00003062,0.00008233,0.00000271,0.00029966,-0.00005989,0.00005958,-0
 .00061793,0.00016390,-0.00019353,-0.00007026,-0.00019168,-0.00005001,0
 .00003935,0.00007046,0.00002839,0.00012247,0.00004068,0.00001895,-0.00
 003419,-0.00007500,-0.00009417,0.00045704,0.00005562,0.00020059,-0.000
 11170,-0.00001972,-0.00003703,0.00022669,-0.00003035,0.00014549,0.0009
 8575,-0.00096454,-0.00068718,0.00243589,-0.00167649,-0.00251216,0.0002
 3771,0.00035322,-0.00015138,0.00007469,-0.00019113,-0.00000629,-0.0001
 2012,0.00010584,0.00000312,0.00037991,0.00016978,0.00012960,-0.0003180
 2,0.00044796,0.00090748,-0.00099201,-0.00361259,-0.00026989,-0.0401966
 3,-0.31436331,0.03736360,0.00086391,-0.00013088,0.00159523,-0.00142839
 ,-0.00863740,-0.00030866,0.00021989,0.00080033,-0.00012958,-0.00188454
 ,-0.01221543,0.00181409,-0.00029731,-0.00029654,0.00030433,0.00001707,
 -0.00002136,0.00002789,-0.00001378,-0.00000776,-0.00001219,-0.00000401
 ,-0.00000426,0.00000175,-0.00000115,-0.00000496,0.00000199,-0.00000585
 ,0.00000172,0.00000112,-0.00000693,0.00000396,-0.00000068,-0.00000064,
 0.00000256,-0.00000015,-0.00000589,0.00000456,0.00001229,0.00003720,-0
 .00000810,0.00004924,-0.00000173,0.00000017,-0.00007515,0.00262906,-0.
 00062658,-0.00160856,0.00024741,0.00024276,0.00007899,0.03712761,0.340
 53143,0.00004839,-0.00006727,-0.00000088,0.00008577,-0.00000379,0.0000
 0360,-0.00003830,0.00002283,-0.00001212,0.00004223,0.00003898,0.000010
 27,-0.00003111,-0.00002617,0.00000970,0.00003090,-0.00003967,-0.000006
 16,0.00013125,-0.00005984,0.00000454,-0.00003724,0.00008931,0.00000484
 ,0.00004517,-0.00001615,-0.00000364,-0.00004275,-0.00000258,0.00000135
 ,-0.00025438,0.00003590,-0.00001243,0.00021675,-0.00013110,0.00002142,
 0.00007626,0.00014072,0.00000741,-0.00008325,-0.00007050,-0.00001058,-
 0.00011028,0.00001039,-0.00002276,0.00020376,0.00005441,0.00003222,-0.
 00007521,0.00045261,0.00020835,-0.00012559,0.00002059,-0.00005683,-0.0
 0025336,0.00005056,-0.00003406,-0.00067105,0.00033838,0.00082547,0.001
 94133,-0.00000819,-0.00003122,-0.00018816,-0.00041588,0.00001807,-0.00
 005816,0.00009387,-0.00002437,0.00008139,0.00002454,0.00015818,-0.0003
 5973,0.00017306,0.00049917,0.00153918,-0.00107739,-0.00097903,0.001341
 81,0.01127392,-0.00216148,0.00545434,0.03174462,-0.05513441,-0.0025620
 2,-0.00015795,-0.00331843,0.00360415,0.02264908,-0.00378088,0.00003306
 ,-0.00042744,0.00144663,-0.00390506,-0.02715933,0.00554813,0.00010451,
 0.00099477,0.00016227,-0.00000686,-0.00002669,-0.00002368,0.00000460,0
 .00000205,-0.00001435,0.00000900,0.00000510,0.00001453,-0.00000009,-0.
 00000050,-0.00000035,-0.00000012,-0.00000308,0.00000042,0.00000017,-0.
 00000384,-0.00000041,-0.00000534,0.00000111,0.00000151,-0.00000109,0.0
 0000638,-0.00000622,-0.00006252,0.00000209,-0.00002444,0.00002872,-0.0
 0000546,0.00002662,0.00090391,-0.00178689,-0.00156338,-0.00060912,-0.0
 0015919,0.00134988,-0.00644588,-0.03657637,0.05686750\\0.00000025,0.00
 000154,0.00000092,-0.00000414,-0.00000005,-0.00000036,-0.00000151,0.00
 000579,0.00000230,0.00000547,0.00000235,0.00000050,-0.00000002,-0.0000
 0107,-0.00000079,-0.00000321,0.00000255,-0.00000113,0.00000412,0.00000
 373,0.00000310,0.00000428,-0.00000562,-0.00000051,0.00000041,0.0000065
 1,-0.00000020,-0.00000308,-0.00000153,-0.00000110,-0.00000500,-0.00000
 088,0.00000205,0.00000137,0.00000008,-0.00000796,0.00000570,0.00000063
 ,-0.00000106,-0.00000251,0.00000267,-0.00000112,-0.00000253,-0.0000017
 7,-0.00000193,0.00000126,0.00000251,0.00000038,-0.00000091,-0.00000175
 ,0.00000032,0.00000191,-0.00000126,0.,-0.00000034,0.00000037,0.0000007
 5,-0.00001151,-0.00000757,0.00000807,-0.00000028,0.00000494,0.00000521
 ,0.00000208,0.00000004,-0.00000161,-0.00000360,-0.00000326,-0.00000099
 ,0.00000355,0.00000120,-0.00000125,-0.00001259,-0.00000897,-0.00000679
 ,-0.00000008,-0.00000283,0.00000282,0.00000841,0.00000945,-0.00000838,
 0.00000420,-0.00001273,-0.00000861,0.00000673,0.00001614,0.00000892,-0
 .00000071,-0.00001138,-0.00000277,0.00000057,-0.00000181,-0.00000376,-
 0.00000326,0.00000036,0.00000049,-0.00000034,-0.00000238,-0.00000049,-
 0.00000093,-0.00000125,0.00000039,-0.00000184,-0.00000059,0.00000113,-
 0.00000180,0.00000023,0.00000054,-0.00000109,0.00000106,0.00000017,-0.
 00000118,0.00000215,0.00000071,-0.00000008,0.00000170,0.00000094,0.000
 00097,0.00000220,0.00000111,0.00000063,0.00000077,0.00000060,0.0000014
 8,0.00000015,0.00000052,0.00000170,-0.00000047,-0.00000009,-0.00000592
 ,0.00000261,-0.00000232,0.00000723,-0.00000385,0.00000317,0.00000614,-
 0.00000074,0.00000812\\\@


 SIGN SEEN IN A RESTAURANT-
 WE RESERVE THE RIGHT TO SERVE REFUSE TO ANYONE.
 Job cpu time:       0 days 22 hours 24 minutes 48.5 seconds.
 Elapsed time:       0 days  1 hours  7 minutes 25.7 seconds.
 File lengths (MBytes):  RWF=   2274 Int=      0 D2E=      0 Chk=     57 Scr=      1
 Normal termination of Gaussian 16 at Thu Jun 20 17:30:31 2019.
