 Entering Gaussian System, Link 0=/share/apps/gaussian16/g16/g16
 Initial command:
 /share/apps/gaussian16/g16/l1.exe "/home/amen01//scratch/523/Gau-42028.inp" -scrdir="/home/amen01//scratch/523/"
 Entering Link 1 = /share/apps/gaussian16/g16/l1.exe PID=     42029.
  
 Copyright (c) 1988-2017, Gaussian, Inc.  All Rights Reserved.
  
 This is part of the Gaussian(R) 16 program.  It is based on
 the Gaussian(R) 09 system (copyright 2009, Gaussian, Inc.),
 the Gaussian(R) 03 system (copyright 2003, Gaussian, Inc.),
 the Gaussian(R) 98 system (copyright 1998, Gaussian, Inc.),
 the Gaussian(R) 94 system (copyright 1995, Gaussian, Inc.),
 the Gaussian 92(TM) system (copyright 1992, Gaussian, Inc.),
 the Gaussian 90(TM) system (copyright 1990, Gaussian, Inc.),
 the Gaussian 88(TM) system (copyright 1988, Gaussian, Inc.),
 the Gaussian 86(TM) system (copyright 1986, Carnegie Mellon
 University), and the Gaussian 82(TM) system (copyright 1983,
 Carnegie Mellon University). Gaussian is a federally registered
 trademark of Gaussian, Inc.
  
 This software contains proprietary and confidential information,
 including trade secrets, belonging to Gaussian, Inc.
  
 This software is provided under written license and may be
 used, copied, transmitted, or stored only in accord with that
 written license.
  
 The following legend is applicable only to US Government
 contracts under FAR:
  
                    RESTRICTED RIGHTS LEGEND
  
 Use, reproduction and disclosure by the US Government is
 subject to restrictions as set forth in subparagraphs (a)
 and (c) of the Commercial Computer Software - Restricted
 Rights clause in FAR 52.227-19.
  
 Gaussian, Inc.
 340 Quinnipiac St., Bldg. 40, Wallingford CT 06492
  
  
 ---------------------------------------------------------------
 Warning -- This program may not be used in any manner that
 competes with the business of Gaussian, Inc. or will provide
 assistance to any competitor of Gaussian, Inc.  The licensee
 of this program is prohibited from giving any competitor of
 Gaussian, Inc. access to this program.  By using this program,
 the user acknowledges that Gaussian, Inc. is engaged in the
 business of creating and licensing software in the field of
 computational chemistry and represents and warrants to the
 licensee that it is not a competitor of Gaussian, Inc. and that
 it will not use this program in any manner prohibited above.
 ---------------------------------------------------------------
  

 Cite this work as:
 Gaussian 16, Revision B.01,
 M. J. Frisch, G. W. Trucks, H. B. Schlegel, G. E. Scuseria, 
 M. A. Robb, J. R. Cheeseman, G. Scalmani, V. Barone, 
 G. A. Petersson, H. Nakatsuji, X. Li, M. Caricato, A. V. Marenich, 
 J. Bloino, B. G. Janesko, R. Gomperts, B. Mennucci, H. P. Hratchian, 
 J. V. Ortiz, A. F. Izmaylov, J. L. Sonnenberg, D. Williams-Young, 
 F. Ding, F. Lipparini, F. Egidi, J. Goings, B. Peng, A. Petrone, 
 T. Henderson, D. Ranasinghe, V. G. Zakrzewski, J. Gao, N. Rega, 
 G. Zheng, W. Liang, M. Hada, M. Ehara, K. Toyota, R. Fukuda, 
 J. Hasegawa, M. Ishida, T. Nakajima, Y. Honda, O. Kitao, H. Nakai, 
 T. Vreven, K. Throssell, J. A. Montgomery, Jr., J. E. Peralta, 
 F. Ogliaro, M. J. Bearpark, J. J. Heyd, E. N. Brothers, K. N. Kudin, 
 V. N. Staroverov, T. A. Keith, R. Kobayashi, J. Normand, 
 K. Raghavachari, A. P. Rendell, J. C. Burant, S. S. Iyengar, 
 J. Tomasi, M. Cossi, J. M. Millam, M. Klene, C. Adamo, R. Cammi, 
 J. W. Ochterski, R. L. Martin, K. Morokuma, O. Farkas, 
 J. B. Foresman, and D. J. Fox, Gaussian, Inc., Wallingford CT, 2016.
 
 ******************************************
 Gaussian 16:  ES64L-G16RevB.01 20-Dec-2017
                18-Jun-2019 
 ******************************************
 %nprocshared=20
 Will use up to   20 processors via shared memory.
 %mem=100GB
 %chk=7-memb-haddTSguess-5b.chk
 ---------------------------------------------------------------
 # opt=(ts,calcfc,noeigen) freq b3lyp/6-311+g(d,p) int=grid=fine
 ---------------------------------------------------------------
 1/5=1,10=4,11=1,18=20,26=3,38=1/1,3;
 2/9=110,12=2,17=6,18=5,40=1/2;
 3/5=4,6=6,7=111,11=2,25=1,30=1,71=2,74=-5,75=-4,140=1/1,2,3;
 4//1;
 5/5=2,38=5/2;
 8/6=4,10=90,11=11/1;
 11/6=1,8=1,9=11,15=111,16=1/1,2,10;
 10/6=1,13=1/2;
 6/7=2,8=2,9=2,10=2,28=1/1;
 7/10=1,18=20,25=1/1,2,3,16;
 1/5=1,10=4,11=1,18=20,26=3/3(2);
 2/9=110/2;
 99//99;
 2/9=110/2;
 3/5=4,6=6,7=111,11=2,25=1,30=1,71=1,74=-5,75=-4/1,2,3;
 4/5=5,16=3,69=1/1;
 5/5=2,38=5/2;
 7//1,2,3,16;
 1/5=1,11=1,18=20,26=3/3(-5);
 2/9=110/2;
 6/7=2,8=2,9=2,10=2,19=2,28=1/1;
 99/9=1/99;
 ---------------------
 7-memb-haddTSguess-5b
 ---------------------
 Symbolic Z-matrix:
 Charge =  0 Multiplicity = 1
 C                     1.53974  -2.80398   0.00608 
 C                     1.39677  -1.45967   0.35358 
 C                     2.49818  -0.59337   0.43803 
 C                     3.79761  -0.95016   0.16994 
 C                     2.91494  -3.24218  -0.14542 
 C                     3.983    -2.36733  -0.0733 
 C                     2.01066   0.72589   0.45868 
 C                     2.84386   1.81555   0.1884 
 C                     4.24963   1.47845   0.04469 
 C                     4.70399   0.17363   0.03405 
 C                     0.61      0.70416   0.40341 
 C                    -0.07722   1.88068   0.10301 
 C                     0.74924   3.06175  -0.13738 
 C                     2.16645   3.01695  -0.07866 
 C                     0.32934  -3.46356  -0.27973 
 C                    -0.90163  -2.76693  -0.25577 
 C                    -0.9909   -1.34247   0.04558 
 C                     0.21298  -0.70411   0.33534 
 C                     0.08391   4.25803  -0.53275 
 C                    -1.49937   1.93517  -0.04732 
 C                    -2.05892   3.11776  -0.48073 
 C                    -1.27167   4.27267  -0.72219 
 C                    -2.11848  -3.44663  -0.57997 
 C                    -3.31369  -2.80058  -0.55156 
 C                    -3.4146   -1.41495  -0.18517 
 C                    -2.2516   -0.65307   0.03365 
 C                    -2.45289   0.79895   0.36559 
 C                    -3.77021   1.26253   0.71781 
 C                    -4.70486  -0.87792   0.11102 
 C                    -4.8293    0.31865   0.76908 
 H                    -5.78323   0.60928   1.19961 
 H                    -2.57932   0.97377   1.56737 
 H                    -5.57345  -1.49656  -0.10338 
 H                    -4.2307   -3.33942  -0.76377 
 H                    -2.07357  -4.50008  -0.83517 
 H                     0.31866  -4.51072  -0.5658 
 H                     3.11214  -4.28453  -0.37403 
 H                     4.98183  -2.75287  -0.25118 
 H                     5.7608   -0.00766  -0.13335 
 H                     4.96581   2.27813  -0.11497 
 H                     2.71457   3.92115  -0.32516 
 H                     0.67423   5.15137  -0.70763 
 H                    -1.76397   5.18102  -1.05089 
 H                    -3.13349   3.17375  -0.58958 
 

 GradGradGradGradGradGradGradGradGradGradGradGradGradGradGradGradGradGrad
 Berny optimization.
 Initialization pass.
                           ----------------------------
                           !    Initial Parameters    !
                           ! (Angstroms and Degrees)  !
 --------------------------                            --------------------------
 ! Name  Definition              Value          Derivative Info.                !
 --------------------------------------------------------------------------------
 ! R1    R(1,2)                  1.3958         calculate D2E/DX2 analytically  !
 ! R2    R(1,5)                  1.4513         calculate D2E/DX2 analytically  !
 ! R3    R(1,15)                 1.4078         calculate D2E/DX2 analytically  !
 ! R4    R(2,3)                  1.4038         calculate D2E/DX2 analytically  !
 ! R5    R(2,18)                 1.4045         calculate D2E/DX2 analytically  !
 ! R6    R(3,4)                  1.3739         calculate D2E/DX2 analytically  !
 ! R7    R(3,7)                  1.4066         calculate D2E/DX2 analytically  !
 ! R8    R(4,6)                  1.4498         calculate D2E/DX2 analytically  !
 ! R9    R(4,10)                 1.4501         calculate D2E/DX2 analytically  !
 ! R10   R(5,6)                  1.3825         calculate D2E/DX2 analytically  !
 ! R11   R(5,37)                 1.0852         calculate D2E/DX2 analytically  !
 ! R12   R(6,38)                 1.0853         calculate D2E/DX2 analytically  !
 ! R13   R(7,8)                  1.3981         calculate D2E/DX2 analytically  !
 ! R14   R(7,11)                 1.4019         calculate D2E/DX2 analytically  !
 ! R15   R(8,9)                  1.4528         calculate D2E/DX2 analytically  !
 ! R16   R(8,14)                 1.4048         calculate D2E/DX2 analytically  !
 ! R17   R(9,10)                 1.3817         calculate D2E/DX2 analytically  !
 ! R18   R(9,40)                 1.0853         calculate D2E/DX2 analytically  !
 ! R19   R(10,39)                1.0852         calculate D2E/DX2 analytically  !
 ! R20   R(11,12)                1.3952         calculate D2E/DX2 analytically  !
 ! R21   R(11,18)                1.4647         calculate D2E/DX2 analytically  !
 ! R22   R(12,13)                1.4614         calculate D2E/DX2 analytically  !
 ! R23   R(12,20)                1.4311         calculate D2E/DX2 analytically  !
 ! R24   R(13,14)                1.4191         calculate D2E/DX2 analytically  !
 ! R25   R(13,19)                1.4248         calculate D2E/DX2 analytically  !
 ! R26   R(14,41)                1.0857         calculate D2E/DX2 analytically  !
 ! R27   R(15,16)                1.4146         calculate D2E/DX2 analytically  !
 ! R28   R(15,36)                1.0856         calculate D2E/DX2 analytically  !
 ! R29   R(16,17)                1.4587         calculate D2E/DX2 analytically  !
 ! R30   R(16,23)                1.431          calculate D2E/DX2 analytically  !
 ! R31   R(17,18)                1.3931         calculate D2E/DX2 analytically  !
 ! R32   R(17,26)                1.4369         calculate D2E/DX2 analytically  !
 ! R33   R(19,22)                1.3688         calculate D2E/DX2 analytically  !
 ! R34   R(19,42)                1.085          calculate D2E/DX2 analytically  !
 ! R35   R(20,21)                1.3782         calculate D2E/DX2 analytically  !
 ! R36   R(20,27)                1.5397         calculate D2E/DX2 analytically  !
 ! R37   R(21,22)                1.4184         calculate D2E/DX2 analytically  !
 ! R38   R(21,44)                1.0815         calculate D2E/DX2 analytically  !
 ! R39   R(22,43)                1.0842         calculate D2E/DX2 analytically  !
 ! R40   R(23,24)                1.3589         calculate D2E/DX2 analytically  !
 ! R41   R(23,35)                1.0849         calculate D2E/DX2 analytically  !
 ! R42   R(24,25)                1.4368         calculate D2E/DX2 analytically  !
 ! R43   R(24,34)                1.0846         calculate D2E/DX2 analytically  !
 ! R44   R(25,26)                1.4075         calculate D2E/DX2 analytically  !
 ! R45   R(25,29)                1.4286         calculate D2E/DX2 analytically  !
 ! R46   R(26,27)                1.503          calculate D2E/DX2 analytically  !
 ! R47   R(27,28)                1.4402         calculate D2E/DX2 analytically  !
 ! R48   R(27,32)                1.221          calculate D2E/DX2 analytically  !
 ! R49   R(28,30)                1.4196         calculate D2E/DX2 analytically  !
 ! R50   R(29,30)                1.3712         calculate D2E/DX2 analytically  !
 ! R51   R(29,33)                1.0877         calculate D2E/DX2 analytically  !
 ! R52   R(30,31)                1.0862         calculate D2E/DX2 analytically  !
 ! A1    A(2,1,5)              114.4467         calculate D2E/DX2 analytically  !
 ! A2    A(2,1,15)             114.4386         calculate D2E/DX2 analytically  !
 ! A3    A(5,1,15)             130.698          calculate D2E/DX2 analytically  !
 ! A4    A(1,2,3)              121.9338         calculate D2E/DX2 analytically  !
 ! A5    A(1,2,18)             126.956          calculate D2E/DX2 analytically  !
 ! A6    A(3,2,18)             109.2747         calculate D2E/DX2 analytically  !
 ! A7    A(2,3,4)              124.7534         calculate D2E/DX2 analytically  !
 ! A8    A(2,3,7)              107.9227         calculate D2E/DX2 analytically  !
 ! A9    A(4,3,7)              125.045          calculate D2E/DX2 analytically  !
 ! A10   A(3,4,6)              114.049          calculate D2E/DX2 analytically  !
 ! A11   A(3,4,10)             114.0907         calculate D2E/DX2 analytically  !
 ! A12   A(6,4,10)             131.4425         calculate D2E/DX2 analytically  !
 ! A13   A(1,5,6)              122.3806         calculate D2E/DX2 analytically  !
 ! A14   A(1,5,37)             118.9611         calculate D2E/DX2 analytically  !
 ! A15   A(6,5,37)             118.5825         calculate D2E/DX2 analytically  !
 ! A16   A(4,6,5)              121.9062         calculate D2E/DX2 analytically  !
 ! A17   A(4,6,38)             119.4995         calculate D2E/DX2 analytically  !
 ! A18   A(5,6,38)             118.5312         calculate D2E/DX2 analytically  !
 ! A19   A(3,7,8)              121.44           calculate D2E/DX2 analytically  !
 ! A20   A(3,7,11)             109.3391         calculate D2E/DX2 analytically  !
 ! A21   A(8,7,11)             126.8619         calculate D2E/DX2 analytically  !
 ! A22   A(7,8,9)              114.5166         calculate D2E/DX2 analytically  !
 ! A23   A(7,8,14)             114.5769         calculate D2E/DX2 analytically  !
 ! A24   A(9,8,14)             130.2586         calculate D2E/DX2 analytically  !
 ! A25   A(8,9,10)             122.5541         calculate D2E/DX2 analytically  !
 ! A26   A(8,9,40)             118.824          calculate D2E/DX2 analytically  !
 ! A27   A(10,9,40)            118.5353         calculate D2E/DX2 analytically  !
 ! A28   A(4,10,9)             121.7071         calculate D2E/DX2 analytically  !
 ! A29   A(4,10,39)            119.5818         calculate D2E/DX2 analytically  !
 ! A30   A(9,10,39)            118.6305         calculate D2E/DX2 analytically  !
 ! A31   A(7,11,12)            119.1772         calculate D2E/DX2 analytically  !
 ! A32   A(7,11,18)            106.7112         calculate D2E/DX2 analytically  !
 ! A33   A(12,11,18)           131.8524         calculate D2E/DX2 analytically  !
 ! A34   A(11,12,13)           115.9986         calculate D2E/DX2 analytically  !
 ! A35   A(11,12,20)           122.9688         calculate D2E/DX2 analytically  !
 ! A36   A(13,12,20)           120.9256         calculate D2E/DX2 analytically  !
 ! A37   A(12,13,14)           122.1702         calculate D2E/DX2 analytically  !
 ! A38   A(12,13,19)           117.3946         calculate D2E/DX2 analytically  !
 ! A39   A(14,13,19)           120.2856         calculate D2E/DX2 analytically  !
 ! A40   A(8,14,13)            121.0911         calculate D2E/DX2 analytically  !
 ! A41   A(8,14,41)            120.7935         calculate D2E/DX2 analytically  !
 ! A42   A(13,14,41)           117.9356         calculate D2E/DX2 analytically  !
 ! A43   A(1,15,16)            120.9313         calculate D2E/DX2 analytically  !
 ! A44   A(1,15,36)            120.9245         calculate D2E/DX2 analytically  !
 ! A45   A(16,15,36)           118.0941         calculate D2E/DX2 analytically  !
 ! A46   A(15,16,17)           122.523          calculate D2E/DX2 analytically  !
 ! A47   A(15,16,23)           120.146          calculate D2E/DX2 analytically  !
 ! A48   A(17,16,23)           117.2955         calculate D2E/DX2 analytically  !
 ! A49   A(16,17,18)           115.9469         calculate D2E/DX2 analytically  !
 ! A50   A(16,17,26)           121.3647         calculate D2E/DX2 analytically  !
 ! A51   A(18,17,26)           122.6877         calculate D2E/DX2 analytically  !
 ! A52   A(2,18,11)            106.7479         calculate D2E/DX2 analytically  !
 ! A53   A(2,18,17)            118.9841         calculate D2E/DX2 analytically  !
 ! A54   A(11,18,17)           133.1923         calculate D2E/DX2 analytically  !
 ! A55   A(13,19,22)           120.6523         calculate D2E/DX2 analytically  !
 ! A56   A(13,19,42)           118.8153         calculate D2E/DX2 analytically  !
 ! A57   A(22,19,42)           120.5115         calculate D2E/DX2 analytically  !
 ! A58   A(12,20,21)           117.98           calculate D2E/DX2 analytically  !
 ! A59   A(12,20,27)           123.9964         calculate D2E/DX2 analytically  !
 ! A60   A(21,20,27)           117.782          calculate D2E/DX2 analytically  !
 ! A61   A(20,21,22)           121.7933         calculate D2E/DX2 analytically  !
 ! A62   A(20,21,44)           118.6507         calculate D2E/DX2 analytically  !
 ! A63   A(22,21,44)           119.4828         calculate D2E/DX2 analytically  !
 ! A64   A(19,22,21)           121.1564         calculate D2E/DX2 analytically  !
 ! A65   A(19,22,43)           120.0391         calculate D2E/DX2 analytically  !
 ! A66   A(21,22,43)           118.8003         calculate D2E/DX2 analytically  !
 ! A67   A(16,23,24)           121.1544         calculate D2E/DX2 analytically  !
 ! A68   A(16,23,35)           118.641          calculate D2E/DX2 analytically  !
 ! A69   A(24,23,35)           120.1967         calculate D2E/DX2 analytically  !
 ! A70   A(23,24,25)           121.7072         calculate D2E/DX2 analytically  !
 ! A71   A(23,24,34)           120.2225         calculate D2E/DX2 analytically  !
 ! A72   A(25,24,34)           118.0107         calculate D2E/DX2 analytically  !
 ! A73   A(24,25,26)           120.242          calculate D2E/DX2 analytically  !
 ! A74   A(24,25,29)           118.6093         calculate D2E/DX2 analytically  !
 ! A75   A(26,25,29)           120.7018         calculate D2E/DX2 analytically  !
 ! A76   A(17,26,25)           117.8105         calculate D2E/DX2 analytically  !
 ! A77   A(17,26,27)           125.3913         calculate D2E/DX2 analytically  !
 ! A78   A(25,26,27)           116.5277         calculate D2E/DX2 analytically  !
 ! A79   A(20,27,26)           124.8025         calculate D2E/DX2 analytically  !
 ! A80   A(20,27,28)           113.2341         calculate D2E/DX2 analytically  !
 ! A81   A(20,27,32)           102.8509         calculate D2E/DX2 analytically  !
 ! A82   A(26,27,28)           119.1735         calculate D2E/DX2 analytically  !
 ! A83   A(26,27,32)           111.6885         calculate D2E/DX2 analytically  !
 ! A84   A(28,27,32)            67.573          calculate D2E/DX2 analytically  !
 ! A85   A(27,28,30)           118.5029         calculate D2E/DX2 analytically  !
 ! A86   A(25,29,30)           120.6301         calculate D2E/DX2 analytically  !
 ! A87   A(25,29,33)           117.81           calculate D2E/DX2 analytically  !
 ! A88   A(30,29,33)           121.2267         calculate D2E/DX2 analytically  !
 ! A89   A(28,30,29)           119.6804         calculate D2E/DX2 analytically  !
 ! A90   A(28,30,31)           119.4478         calculate D2E/DX2 analytically  !
 ! A91   A(29,30,31)           120.2253         calculate D2E/DX2 analytically  !
 ! D1    D(5,1,2,3)              4.9035         calculate D2E/DX2 analytically  !
 ! D2    D(5,1,2,18)           167.7788         calculate D2E/DX2 analytically  !
 ! D3    D(15,1,2,3)          -168.494          calculate D2E/DX2 analytically  !
 ! D4    D(15,1,2,18)           -5.6187         calculate D2E/DX2 analytically  !
 ! D5    D(2,1,5,6)             -5.7429         calculate D2E/DX2 analytically  !
 ! D6    D(2,1,5,37)           177.4679         calculate D2E/DX2 analytically  !
 ! D7    D(15,1,5,6)           166.3209         calculate D2E/DX2 analytically  !
 ! D8    D(15,1,5,37)          -10.4683         calculate D2E/DX2 analytically  !
 ! D9    D(2,1,15,16)            2.3606         calculate D2E/DX2 analytically  !
 ! D10   D(2,1,15,36)          179.7402         calculate D2E/DX2 analytically  !
 ! D11   D(5,1,15,16)         -169.7037         calculate D2E/DX2 analytically  !
 ! D12   D(5,1,15,36)            7.6759         calculate D2E/DX2 analytically  !
 ! D13   D(1,2,3,4)              1.393          calculate D2E/DX2 analytically  !
 ! D14   D(1,2,3,7)            164.9167         calculate D2E/DX2 analytically  !
 ! D15   D(18,2,3,4)          -164.1727         calculate D2E/DX2 analytically  !
 ! D16   D(18,2,3,7)            -0.649          calculate D2E/DX2 analytically  !
 ! D17   D(1,2,18,11)         -164.262          calculate D2E/DX2 analytically  !
 ! D18   D(1,2,18,17)            5.4123         calculate D2E/DX2 analytically  !
 ! D19   D(3,2,18,11)            0.3871         calculate D2E/DX2 analytically  !
 ! D20   D(3,2,18,17)          170.0614         calculate D2E/DX2 analytically  !
 ! D21   D(2,3,4,6)             -6.6252         calculate D2E/DX2 analytically  !
 ! D22   D(2,3,4,10)           166.8201         calculate D2E/DX2 analytically  !
 ! D23   D(7,3,4,6)           -167.3799         calculate D2E/DX2 analytically  !
 ! D24   D(7,3,4,10)             6.0654         calculate D2E/DX2 analytically  !
 ! D25   D(2,3,7,8)           -163.021          calculate D2E/DX2 analytically  !
 ! D26   D(2,3,7,11)             0.6626         calculate D2E/DX2 analytically  !
 ! D27   D(4,3,7,8)              0.4424         calculate D2E/DX2 analytically  !
 ! D28   D(4,3,7,11)           164.1261         calculate D2E/DX2 analytically  !
 ! D29   D(3,4,6,5)              5.5941         calculate D2E/DX2 analytically  !
 ! D30   D(3,4,6,38)          -177.341          calculate D2E/DX2 analytically  !
 ! D31   D(10,4,6,5)          -166.415          calculate D2E/DX2 analytically  !
 ! D32   D(10,4,6,38)           10.6499         calculate D2E/DX2 analytically  !
 ! D33   D(3,4,10,9)            -6.0843         calculate D2E/DX2 analytically  !
 ! D34   D(3,4,10,39)          177.2255         calculate D2E/DX2 analytically  !
 ! D35   D(6,4,10,9)           165.9222         calculate D2E/DX2 analytically  !
 ! D36   D(6,4,10,39)          -10.768          calculate D2E/DX2 analytically  !
 ! D37   D(1,5,6,4)              0.4921         calculate D2E/DX2 analytically  !
 ! D38   D(1,5,6,38)          -176.6002         calculate D2E/DX2 analytically  !
 ! D39   D(37,5,6,4)           177.293          calculate D2E/DX2 analytically  !
 ! D40   D(37,5,6,38)            0.2006         calculate D2E/DX2 analytically  !
 ! D41   D(3,7,8,9)             -6.7311         calculate D2E/DX2 analytically  !
 ! D42   D(3,7,8,14)           165.0064         calculate D2E/DX2 analytically  !
 ! D43   D(11,7,8,9)          -167.3818         calculate D2E/DX2 analytically  !
 ! D44   D(11,7,8,14)            4.3557         calculate D2E/DX2 analytically  !
 ! D45   D(3,7,11,12)         -165.3264         calculate D2E/DX2 analytically  !
 ! D46   D(3,7,11,18)           -0.4187         calculate D2E/DX2 analytically  !
 ! D47   D(8,7,11,12)           -2.7592         calculate D2E/DX2 analytically  !
 ! D48   D(8,7,11,18)          162.1485         calculate D2E/DX2 analytically  !
 ! D49   D(7,8,9,10)             6.5704         calculate D2E/DX2 analytically  !
 ! D50   D(7,8,9,40)          -176.8652         calculate D2E/DX2 analytically  !
 ! D51   D(14,8,9,10)         -163.5689         calculate D2E/DX2 analytically  !
 ! D52   D(14,8,9,40)           12.9955         calculate D2E/DX2 analytically  !
 ! D53   D(7,8,14,13)           -3.4793         calculate D2E/DX2 analytically  !
 ! D54   D(7,8,14,41)         -178.5045         calculate D2E/DX2 analytically  !
 ! D55   D(9,8,14,13)          166.6552         calculate D2E/DX2 analytically  !
 ! D56   D(9,8,14,41)           -8.37           calculate D2E/DX2 analytically  !
 ! D57   D(8,9,10,4)            -0.1415         calculate D2E/DX2 analytically  !
 ! D58   D(8,9,10,39)          176.5792         calculate D2E/DX2 analytically  !
 ! D59   D(40,9,10,4)         -176.7154         calculate D2E/DX2 analytically  !
 ! D60   D(40,9,10,39)           0.0053         calculate D2E/DX2 analytically  !
 ! D61   D(7,11,12,13)           0.1735         calculate D2E/DX2 analytically  !
 ! D62   D(7,11,12,20)         176.4391         calculate D2E/DX2 analytically  !
 ! D63   D(18,11,12,13)       -160.2664         calculate D2E/DX2 analytically  !
 ! D64   D(18,11,12,20)         15.9992         calculate D2E/DX2 analytically  !
 ! D65   D(7,11,18,2)            0.0197         calculate D2E/DX2 analytically  !
 ! D66   D(7,11,18,17)        -167.5611         calculate D2E/DX2 analytically  !
 ! D67   D(12,11,18,2)         162.2491         calculate D2E/DX2 analytically  !
 ! D68   D(12,11,18,17)         -5.3317         calculate D2E/DX2 analytically  !
 ! D69   D(11,12,13,14)          0.4099         calculate D2E/DX2 analytically  !
 ! D70   D(11,12,13,19)        175.9723         calculate D2E/DX2 analytically  !
 ! D71   D(20,12,13,14)       -175.938          calculate D2E/DX2 analytically  !
 ! D72   D(20,12,13,19)         -0.3755         calculate D2E/DX2 analytically  !
 ! D73   D(11,12,20,21)       -173.3502         calculate D2E/DX2 analytically  !
 ! D74   D(11,12,20,27)         12.4336         calculate D2E/DX2 analytically  !
 ! D75   D(13,12,20,21)          2.7368         calculate D2E/DX2 analytically  !
 ! D76   D(13,12,20,27)       -171.4794         calculate D2E/DX2 analytically  !
 ! D77   D(12,13,14,8)           1.3674         calculate D2E/DX2 analytically  !
 ! D78   D(12,13,14,41)        176.5306         calculate D2E/DX2 analytically  !
 ! D79   D(19,13,14,8)        -174.0698         calculate D2E/DX2 analytically  !
 ! D80   D(19,13,14,41)          1.0934         calculate D2E/DX2 analytically  !
 ! D81   D(12,13,19,22)         -2.26           calculate D2E/DX2 analytically  !
 ! D82   D(12,13,19,42)        179.3946         calculate D2E/DX2 analytically  !
 ! D83   D(14,13,19,22)        173.3902         calculate D2E/DX2 analytically  !
 ! D84   D(14,13,19,42)         -4.9551         calculate D2E/DX2 analytically  !
 ! D85   D(1,15,16,17)           0.7456         calculate D2E/DX2 analytically  !
 ! D86   D(1,15,16,23)         178.5174         calculate D2E/DX2 analytically  !
 ! D87   D(36,15,16,17)       -176.7063         calculate D2E/DX2 analytically  !
 ! D88   D(36,15,16,23)          1.0654         calculate D2E/DX2 analytically  !
 ! D89   D(15,16,17,18)         -1.13           calculate D2E/DX2 analytically  !
 ! D90   D(15,16,17,26)        178.5827         calculate D2E/DX2 analytically  !
 ! D91   D(23,16,17,18)       -178.9618         calculate D2E/DX2 analytically  !
 ! D92   D(23,16,17,26)          0.751          calculate D2E/DX2 analytically  !
 ! D93   D(15,16,23,24)        179.39           calculate D2E/DX2 analytically  !
 ! D94   D(15,16,23,35)          0.4079         calculate D2E/DX2 analytically  !
 ! D95   D(17,16,23,24)         -2.7242         calculate D2E/DX2 analytically  !
 ! D96   D(17,16,23,35)        178.2938         calculate D2E/DX2 analytically  !
 ! D97   D(16,17,18,2)          -1.6617         calculate D2E/DX2 analytically  !
 ! D98   D(16,17,18,11)        164.7216         calculate D2E/DX2 analytically  !
 ! D99   D(26,17,18,2)         178.6297         calculate D2E/DX2 analytically  !
 ! D100  D(26,17,18,11)        -14.987          calculate D2E/DX2 analytically  !
 ! D101  D(16,17,26,25)          4.4311         calculate D2E/DX2 analytically  !
 ! D102  D(16,17,26,27)        178.2305         calculate D2E/DX2 analytically  !
 ! D103  D(18,17,26,25)       -175.8757         calculate D2E/DX2 analytically  !
 ! D104  D(18,17,26,27)         -2.0764         calculate D2E/DX2 analytically  !
 ! D105  D(13,19,22,21)          2.5223         calculate D2E/DX2 analytically  !
 ! D106  D(13,19,22,43)       -178.225          calculate D2E/DX2 analytically  !
 ! D107  D(42,19,22,21)       -179.1605         calculate D2E/DX2 analytically  !
 ! D108  D(42,19,22,43)          0.0922         calculate D2E/DX2 analytically  !
 ! D109  D(12,20,21,22)         -2.5829         calculate D2E/DX2 analytically  !
 ! D110  D(12,20,21,44)       -179.4554         calculate D2E/DX2 analytically  !
 ! D111  D(27,20,21,22)        171.9983         calculate D2E/DX2 analytically  !
 ! D112  D(27,20,21,44)         -4.8742         calculate D2E/DX2 analytically  !
 ! D113  D(12,20,27,26)        -46.8256         calculate D2E/DX2 analytically  !
 ! D114  D(12,20,27,28)        152.3632         calculate D2E/DX2 analytically  !
 ! D115  D(12,20,27,32)         81.505          calculate D2E/DX2 analytically  !
 ! D116  D(21,20,27,26)        138.9475         calculate D2E/DX2 analytically  !
 ! D117  D(21,20,27,28)        -21.8636         calculate D2E/DX2 analytically  !
 ! D118  D(21,20,27,32)        -92.7219         calculate D2E/DX2 analytically  !
 ! D119  D(20,21,22,19)         -0.0099         calculate D2E/DX2 analytically  !
 ! D120  D(20,21,22,43)       -179.2716         calculate D2E/DX2 analytically  !
 ! D121  D(44,21,22,19)        176.8372         calculate D2E/DX2 analytically  !
 ! D122  D(44,21,22,43)         -2.4245         calculate D2E/DX2 analytically  !
 ! D123  D(16,23,24,25)         -0.5645         calculate D2E/DX2 analytically  !
 ! D124  D(16,23,24,34)       -177.701          calculate D2E/DX2 analytically  !
 ! D125  D(35,23,24,25)        178.4018         calculate D2E/DX2 analytically  !
 ! D126  D(35,23,24,34)          1.2653         calculate D2E/DX2 analytically  !
 ! D127  D(23,24,25,26)          6.0489         calculate D2E/DX2 analytically  !
 ! D128  D(23,24,25,29)       -166.3347         calculate D2E/DX2 analytically  !
 ! D129  D(34,24,25,26)       -176.7537         calculate D2E/DX2 analytically  !
 ! D130  D(34,24,25,29)         10.8628         calculate D2E/DX2 analytically  !
 ! D131  D(24,25,26,17)         -7.7339         calculate D2E/DX2 analytically  !
 ! D132  D(24,25,26,27)        177.9139         calculate D2E/DX2 analytically  !
 ! D133  D(29,25,26,17)        164.4887         calculate D2E/DX2 analytically  !
 ! D134  D(29,25,26,27)         -9.8635         calculate D2E/DX2 analytically  !
 ! D135  D(24,25,29,30)        164.0482         calculate D2E/DX2 analytically  !
 ! D136  D(24,25,29,33)         -9.4043         calculate D2E/DX2 analytically  !
 ! D137  D(26,25,29,30)         -8.2992         calculate D2E/DX2 analytically  !
 ! D138  D(26,25,29,33)        178.2484         calculate D2E/DX2 analytically  !
 ! D139  D(17,26,27,20)         39.3525         calculate D2E/DX2 analytically  !
 ! D140  D(17,26,27,28)       -160.8846         calculate D2E/DX2 analytically  !
 ! D141  D(17,26,27,32)        -85.2548         calculate D2E/DX2 analytically  !
 ! D142  D(25,26,27,20)       -146.7771         calculate D2E/DX2 analytically  !
 ! D143  D(25,26,27,28)         12.9859         calculate D2E/DX2 analytically  !
 ! D144  D(25,26,27,32)         88.6156         calculate D2E/DX2 analytically  !
 ! D145  D(20,27,28,30)        163.4626         calculate D2E/DX2 analytically  !
 ! D146  D(26,27,28,30)          1.4675         calculate D2E/DX2 analytically  !
 ! D147  D(32,27,28,30)       -101.6806         calculate D2E/DX2 analytically  !
 ! D148  D(27,28,30,29)        -19.9808         calculate D2E/DX2 analytically  !
 ! D149  D(27,28,30,31)        169.2125         calculate D2E/DX2 analytically  !
 ! D150  D(25,29,30,28)         23.8705         calculate D2E/DX2 analytically  !
 ! D151  D(25,29,30,31)       -165.3953         calculate D2E/DX2 analytically  !
 ! D152  D(33,29,30,28)       -162.903          calculate D2E/DX2 analytically  !
 ! D153  D(33,29,30,31)          7.8312         calculate D2E/DX2 analytically  !
 --------------------------------------------------------------------------------
 Trust Radius=3.00D-01 FncErr=1.00D-07 GrdErr=1.00D-06 EigMax=2.50D+02 EigMin=1.00D-04
 Number of steps in this run=    264 maximum allowed number of steps=    264.
 Search for a saddle point of order  1.
 GradGradGradGradGradGradGradGradGradGradGradGradGradGradGradGradGradGrad

                          Input orientation:                          
 ---------------------------------------------------------------------
 Center     Atomic      Atomic             Coordinates (Angstroms)
 Number     Number       Type             X           Y           Z
 ---------------------------------------------------------------------
      1          6           0        1.539735   -2.803976    0.006082
      2          6           0        1.396770   -1.459673    0.353581
      3          6           0        2.498180   -0.593373    0.438033
      4          6           0        3.797606   -0.950161    0.169937
      5          6           0        2.914938   -3.242184   -0.145417
      6          6           0        3.982995   -2.367325   -0.073300
      7          6           0        2.010658    0.725894    0.458677
      8          6           0        2.843857    1.815553    0.188399
      9          6           0        4.249633    1.478448    0.044685
     10          6           0        4.703987    0.173625    0.034048
     11          6           0        0.610002    0.704155    0.403408
     12          6           0       -0.077217    1.880679    0.103012
     13          6           0        0.749238    3.061746   -0.137378
     14          6           0        2.166454    3.016953   -0.078657
     15          6           0        0.329338   -3.463559   -0.279732
     16          6           0       -0.901627   -2.766931   -0.255772
     17          6           0       -0.990901   -1.342470    0.045577
     18          6           0        0.212984   -0.704112    0.335335
     19          6           0        0.083911    4.258027   -0.532748
     20          6           0       -1.499370    1.935171   -0.047319
     21          6           0       -2.058921    3.117757   -0.480731
     22          6           0       -1.271674    4.272674   -0.722185
     23          6           0       -2.118476   -3.446628   -0.579974
     24          6           0       -3.313687   -2.800584   -0.551558
     25          6           0       -3.414603   -1.414954   -0.185166
     26          6           0       -2.251603   -0.653066    0.033651
     27          6           0       -2.452888    0.798950    0.365585
     28          6           0       -3.770208    1.262528    0.717814
     29          6           0       -4.704859   -0.877918    0.111019
     30          6           0       -4.829304    0.318649    0.769081
     31          1           0       -5.783234    0.609275    1.199605
     32          1           0       -2.579315    0.973773    1.567371
     33          1           0       -5.573449   -1.496563   -0.103380
     34          1           0       -4.230700   -3.339421   -0.763767
     35          1           0       -2.073568   -4.500083   -0.835173
     36          1           0        0.318657   -4.510719   -0.565799
     37          1           0        3.112138   -4.284528   -0.374033
     38          1           0        4.981834   -2.752872   -0.251176
     39          1           0        5.760800   -0.007657   -0.133353
     40          1           0        4.965812    2.278131   -0.114967
     41          1           0        2.714569    3.921154   -0.325155
     42          1           0        0.674233    5.151375   -0.707631
     43          1           0       -1.763973    5.181022   -1.050888
     44          1           0       -3.133491    3.173754   -0.589583
 ---------------------------------------------------------------------
                    Distance matrix (angstroms):
                    1          2          3          4          5
     1  C    0.000000
     2  C    1.395831   0.000000
     3  C    2.447849   1.403820   0.000000
     4  C    2.925997   2.461167   1.373929   0.000000
     5  C    1.451262   2.393988   2.744139   2.476271   0.000000
     6  C    2.483241   2.773918   2.369186   1.449789   1.382507
     7  C    3.589790   2.272577   1.406616   2.466924   4.114401
     8  C    4.803543   3.584474   2.446372   2.925603   5.069240
     9  C    5.067957   4.106921   2.741305   2.473491   4.909370
    10  C    4.345041   3.702357   2.370037   1.450134   3.860137
    11  C    3.650925   2.302963   2.291287   3.598901   4.602991
    12  C    4.956806   3.659696   3.586899   4.799207   5.937881
    13  C    5.920487   4.593862   4.092651   5.048008   6.665572
    14  C    5.855183   4.562831   3.662167   4.296562   6.304084
    15  C    1.407764   2.357129   3.668382   4.306768   2.598533
    16  C    2.455644   2.713460   4.094436   5.056152   3.847624
    17  C    2.922615   2.410306   3.590105   4.806160   4.347525
    18  C    2.505615   1.404477   2.290181   3.596861   3.738113
    19  C    7.230605   5.933066   5.505197   6.435101   8.026077
    20  C    5.630144   4.480325   4.754946   6.035751   6.804465
    21  C    6.946527   5.795752   5.948427   7.160324   8.080876
    22  C    7.649403   6.413865   6.263890   7.332904   8.621686
    23  C    3.760182   4.144450   5.521858   6.464885   5.056273
    24  C    4.885354   4.980535   6.295146   7.383435   6.257454
    25  C    5.148924   4.841648   6.002031   7.235889   6.588129
    26  C    4.359062   3.750146   4.767340   6.058033   5.781760
    27  C    5.389931   4.463338   5.143626   6.493562   6.738356
    28  C    6.725958   5.851556   6.543343   7.903668   8.107328
    29  C    6.535722   6.134097   7.216071   8.502976   7.982282
    30  C    7.134256   6.488379   7.391441   8.740276   8.572580
    31  H    8.167047   7.519891   8.402867   9.761381   9.607342
    32  H    5.803067   4.817074   5.432523   6.805841   7.134056
    33  H    7.233166   6.985279   8.140029   9.390949   8.666122
    34  H    5.846135   6.037412   7.366338   8.428171   7.173002
    35  H    4.079270   4.764502   6.146895   6.934182   5.190690
    36  H    2.175098   3.363996   4.593865   5.032094   2.920030
    37  H    2.192937   3.384038   3.828971   3.447285   1.085189
    38  H    3.452077   3.858857   3.362586   2.197612   2.126657
    39  H    5.065198   4.624955   3.363664   2.198734   4.308276
    40  H    6.130291   5.189294   3.826297   3.444959   5.889048
    41  H    6.835007   5.581270   4.583692   5.014758   7.168393
    42  H    8.034058   6.734552   6.135264   6.910450   8.705669
    43  H    8.705852   7.487433   7.329834   8.367376   9.677938
    44  H    7.610986   6.548394   6.852953   8.100843   8.828649
                    6          7          8          9         10
     6  C    0.000000
     7  C    3.706901   0.000000
     8  C    4.343108   1.398080   0.000000
     9  C    3.856810   2.398069   1.452756   0.000000
    10  C    2.643441   2.781965   2.485927   1.381707   0.000000
    11  C    4.586755   1.401915   2.504305   3.738332   4.144708
    12  C    5.878941   2.412312   2.923047   4.345897   5.077273
    13  C    6.319502   2.720784   2.458975   3.846134   4.900068
    14  C    5.682455   2.358379   1.404833   2.592652   3.812649
    15  C    3.820151   4.574232   5.866087   6.316438   5.697817
    16  C    4.904336   4.603441   5.935074   6.681990   6.336701
    17  C    5.079774   3.668533   4.969796   5.951536   5.893253
    18  C    4.140802   2.300383   3.645791   4.598106   4.585881
    19  C    7.701249   4.143820   3.755401   5.041104   6.192633
    20  C    6.969108   3.746823   4.351263   5.767850   6.449132
    21  C    8.170488   4.813000   5.116708   6.539209   7.393905
    22  C    8.492478   4.974715   4.878955   6.235433   7.285782
    23  C    6.216877   5.961416   7.273630   8.074614   7.747855
    24  C    7.325163   6.465700   7.731210   8.710306   8.571578
    25  C    7.459489   5.867812   7.052946   8.195433   8.275454
    26  C    6.466864   4.499894   5.664074   6.841750   7.004545
    27  C    7.185994   4.465114   5.396331   6.744515   7.191788
    28  C    8.597316   5.811501   6.658226   8.050936   8.571186
    29  C    8.816525   6.913121   8.015228   9.259578   9.467737
    30  C    9.250982   6.859102   7.839344   9.181339   9.562685
    31  H   10.288813   7.829900   8.769512  10.136455  10.560782
    32  H    7.544445   4.728477   5.658706   7.014827   7.485840
    33  H    9.596080   7.922998   9.050209  10.264772  10.413170
    34  H    8.299789   7.548225   8.805097   9.786803   9.633620
    35  H    6.466147   6.757646   8.069450   8.746419   8.278547
    36  H    4.273648   5.597726   6.853260   7.189950   6.444689
    37  H    2.127087   5.197210   6.131826   5.889067   4.751383
    38  H    1.085341   4.629643   5.063070   4.304384   2.953462
    39  H    2.955035   3.866803   3.454877   2.126930   1.085237
    40  H    4.748466   3.386952   2.192875   1.085308   2.125959
    41  H    6.420070   3.364457   2.171177   2.908611   4.258026
    42  H    8.239001   4.767724   4.078952   5.180720   6.447247
    43  H    9.537340   6.031152   5.839033   7.146523   8.251401
    44  H    9.034073   5.792507   6.178888   7.601768   8.415210
                   11         12         13         14         15
    11  C    0.000000
    12  C    1.395248   0.000000
    13  C    2.422823   1.461415   0.000000
    14  C    2.829128   2.521544   1.419139   0.000000
    15  C    4.232646   5.373329   6.540351   6.738877   0.000000
    16  C    3.842913   4.733778   6.059113   6.549642   1.414616
    17  C    2.622901   3.350643   4.739058   5.384134   2.519499
    18  C    1.464743   2.611386   3.833107   4.223004   2.829557
    19  C    3.712569   2.466158   1.424804   2.466465   7.729628
    20  C    2.483547   1.431114   2.516649   3.822238   5.704776
    21  C    3.705446   2.407959   2.829626   4.245659   7.004135
    22  C    4.188316   2.798092   2.427433   3.716408   7.912541
    23  C    5.063658   5.745730   7.125911   7.771089   2.466217
    24  C    5.347008   5.728649   7.144636   8.006205   3.712823
    25  C    4.586337   4.699190   6.113976   7.127506   4.268819
    26  C    3.188660   3.339555   4.778507   5.744639   3.828621
    27  C    3.064590   2.623527   3.953078   5.143463   5.130906
    28  C    4.426835   3.794506   4.939021   6.241501   6.335398
    29  C    5.553035   5.387485   6.732743   7.900692   5.672862
    30  C    5.465197   5.046377   6.282227   7.545869   6.482028
    31  H    6.443322   5.947908   7.104599   8.404071   7.492660
    32  H    3.405767   3.037650   4.283114   5.422759   5.618004
    33  H    6.582937   6.454218   7.794595   8.959829   6.224393
    34  H    6.414452   6.726973   8.134315   9.044139   4.587335
    35  H    5.984958   6.751276   8.101630   8.663483   2.675230
    36  H    5.312170   6.438478   7.596787   7.766435   1.085584
    37  H    5.634896   6.957682   7.720560   7.368391   2.902905
    38  H    5.611812   6.869443   7.192885   6.422383   4.706550
    39  H    5.227381   6.140368   5.876819   4.697934   6.439368
    40  H    4.660386   5.063361   4.288829   2.895442   7.381805
    41  H    3.912683   3.484384   2.153223   1.085712   7.760501
    42  H    4.584354   3.452430   2.167340   2.679196   8.632447
    43  H    5.271914   3.881867   3.412046   4.590935   8.927789
    44  H    4.593331   3.390065   3.910578   5.326824   7.492738
                   16         17         18         19         20
    16  C    0.000000
    17  C    1.458722   0.000000
    18  C    2.418054   1.393126   0.000000
    19  C    7.099157   5.731950   5.039152   0.000000
    20  C    4.744524   3.318147   3.169289   2.852732   0.000000
    21  C    6.001624   4.616415   4.520420   2.427890   1.378206
    22  C    7.064737   5.674340   5.300090   1.368836   2.443606
    23  C    1.431019   2.467837   3.714147   8.013392   5.443416
    24  C    2.430361   2.806778   4.197521   7.833774   5.096408
    25  C    2.854448   2.435740   3.733042   6.674064   3.861406
    26  C    2.524802   1.436938   2.483507   5.467565   2.696550
    27  C    3.938020   2.612564   3.060553   4.382644   1.539703
    28  C    5.041147   3.868135   4.458675   5.038963   2.488892
    29  C    4.262333   3.743471   4.926023   7.051573   4.267751
    30  C    5.098801   4.244539   5.163220   6.430641   3.790529
    31  H    6.111217   5.301655   6.198918   7.123049   4.654494
    32  H    4.486798   3.194354   3.482836   4.721186   2.167439
    33  H    4.843860   4.587557   5.856898   8.081175   5.327106
    34  H    3.415923   3.890906   5.281970   8.740163   5.982874
    35  H    2.170937   3.452305   4.583427   9.025002   6.508680
    36  H    2.150815   3.482316   3.913242   8.771950   6.717406
    37  H    4.292714   5.066232   4.661295   9.064800   7.749671
    38  H    5.883480   6.144173   5.223346   8.556964   8.001582
    39  H    7.212247   6.884708   5.610970   7.112148   7.516119
    40  H    7.739465   6.972586   5.629025   5.284646   6.474626
    41  H    7.603431   6.447766   5.299742   2.660252   4.666755
    42  H    8.086228   6.746111   5.965506   1.084958   3.937579
    43  H    8.034041   6.660017   6.361193   2.129569   3.407743
    44  H    6.354871   5.038889   5.205018   3.395667   2.120964
                   21         22         23         24         25
    21  C    0.000000
    22  C    1.418411   0.000000
    23  C    6.565405   7.766912   0.000000
    24  C    6.050307   7.364096   1.358937   0.000000
    25  C    4.740327   6.101610   2.442031   1.436801   0.000000
    26  C    3.810620   5.078825   2.863258   2.466237   1.407453
    27  C    2.499665   3.826914   4.362436   3.812974   2.475802
    28  C    2.794081   4.168603   5.156416   4.281191   2.847936
    29  C    4.828724   6.245765   3.710137   2.463942   1.428599
    30  C    4.131835   5.524031   4.831754   3.710902   2.432559
    31  H    4.794426   6.121106   5.748713   4.559865   3.409620
    32  H    3.010349   4.223120   4.935930   4.390323   3.078166
    33  H    5.812594   7.223038   3.995840   2.647236   2.161935
    34  H    6.818496   8.167102   2.122914   1.084569   2.168955
    35  H    7.626095   8.810055   1.084855   2.122882   3.426209
    36  H    7.990855   8.927575   2.659343   4.014809   4.864758
    37  H    9.030230   9.621056   5.301303   6.597335   7.132214
    38  H    9.170017   9.417351   7.141695   8.301095   8.502619
    39  H    8.428340   8.253705   8.608657   9.503770   9.282844
    40  H    7.084182   6.576712   9.120101   9.722863   9.158338
    41  H    4.843125   4.021360   8.815184   9.031771   8.127755
    42  H    3.414267   2.135154   9.041083   8.897276   7.752950
    43  H    2.160818   1.084205   8.647761   8.145979   6.854265
    44  H    1.081520   2.166003   6.697746   5.977176   4.615064
                   26         27         28         29         30
    26  C    0.000000
    27  C    1.503012   0.000000
    28  C    2.538452   1.440244   0.000000
    29  C    2.464753   2.819231   2.413148   0.000000
    30  C    2.851251   2.457814   1.419585   1.371242   0.000000
    31  H    3.927515   3.438426   2.170515   2.135335   1.086185
    32  H    2.259712   1.220998   1.491091   3.172957   2.475663
    33  H    3.430004   3.902206   3.396855   1.087721   2.147076
    34  H    3.430627   4.643508   4.856446   2.655009   4.011163
    35  H    3.947922   5.446600   6.204679   4.575921   5.778225
    36  H    4.674084   6.061479   7.190053   6.236268   7.183746
    37  H    6.490257   7.573526   8.906663   8.540826   9.249997
    38  H    7.537435   8.262622   9.677842   9.873128  10.331195
    39  H    8.040090   8.268266   9.652874  10.504622  10.633493
    40  H    7.791347   7.579975   8.834196  10.175146  10.028231
    41  H    6.761294   6.076832   7.085789   8.846991   8.431217
    42  H    6.542289   5.465737   6.075202   8.121403   7.471602
    43  H    5.954040   4.656560   4.744247   6.834442   6.029197
    44  H    3.976267   2.648634   2.401558   4.401828   3.587948
                   31         32         33         34         35
    31  H    0.000000
    32  H    3.245490   0.000000
    33  H    2.485223   4.225968   0.000000
    34  H    4.675189   5.173482   2.373860   0.000000
    35  H    6.633814   5.999258   4.669670   2.450603   0.000000
    36  H    8.158680   6.559597   6.634447   4.701891   2.407367
    37  H   10.273913   7.988205   9.126085   7.413662   5.210630
    38  H   11.370817   8.623571  10.630812   9.245408   7.291947
    39  H   11.637100   8.568149  11.431664  10.551215   9.058243
    40  H   10.956969   7.839678  11.194841  10.796002   9.798763
    41  H    9.246950   6.347749   9.904145  10.057092   9.700701
    42  H    8.122013   5.763121   9.142961   9.805873  10.035802
    43  H    6.489996   5.022052   7.745968   8.874972   9.688456
    44  H    4.098644   3.130412   5.291658   6.607243   7.750582
                   36         37         38         39         40
    36  H    0.000000
    37  H    2.809177   0.000000
    38  H    4.993419   2.420088   0.000000
    39  H    7.076828   5.036364   2.856024   0.000000
    40  H    8.239404   6.824347   5.032872   2.420159   0.000000
    41  H    8.768967   8.215453   7.049013   4.975125   2.794960
    42  H    9.669675   9.751458   9.013373   7.267639   5.198503
    43  H    9.924843  10.669172  10.444718   9.186211   7.388689
    44  H    8.424311   9.730381  10.054746   9.457163   8.162482
                   41         42         43         44
    41  H    0.000000
    42  H    2.413028   0.000000
    43  H    4.708640   2.462428   0.000000
    44  H    5.901554   4.292282   2.473359   0.000000
 Stoichiometry    C30H14
 Framework group  C1[X(C30H14)]
 Deg. of freedom   126
 Full point group                 C1      NOp   1
 Largest Abelian subgroup         C1      NOp   1
 Largest concise Abelian subgroup C1      NOp   1
                         Standard orientation:                         
 ---------------------------------------------------------------------
 Center     Atomic      Atomic             Coordinates (Angstroms)
 Number     Number       Type             X           Y           Z
 ---------------------------------------------------------------------
      1          6           0        1.539735   -2.803976    0.006082
      2          6           0        1.396770   -1.459673    0.353581
      3          6           0        2.498180   -0.593373    0.438033
      4          6           0        3.797606   -0.950161    0.169937
      5          6           0        2.914938   -3.242184   -0.145417
      6          6           0        3.982995   -2.367325   -0.073300
      7          6           0        2.010658    0.725894    0.458677
      8          6           0        2.843857    1.815553    0.188399
      9          6           0        4.249633    1.478448    0.044685
     10          6           0        4.703987    0.173625    0.034048
     11          6           0        0.610002    0.704155    0.403408
     12          6           0       -0.077217    1.880679    0.103012
     13          6           0        0.749238    3.061746   -0.137378
     14          6           0        2.166454    3.016953   -0.078657
     15          6           0        0.329338   -3.463559   -0.279732
     16          6           0       -0.901627   -2.766931   -0.255772
     17          6           0       -0.990901   -1.342470    0.045577
     18          6           0        0.212984   -0.704112    0.335335
     19          6           0        0.083911    4.258027   -0.532748
     20          6           0       -1.499370    1.935171   -0.047319
     21          6           0       -2.058921    3.117757   -0.480731
     22          6           0       -1.271674    4.272674   -0.722185
     23          6           0       -2.118476   -3.446628   -0.579974
     24          6           0       -3.313687   -2.800584   -0.551558
     25          6           0       -3.414603   -1.414954   -0.185166
     26          6           0       -2.251603   -0.653066    0.033651
     27          6           0       -2.452888    0.798950    0.365585
     28          6           0       -3.770208    1.262528    0.717814
     29          6           0       -4.704859   -0.877918    0.111019
     30          6           0       -4.829304    0.318649    0.769081
     31          1           0       -5.783234    0.609275    1.199605
     32          1           0       -2.579315    0.973773    1.567371
     33          1           0       -5.573449   -1.496563   -0.103380
     34          1           0       -4.230700   -3.339421   -0.763767
     35          1           0       -2.073568   -4.500083   -0.835173
     36          1           0        0.318657   -4.510719   -0.565799
     37          1           0        3.112138   -4.284528   -0.374033
     38          1           0        4.981834   -2.752872   -0.251176
     39          1           0        5.760800   -0.007658   -0.133353
     40          1           0        4.965812    2.278131   -0.114967
     41          1           0        2.714569    3.921154   -0.325155
     42          1           0        0.674233    5.151375   -0.707631
     43          1           0       -1.763973    5.181022   -1.050888
     44          1           0       -3.133491    3.173754   -0.589583
 ---------------------------------------------------------------------
 Rotational constants (GHZ):           0.2455039           0.1774835           0.1054348
 Standard basis: 6-311+G(d,p) (5D, 7F)
 There are   774 symmetry adapted cartesian basis functions of A   symmetry.
 There are   744 symmetry adapted basis functions of A   symmetry.
   744 basis functions,  1192 primitive gaussians,   774 cartesian basis functions
    97 alpha electrons       97 beta electrons
       nuclear repulsion energy      2588.8032469026 Hartrees.
 NAtoms=   44 NActive=   44 NUniq=   44 SFac= 1.00D+00 NAtFMM=   60 NAOKFM=F Big=F
 Integral buffers will be    131072 words long.
 Raffenetti 2 integral format.
 Two-electron integral symmetry is turned on.
 One-electron integrals computed using PRISM.
 NBasis=   744 RedAO= T EigKep=  1.44D-06  NBF=   744
 NBsUse=   722 1.00D-06 EigRej=  9.24D-07 NBFU=   722
 ExpMin= 4.38D-02 ExpMax= 4.56D+03 ExpMxC= 6.82D+02 IAcc=2 IRadAn=         4 AccDes= 0.00D+00
 Harris functional with IExCor=  402 and IRadAn=       4 diagonalized for initial guess.
 HarFok:  IExCor=  402 AccDes= 0.00D+00 IRadAn=         4 IDoV= 1 UseB2=F ITyADJ=14
 ICtDFT=  3500011 ScaDFX=  1.000000  1.000000  1.000000  1.000000
 FoFCou: FMM=F IPFlag=           0 FMFlag=      100000 FMFlg1=           0
         NFxFlg=           0 DoJE=T BraDBF=F KetDBF=T FulRan=T
         wScrn=  0.000000 ICntrl=       500 IOpCl=  0 I1Cent=   200000004 NGrid=           0
         NMat0=    1 NMatS0=      1 NMatT0=    0 NMatD0=    1 NMtDS0=    0 NMtDT0=    0
 Petite list used in FoFCou.
 Requested convergence on RMS density matrix=1.00D-08 within 128 cycles.
 Requested convergence on MAX density matrix=1.00D-06.
 Requested convergence on             energy=1.00D-06.
 No special actions if energy rises.
 SCF Done:  E(RB3LYP) =  -1151.78514518     A.U. after   17 cycles
            NFock= 17  Conv=0.82D-08     -V/T= 2.0044
 DoSCS=F DFT=T ScalE2(SS,OS)=  1.000000  1.000000
 Range of M.O.s used for correlation:     1   722
 NBasis=   744 NAE=    97 NBE=    97 NFC=     0 NFV=     0
 NROrb=    722 NOA=    97 NOB=    97 NVA=   625 NVB=   625

 **** Warning!!: The largest alpha MO coefficient is  0.11778435D+03


 **** Warning!!: The smallest alpha delta epsilon is  0.94530648D-01

 Symmetrizing basis deriv contribution to polar:
 IMax=3 JMax=2 DiffMx= 0.00D+00
 G2DrvN: will do    45 centers at a time, making    1 passes.
 Calling FoFCou, ICntrl=  3107 FMM=F I1Cent=   0 AccDes= 0.00D+00.
 End of G2Drv F.D. properties file   721 does not exist.
 End of G2Drv F.D. properties file   722 does not exist.
 End of G2Drv F.D. properties file   788 does not exist.
          IDoAtm=11111111111111111111111111111111111111111111
          Differentiating once with respect to nuclear coordinates.
 CalDSu exits because no D1Ps are significant.
          There are   135 degrees of freedom in the 1st order CPHF.  IDoFFX=6 NUNeed=     0.
    129 vectors produced by pass  0 Test12= 6.06D-14 1.00D-09 XBig12= 2.85D-01 1.54D-01.
 AX will form   129 AO Fock derivatives at one time.
    129 vectors produced by pass  1 Test12= 6.06D-14 1.00D-09 XBig12= 6.97D-02 4.60D-02.
    129 vectors produced by pass  2 Test12= 6.06D-14 1.00D-09 XBig12= 9.45D-04 3.99D-03.
    129 vectors produced by pass  3 Test12= 6.06D-14 1.00D-09 XBig12= 6.69D-06 2.33D-04.
    129 vectors produced by pass  4 Test12= 6.06D-14 1.00D-09 XBig12= 2.28D-08 1.17D-05.
    129 vectors produced by pass  5 Test12= 6.06D-14 1.00D-09 XBig12= 7.95D-11 5.54D-07.
    105 vectors produced by pass  6 Test12= 6.06D-14 1.00D-09 XBig12= 1.04D-11 2.51D-07.
     84 vectors produced by pass  7 Test12= 6.06D-14 1.00D-09 XBig12= 1.31D-12 7.60D-08.
     34 vectors produced by pass  8 Test12= 6.06D-14 1.00D-09 XBig12= 3.85D-14 1.34D-08.
      3 vectors produced by pass  9 Test12= 6.06D-14 1.00D-09 XBig12= 6.00D-16 1.56D-09.
      2 vectors produced by pass 10 Test12= 6.06D-14 1.00D-09 XBig12= 3.81D-16 1.07D-09.
      1 vectors produced by pass 11 Test12= 6.06D-14 1.00D-09 XBig12= 5.59D-16 1.44D-09.
 InvSVY:  IOpt=1 It=  1 EMax= 8.88D-16
 Solved reduced A of dimension  1003 with   135 vectors.
 End of Minotr F.D. properties file   721 does not exist.
 End of Minotr F.D. properties file   722 does not exist.
 End of Minotr F.D. properties file   788 does not exist.

 **********************************************************************

            Population analysis using the SCF Density.

 **********************************************************************

 Orbital symmetries:
       Occupied  (A) (A) (A) (A) (A) (A) (A) (A) (A) (A) (A) (A)
                 (A) (A) (A) (A) (A) (A) (A) (A) (A) (A) (A) (A)
                 (A) (A) (A) (A) (A) (A) (A) (A) (A) (A) (A) (A)
                 (A) (A) (A) (A) (A) (A) (A) (A) (A) (A) (A) (A)
                 (A) (A) (A) (A) (A) (A) (A) (A) (A) (A) (A) (A)
                 (A) (A) (A) (A) (A) (A) (A) (A) (A) (A) (A) (A)
                 (A) (A) (A) (A) (A) (A) (A) (A) (A) (A) (A) (A)
                 (A) (A) (A) (A) (A) (A) (A) (A) (A) (A) (A) (A)
                 (A)
       Virtual   (A) (A) (A) (A) (A) (A) (A) (A) (A) (A) (A) (A)
                 (A) (A) (A) (A) (A) (A) (A) (A) (A) (A) (A) (A)
                 (A) (A) (A) (A) (A) (A) (A) (A) (A) (A) (A) (A)
                 (A) (A) (A) (A) (A) (A) (A) (A) (A) (A) (A) (A)
                 (A) (A) (A) (A) (A) (A) (A) (A) (A) (A) (A) (A)
                 (A) (A) (A) (A) (A) (A) (A) (A) (A) (A) (A) (A)
                 (A) (A) (A) (A) (A) (A) (A) (A) (A) (A) (A) (A)
                 (A) (A) (A) (A) (A) (A) (A) (A) (A) (A) (A) (A)
                 (A) (A) (A) (A) (A) (A) (A) (A) (A) (A) (A) (A)
                 (A) (A) (A) (A) (A) (A) (A) (A) (A) (A) (A) (A)
                 (A) (A) (A) (A) (A) (A) (A) (A) (A) (A) (A) (A)
                 (A) (A) (A) (A) (A) (A) (A) (A) (A) (A) (A) (A)
                 (A) (A) (A) (A) (A) (A) (A) (A) (A) (A) (A) (A)
                 (A) (A) (A) (A) (A) (A) (A) (A) (A) (A) (A) (A)
                 (A) (A) (A) (A) (A) (A) (A) (A) (A) (A) (A) (A)
                 (A) (A) (A) (A) (A) (A) (A) (A) (A) (A) (A) (A)
                 (A) (A) (A) (A) (A) (A) (A) (A) (A) (A) (A) (A)
                 (A) (A) (A) (A) (A) (A) (A) (A) (A) (A) (A) (A)
                 (A) (A) (A) (A) (A) (A) (A) (A) (A) (A) (A) (A)
                 (A) (A) (A) (A) (A) (A) (A) (A) (A) (A) (A) (A)
                 (A) (A) (A) (A) (A) (A) (A) (A) (A) (A) (A) (A)
                 (A) (A) (A) (A) (A) (A) (A) (A) (A) (A) (A) (A)
                 (A) (A) (A) (A) (A) (A) (A) (A) (A) (A) (A) (A)
                 (A) (A) (A) (A) (A) (A) (A) (A) (A) (A) (A) (A)
                 (A) (A) (A) (A) (A) (A) (A) (A) (A) (A) (A) (A)
                 (A) (A) (A) (A) (A) (A) (A) (A) (A) (A) (A) (A)
                 (A) (A) (A) (A) (A) (A) (A) (A) (A) (A) (A) (A)
                 (A) (A) (A) (A) (A) (A) (A) (A) (A) (A) (A) (A)
                 (A) (A) (A) (A) (A) (A) (A) (A) (A) (A) (A) (A)
                 (A) (A) (A) (A) (A) (A) (A) (A) (A) (A) (A) (A)
                 (A) (A) (A) (A) (A) (A) (A) (A) (A) (A) (A) (A)
                 (A) (A) (A) (A) (A) (A) (A) (A) (A) (A) (A) (A)
                 (A) (A) (A) (A) (A) (A) (A) (A) (A) (A) (A) (A)
                 (A) (A) (A) (A) (A) (A) (A) (A) (A) (A) (A) (A)
                 (A) (A) (A) (A) (A) (A) (A) (A) (A) (A) (A) (A)
                 (A) (A) (A) (A) (A) (A) (A) (A) (A) (A) (A) (A)
                 (A) (A) (A) (A) (A) (A) (A) (A) (A) (A) (A) (A)
                 (A) (A) (A) (A) (A) (A) (A) (A) (A) (A) (A) (A)
                 (A) (A) (A) (A) (A) (A) (A) (A) (A) (A) (A) (A)
                 (A) (A) (A) (A) (A) (A) (A) (A) (A) (A) (A) (A)
                 (A) (A) (A) (A) (A) (A) (A) (A) (A) (A) (A) (A)
                 (A) (A) (A) (A) (A) (A) (A) (A) (A) (A) (A) (A)
                 (A) (A) (A) (A) (A) (A) (A) (A) (A) (A) (A) (A)
                 (A) (A) (A) (A) (A) (A) (A) (A) (A) (A) (A) (A)
                 (A) (A) (A) (A) (A) (A) (A) (A) (A) (A) (A) (A)
                 (A) (A) (A) (A) (A) (A) (A) (A) (A) (A) (A) (A)
                 (A) (A) (A) (A) (A) (A) (A) (A) (A) (A) (A) (A)
                 (A) (A) (A) (A) (A) (A) (A) (A) (A) (A) (A) (A)
                 (A) (A) (A) (A) (A) (A) (A) (A) (A) (A) (A) (A)
                 (A) (A) (A) (A) (A) (A) (A) (A) (A) (A) (A) (A)
                 (A) (A) (A) (A) (A) (A) (A) (A) (A) (A) (A) (A)
                 (A) (A) (A) (A) (A) (A) (A) (A) (A) (A) (A) (A)
                 (A)
 The electronic state is 1-A.
 Alpha  occ. eigenvalues --  -10.22680 -10.21237 -10.20715 -10.20594 -10.20587
 Alpha  occ. eigenvalues --  -10.20236 -10.20143 -10.20138 -10.19945 -10.19926
 Alpha  occ. eigenvalues --  -10.19737 -10.19675 -10.19640 -10.19631 -10.19619
 Alpha  occ. eigenvalues --  -10.19581 -10.19504 -10.19405 -10.19303 -10.19149
 Alpha  occ. eigenvalues --  -10.19120 -10.18680 -10.18371 -10.18089 -10.17950
 Alpha  occ. eigenvalues --  -10.17725 -10.17587 -10.17340 -10.17289 -10.17164
 Alpha  occ. eigenvalues --   -0.92804  -0.89853  -0.88499  -0.85917  -0.84796
 Alpha  occ. eigenvalues --   -0.83982  -0.80985  -0.80621  -0.78582  -0.77990
 Alpha  occ. eigenvalues --   -0.75812  -0.75428  -0.73186  -0.72047  -0.71301
 Alpha  occ. eigenvalues --   -0.67324  -0.65392  -0.64540  -0.63488  -0.62568
 Alpha  occ. eigenvalues --   -0.60919  -0.59564  -0.58602  -0.57164  -0.56267
 Alpha  occ. eigenvalues --   -0.53226  -0.52416  -0.51561  -0.50518  -0.50309
 Alpha  occ. eigenvalues --   -0.49143  -0.48186  -0.47327  -0.46426  -0.46004
 Alpha  occ. eigenvalues --   -0.44904  -0.44730  -0.44314  -0.43883  -0.43485
 Alpha  occ. eigenvalues --   -0.42933  -0.42800  -0.41412  -0.40942  -0.40754
 Alpha  occ. eigenvalues --   -0.40127  -0.39602  -0.39341  -0.38025  -0.36787
 Alpha  occ. eigenvalues --   -0.36016  -0.35704  -0.35387  -0.34932  -0.34519
 Alpha  occ. eigenvalues --   -0.34033  -0.32925  -0.32346  -0.31241  -0.28973
 Alpha  occ. eigenvalues --   -0.28391  -0.27082  -0.26042  -0.23394  -0.22125
 Alpha  occ. eigenvalues --   -0.20591  -0.20064
 Alpha virt. eigenvalues --   -0.10611  -0.08267  -0.05066  -0.04083  -0.03354
 Alpha virt. eigenvalues --   -0.02310  -0.00309   0.00357   0.00473   0.00704
 Alpha virt. eigenvalues --    0.01045   0.01519   0.01560   0.02119   0.02926
 Alpha virt. eigenvalues --    0.03188   0.03362   0.03629   0.03957   0.04171
 Alpha virt. eigenvalues --    0.04697   0.04939   0.05422   0.05504   0.06023
 Alpha virt. eigenvalues --    0.06623   0.06791   0.07160   0.07557   0.07794
 Alpha virt. eigenvalues --    0.07841   0.08438   0.08802   0.08979   0.09226
 Alpha virt. eigenvalues --    0.09883   0.10077   0.10293   0.10628   0.10987
 Alpha virt. eigenvalues --    0.11369   0.11583   0.11872   0.12315   0.12968
 Alpha virt. eigenvalues --    0.13028   0.13464   0.14058   0.14540   0.14669
 Alpha virt. eigenvalues --    0.14821   0.14990   0.15204   0.15571   0.15841
 Alpha virt. eigenvalues --    0.16075   0.16098   0.16441   0.16616   0.16929
 Alpha virt. eigenvalues --    0.17015   0.17083   0.17462   0.17758   0.18142
 Alpha virt. eigenvalues --    0.18207   0.18361   0.18717   0.18824   0.19092
 Alpha virt. eigenvalues --    0.19373   0.19538   0.19721   0.20169   0.20280
 Alpha virt. eigenvalues --    0.20495   0.20595   0.20830   0.21183   0.21237
 Alpha virt. eigenvalues --    0.21340   0.21589   0.21806   0.22117   0.22325
 Alpha virt. eigenvalues --    0.22500   0.22852   0.23011   0.23148   0.23199
 Alpha virt. eigenvalues --    0.23546   0.24022   0.24228   0.24561   0.24613
 Alpha virt. eigenvalues --    0.24882   0.25113   0.25380   0.25425   0.25750
 Alpha virt. eigenvalues --    0.26135   0.26305   0.26586   0.26923   0.27033
 Alpha virt. eigenvalues --    0.27166   0.27301   0.27799   0.28218   0.28505
 Alpha virt. eigenvalues --    0.28785   0.28998   0.29419   0.29543   0.29938
 Alpha virt. eigenvalues --    0.30245   0.30376   0.30394   0.30909   0.30992
 Alpha virt. eigenvalues --    0.31407   0.31975   0.32140   0.32457   0.33001
 Alpha virt. eigenvalues --    0.33122   0.33409   0.33771   0.33967   0.34374
 Alpha virt. eigenvalues --    0.34651   0.34956   0.35049   0.35862   0.36518
 Alpha virt. eigenvalues --    0.36743   0.37162   0.37620   0.38138   0.38304
 Alpha virt. eigenvalues --    0.38641   0.39141   0.39722   0.40178   0.40668
 Alpha virt. eigenvalues --    0.40688   0.41867   0.42212   0.42391   0.42943
 Alpha virt. eigenvalues --    0.44171   0.45450   0.45942   0.46318   0.46829
 Alpha virt. eigenvalues --    0.47602   0.48151   0.48609   0.49762   0.50590
 Alpha virt. eigenvalues --    0.51093   0.51526   0.52079   0.52205   0.52938
 Alpha virt. eigenvalues --    0.53334   0.53436   0.53878   0.53956   0.54590
 Alpha virt. eigenvalues --    0.54999   0.55509   0.55933   0.56263   0.56968
 Alpha virt. eigenvalues --    0.57188   0.57440   0.57644   0.58146   0.58550
 Alpha virt. eigenvalues --    0.58862   0.59004   0.59636   0.60002   0.60208
 Alpha virt. eigenvalues --    0.60497   0.61126   0.61357   0.61427   0.61576
 Alpha virt. eigenvalues --    0.62481   0.62984   0.63557   0.64407   0.64984
 Alpha virt. eigenvalues --    0.65210   0.65623   0.65959   0.66364   0.67117
 Alpha virt. eigenvalues --    0.67647   0.67974   0.68322   0.68858   0.69186
 Alpha virt. eigenvalues --    0.69510   0.69709   0.70340   0.70438   0.70694
 Alpha virt. eigenvalues --    0.71034   0.71315   0.71430   0.71776   0.72049
 Alpha virt. eigenvalues --    0.72664   0.72830   0.73081   0.73259   0.73396
 Alpha virt. eigenvalues --    0.73831   0.74622   0.75301   0.75391   0.75607
 Alpha virt. eigenvalues --    0.76023   0.76332   0.77107   0.77453   0.78154
 Alpha virt. eigenvalues --    0.78463   0.79357   0.80140   0.81169   0.81680
 Alpha virt. eigenvalues --    0.82584   0.83303   0.83541   0.83994   0.84499
 Alpha virt. eigenvalues --    0.85286   0.85602   0.86600   0.86790   0.87230
 Alpha virt. eigenvalues --    0.87768   0.88216   0.88488   0.88897   0.89450
 Alpha virt. eigenvalues --    0.89833   0.90411   0.90503   0.90747   0.91210
 Alpha virt. eigenvalues --    0.91644   0.91972   0.92989   0.93270   0.93643
 Alpha virt. eigenvalues --    0.94016   0.94307   0.94504   0.95018   0.95353
 Alpha virt. eigenvalues --    0.95742   0.96191   0.96367   0.96799   0.97794
 Alpha virt. eigenvalues --    0.97962   0.99036   0.99587   0.99978   1.00105
 Alpha virt. eigenvalues --    1.01344   1.01453   1.02240   1.02526   1.03807
 Alpha virt. eigenvalues --    1.04399   1.04701   1.04806   1.05613   1.06658
 Alpha virt. eigenvalues --    1.07288   1.07729   1.08138   1.09274   1.09837
 Alpha virt. eigenvalues --    1.10409   1.10984   1.11719   1.13028   1.13568
 Alpha virt. eigenvalues --    1.14333   1.15202   1.16254   1.16918   1.17123
 Alpha virt. eigenvalues --    1.18781   1.19550   1.20414   1.22545   1.23245
 Alpha virt. eigenvalues --    1.23801   1.24735   1.26358   1.27517   1.28705
 Alpha virt. eigenvalues --    1.31188   1.31910   1.33296   1.33939   1.36384
 Alpha virt. eigenvalues --    1.36745   1.37061   1.38330   1.38686   1.39332
 Alpha virt. eigenvalues --    1.41453   1.42799   1.43516   1.44406   1.44707
 Alpha virt. eigenvalues --    1.45348   1.46819   1.47857   1.48009   1.48468
 Alpha virt. eigenvalues --    1.49284   1.49603   1.50138   1.50587   1.50994
 Alpha virt. eigenvalues --    1.51957   1.52483   1.52800   1.53279   1.53822
 Alpha virt. eigenvalues --    1.54707   1.55146   1.55553   1.56539   1.56769
 Alpha virt. eigenvalues --    1.57795   1.58144   1.58346   1.59351   1.60844
 Alpha virt. eigenvalues --    1.61493   1.61795   1.62782   1.63721   1.64172
 Alpha virt. eigenvalues --    1.65279   1.66654   1.66831   1.68536   1.68781
 Alpha virt. eigenvalues --    1.69181   1.70194   1.71476   1.71858   1.72188
 Alpha virt. eigenvalues --    1.72916   1.73875   1.74516   1.74658   1.75597
 Alpha virt. eigenvalues --    1.75739   1.76335   1.77148   1.77445   1.78594
 Alpha virt. eigenvalues --    1.79443   1.79827   1.80401   1.81893   1.82847
 Alpha virt. eigenvalues --    1.83638   1.83679   1.84725   1.85112   1.86003
 Alpha virt. eigenvalues --    1.86225   1.86594   1.87384   1.87886   1.88404
 Alpha virt. eigenvalues --    1.89184   1.89890   1.90235   1.90532   1.91522
 Alpha virt. eigenvalues --    1.92394   1.92933   1.93823   1.94287   1.94506
 Alpha virt. eigenvalues --    1.95347   1.95762   1.96033   1.97724   1.97991
 Alpha virt. eigenvalues --    1.98808   1.99449   1.99919   2.00644   2.00759
 Alpha virt. eigenvalues --    2.01759   2.03064   2.03607   2.04571   2.04933
 Alpha virt. eigenvalues --    2.05355   2.06837   2.07346   2.08309   2.09720
 Alpha virt. eigenvalues --    2.10512   2.11693   2.12292   2.13730   2.14258
 Alpha virt. eigenvalues --    2.15544   2.15791   2.16377   2.18409   2.18710
 Alpha virt. eigenvalues --    2.19564   2.19906   2.20960   2.22004   2.22578
 Alpha virt. eigenvalues --    2.23525   2.24881   2.25571   2.25901   2.27141
 Alpha virt. eigenvalues --    2.28268   2.28689   2.30164   2.30381   2.33095
 Alpha virt. eigenvalues --    2.33698   2.36292   2.37536   2.38378   2.38876
 Alpha virt. eigenvalues --    2.40239   2.41145   2.41731   2.43038   2.44259
 Alpha virt. eigenvalues --    2.45255   2.46457   2.48744   2.49145   2.51241
 Alpha virt. eigenvalues --    2.53600   2.54404   2.54887   2.56295   2.56800
 Alpha virt. eigenvalues --    2.58450   2.58731   2.59961   2.62471   2.62916
 Alpha virt. eigenvalues --    2.64496   2.65241   2.67055   2.68807   2.69583
 Alpha virt. eigenvalues --    2.70054   2.70950   2.71222   2.71339   2.71880
 Alpha virt. eigenvalues --    2.72385   2.72917   2.73877   2.74295   2.74786
 Alpha virt. eigenvalues --    2.75013   2.75419   2.75542   2.76160   2.76610
 Alpha virt. eigenvalues --    2.77278   2.77731   2.78276   2.78365   2.79300
 Alpha virt. eigenvalues --    2.79859   2.80191   2.80995   2.81207   2.82048
 Alpha virt. eigenvalues --    2.82903   2.83196   2.85201   2.86455   2.86874
 Alpha virt. eigenvalues --    2.87498   2.88134   2.89542   2.90121   2.90816
 Alpha virt. eigenvalues --    2.91601   2.93044   2.94327   2.96045   2.97501
 Alpha virt. eigenvalues --    2.97904   2.99308   3.00150   3.02890   3.03463
 Alpha virt. eigenvalues --    3.06293   3.06947   3.07879   3.11783   3.12139
 Alpha virt. eigenvalues --    3.12899   3.13964   3.14471   3.17023   3.17570
 Alpha virt. eigenvalues --    3.18566   3.18938   3.21475   3.21742   3.22495
 Alpha virt. eigenvalues --    3.23440   3.24022   3.25267   3.28122   3.29968
 Alpha virt. eigenvalues --    3.32333   3.34423   3.35001   3.37310   3.38042
 Alpha virt. eigenvalues --    3.38940   3.39608   3.40635   3.41874   3.42767
 Alpha virt. eigenvalues --    3.44312   3.44697   3.46304   3.48229   3.48628
 Alpha virt. eigenvalues --    3.50180   3.52363   3.55150   3.55734   3.58805
 Alpha virt. eigenvalues --    3.59391   3.60884   3.61647   3.62703   3.66645
 Alpha virt. eigenvalues --    3.68841   3.72639   3.80837   3.82981   3.85205
 Alpha virt. eigenvalues --    3.87479   3.93673   3.99552   4.03746   4.05145
 Alpha virt. eigenvalues --    4.06223   4.07014   4.07396   4.09212   4.14540
 Alpha virt. eigenvalues --    4.19456   4.23384   4.26789   4.31911   4.38154
 Alpha virt. eigenvalues --    4.50674   4.62486   4.70091   4.71982   4.74945
 Alpha virt. eigenvalues --    4.75321   4.80322   4.81951   4.86172   4.89393
 Alpha virt. eigenvalues --   23.38173  23.60356  23.63962  23.75044  23.80023
 Alpha virt. eigenvalues --   23.83108  23.83159  23.86242  23.88773  23.89184
 Alpha virt. eigenvalues --   23.92477  23.93614  23.94806  23.96860  23.98046
 Alpha virt. eigenvalues --   23.99318  24.01878  24.03063  24.05618  24.06472
 Alpha virt. eigenvalues --   24.08490  24.10970  24.11813  24.11874  24.12174
 Alpha virt. eigenvalues --   24.14696  24.15322  24.18816  24.18951  24.19525
          Condensed to atoms (all electrons):
               1          2          3          4          5          6
     1  C   10.526217   1.192596   0.367851   0.161476  -0.817697  -1.210082
     2  C    1.192596   7.569875   0.157918  -0.497540  -0.517931   0.642887
     3  C    0.367851   0.157918   7.844969   1.562834   0.982378  -0.683763
     4  C    0.161476  -0.497540   1.562834  10.510350  -0.449803  -1.319851
     5  C   -0.817697  -0.517931   0.982378  -0.449803   9.857480   1.663012
     6  C   -1.210082   0.642887  -0.683763  -1.319851   1.663012   8.913342
     7  C   -0.147573  -0.329708   0.142840   0.039492  -0.168421  -0.393997
     8  C   -0.049254  -0.410679   0.299250   0.777395   0.140164  -0.120294
     9  C    0.089785  -0.394836   1.234398  -0.496590  -0.110864  -0.661950
    10  C   -0.102253  -0.376572  -0.771913  -1.403715  -0.439678  -0.259254
    11  C   -0.781945  -0.014420  -1.055108  -0.342537  -0.435570  -0.057545
    12  C   -0.117665   0.091717  -0.331388  -0.213823  -0.148957  -0.004698
    13  C    0.155113  -0.516610  -0.332826   0.067884  -0.013656  -0.155623
    14  C   -0.096404  -0.105229  -0.679790  -0.519301  -0.066809   0.044867
    15  C    0.931097   0.409297  -0.476903  -0.456005  -1.031194  -0.186082
    16  C   -0.519708  -0.315631  -0.361110  -0.280696  -0.250792   0.036372
    17  C   -1.066495   0.152833  -0.229502  -0.198316  -0.665780  -0.045312
    18  C    0.160868   0.730736  -0.884481  -0.562535  -1.384847  -0.175531
    19  C    0.087831   0.093180   0.228081  -0.117603  -0.019478  -0.026835
    20  C   -0.026488  -0.368265  -0.209252  -0.026769   0.064015  -0.036123
    21  C   -0.012730  -0.139204  -0.038393   0.028017   0.029279  -0.016970
    22  C   -0.013649  -0.060219  -0.098364  -0.014320   0.000753   0.006066
    23  C   -0.856788  -0.522130  -0.092648  -0.130297  -0.123859  -0.051737
    24  C    0.006397  -0.096650  -0.046152  -0.025204  -0.177542  -0.012385
    25  C   -0.091170  -0.139072   0.039637  -0.012591   0.009466  -0.021912
    26  C   -0.916615  -0.336280  -0.326041  -0.011832  -0.070696  -0.055477
    27  C   -0.712914   0.075371  -0.210246  -0.081139  -0.136888  -0.045989
    28  C   -0.027056   0.021929  -0.052737   0.003122   0.008577  -0.010038
    29  C   -0.228858  -0.081266  -0.041592  -0.001370  -0.003005  -0.007533
    30  C   -0.010019  -0.029163   0.007431   0.002431  -0.010376   0.001345
    31  H   -0.000111   0.000013  -0.000011  -0.000000  -0.000002  -0.000001
    32  H   -0.002041   0.000443  -0.000492  -0.000052  -0.000385   0.000130
    33  H    0.000297   0.000106   0.000041   0.000000   0.000027  -0.000000
    34  H    0.001924   0.001091   0.000127   0.000009   0.000273  -0.000005
    35  H    0.047077   0.007513   0.001240   0.000417   0.005607   0.000388
    36  H   -0.040388   0.009780  -0.000073   0.006461   0.034209   0.007568
    37  H   -0.087273   0.030765  -0.012477  -0.049918   0.390414  -0.006916
    38  H   -0.006242  -0.003128   0.020059  -0.092919  -0.017811   0.394178
    39  H    0.008592  -0.005070   0.029165  -0.074105   0.011748   0.020105
    40  H    0.000305  -0.002045  -0.014018  -0.040887  -0.001201   0.003653
    41  H    0.000428   0.001648  -0.002262   0.009064   0.000171  -0.000170
    42  H   -0.000050  -0.000415   0.001573   0.000323  -0.000006   0.000045
    43  H   -0.000010   0.000042   0.000155  -0.000008  -0.000001  -0.000001
    44  H   -0.000169  -0.000333  -0.000507   0.000004  -0.000017   0.000003
               7          8          9         10         11         12
     1  C   -0.147573  -0.049254   0.089785  -0.102253  -0.781945  -0.117665
     2  C   -0.329708  -0.410679  -0.394836  -0.376572  -0.014420   0.091717
     3  C    0.142840   0.299250   1.234398  -0.771913  -1.055108  -0.331388
     4  C    0.039492   0.777395  -0.496590  -1.403715  -0.342537  -0.213823
     5  C   -0.168421   0.140164  -0.110864  -0.439678  -0.435570  -0.148957
     6  C   -0.393997  -0.120294  -0.661950  -0.259254  -0.057545  -0.004698
     7  C    7.828011   0.676227  -0.674574   0.574618   0.450032   0.292238
     8  C    0.676227  10.741114  -0.274754  -1.386333  -0.432895  -1.380537
     9  C   -0.674574  -0.274754   9.853718   1.305591  -1.213093  -0.729205
    10  C    0.574618  -1.386333   1.305591   8.525583   0.101038   0.064386
    11  C    0.450032  -0.432895  -1.213093   0.101038   8.630809   0.628101
    12  C    0.292238  -1.380537  -0.729205   0.064386   0.628101   8.188547
    13  C   -0.295704  -0.005881  -0.357935  -0.113920  -0.617818   0.535322
    14  C    0.722740   0.584337  -1.263001   0.168891   1.093304   0.439185
    15  C   -0.104089  -0.057859  -0.036864   0.013428   0.148359  -0.060788
    16  C   -0.398432  -0.061333  -0.061942  -0.088165  -0.427597  -0.246419
    17  C   -0.361606  -0.249167  -0.148251  -0.034371   0.720191  -0.157476
    18  C   -0.580519  -1.016240  -0.403186   0.127490   0.183157   0.690461
    19  C   -1.449649  -0.269686   0.475525  -0.073853  -0.734647  -0.762000
    20  C   -0.087161  -0.728889  -0.168308   0.018661   0.171050   1.733150
    21  C    0.502186   0.273415  -0.012217  -0.004593  -0.778368   0.405508
    22  C    0.011829  -0.554414  -0.183926  -0.004144  -0.075649   0.152424
    23  C   -0.011938   0.014052  -0.008504  -0.003663   0.202015  -0.022482
    24  C   -0.089717  -0.009304  -0.002497   0.003750   0.110383  -0.146418
    25  C    0.152239  -0.008404  -0.001975  -0.010433  -0.480159  -0.438958
    26  C   -0.392458  -0.075213  -0.012320  -0.023530   0.376397  -0.241417
    27  C   -0.327639  -0.686387  -0.004020   0.016815   1.349984  -1.318813
    28  C    0.165122   0.023784   0.017383  -0.003402  -0.492422  -1.119104
    29  C    0.096341   0.023763   0.001708   0.000047   0.029010   0.339432
    30  C   -0.024761   0.003752  -0.000424   0.000843   0.001110   0.175959
    31  H    0.000142   0.000041   0.000002  -0.000000   0.000881   0.001195
    32  H   -0.009190  -0.001661  -0.000118   0.000162   0.016197   0.071676
    33  H    0.000095   0.000004   0.000000  -0.000000  -0.000370   0.000443
    34  H    0.000104   0.000008   0.000001   0.000000   0.000127  -0.000087
    35  H   -0.000516  -0.000033  -0.000008   0.000040  -0.000673  -0.000667
    36  H    0.002730   0.000528   0.000090  -0.000184  -0.001980  -0.000208
    37  H   -0.002854  -0.000268  -0.001312   0.001885   0.002246  -0.000089
    38  H   -0.005739   0.007433   0.010512   0.025377   0.002980   0.000062
    39  H   -0.007146  -0.022366  -0.024664   0.401681  -0.001303  -0.000287
    40  H    0.019247  -0.104505   0.396447  -0.003860  -0.005512   0.003002
    41  H    0.002596  -0.032899   0.028570   0.003024  -0.017375  -0.016153
[...]
 0.00117882,-0.00026702,-0.00569211,-0.03351708,-0.03421055,0.03130639,
 0.00006254,-0.00001015,-0.00000104,-0.00014013,0.00020260,0.00003216,0
 .00061256,0.00061890,-0.00009036,0.00030497,0.00006673,-0.00004663,0.0
 0004713,0.00000936,-0.00000261,-0.00006478,-0.00005463,0.00000667,-0.0
 0097468,0.00309772,-0.00050670,0.01184439,0.01237113,-0.00378520,0.001
 23831,0.00001824,-0.00007287,-0.00007569,-0.00042626,0.00003787,-0.000
 63056,0.00054159,-0.00020276,-0.00438422,0.00198144,-0.00075045,-0.012
 42930,-0.02618456,0.00716074,-0.12748088,-0.11355225,0.03103181,0.0000
 0471,0.00004127,0.00001494,-0.00000886,0.00002201,-0.00000661,-0.00008
 492,-0.00001337,0.00000329,0.00010393,0.00001808,0.00003914,0.00087892
 ,-0.00192869,0.00052218,-0.00024542,-0.00146969,0.00037726,0.00000297,
 -0.00021787,0.00009008,0.00027543,0.00044126,-0.00009683,-0.00000045,-
 0.00000479,-0.00000181,0.00000025,0.00000696,0.00000188,-0.00002442,-0
 .00002318,-0.00000166,0.00002500,0.00000479,0.00003596,-0.00030889,0.0
 0026686,-0.00017463,-0.00010445,-0.00012285,0.00003220,0.00000251,-0.0
 0000758,-0.00001647,-0.00003703,0.00000803,0.00001862,-0.00001458,-0.0
 0001434,0.00000676,0.00003444,0.00004082,-0.00000294,-0.00000231,-0.00
 000730,-0.00000241,-0.00000234,-0.00000322,-0.00000097,0.00000076,-0.0
 0000300,-0.00000061,0.00000817,0.00000166,0.00000453,-0.00000405,-0.00
 000296,0.00000015,-0.00000046,0.00000774,0.00000192,0.00000125,-0.0000
 2455,-0.00001167,-0.00019229,-0.00056487,0.00009180,0.13192435,-0.0000
 5278,0.00014583,-0.00008115,0.00008857,-0.00056236,0.00000291,-0.00119
 496,-0.00014503,0.00050114,-0.00011449,-0.00004973,-0.00000246,-0.0000
 0343,-0.00006356,-0.00001866,0.00005706,0.00005712,-0.00000525,0.00429
 110,-0.00312555,0.00178101,-0.01639695,-0.01660632,0.00615354,-0.00113
 588,0.00112397,-0.00090247,0.00027676,0.00007332,-0.00012924,0.0004739
 9,0.00029128,-0.00034457,0.00093742,0.00103832,0.00144808,0.00136286,0
 .00292643,0.00012995,-0.11468041,-0.24590900,0.05744505,-0.00010177,-0
 .00001874,-0.00003853,0.00003666,-0.00009062,-0.00002995,0.00010167,0.
 00005841,0.00003338,-0.00010583,-0.00027128,-0.00022927,0.00210030,0.0
 0017458,-0.00095473,0.00024179,-0.00004363,0.00005566,0.00008638,0.000
 31579,-0.00009197,-0.00052365,-0.00004716,-0.00017982,-0.00001772,-0.0
 0000105,0.00000201,0.00000354,-0.00003818,-0.00000794,-0.00001800,0.00
 003377,0.00002180,-0.00001591,0.00002072,-0.00000191,-0.00000060,0.000
 09765,-0.00003926,0.00004790,-0.00007233,0.00003421,0.00001925,-0.0000
 1806,-0.00001355,0.00000174,0.00002738,0.00000814,-0.00000837,-0.00000
 089,-0.00000208,-0.00005040,0.00002434,0.00001647,-0.00000314,-0.00000
 405,0.,-0.00000340,0.00000049,-0.00000209,-0.00000205,-0.00000511,0.00
 000006,-0.00002284,-0.00002637,0.00002692,0.00000488,-0.00000780,0.000
 00189,0.00001503,-0.00003357,-0.00000448,0.00005023,-0.00003857,0.0000
 7159,0.00096652,-0.00011928,-0.00001897,0.12359383,0.26048261,0.000113
 02,0.00014687,-0.00031717,-0.00019345,0.00010537,0.00030011,0.00073821
 ,0.00038985,0.00060706,-0.00017131,-0.00028197,-0.00017926,-0.00006773
 ,-0.00002708,-0.00003163,0.00005622,0.00005672,0.00009556,-0.00164034,
 0.00144747,0.00580702,0.00367797,0.00655717,0.00147278,-0.00005134,-0.
 00132283,-0.00313728,-0.00001704,0.00029827,-0.00017348,-0.00003223,-0
 .00025806,-0.00100154,-0.00068892,0.00053677,0.00561937,-0.00102712,0.
 00084771,0.00305921,0.03323050,0.05783849,-0.04972467,-0.00004047,0.00
 002412,-0.00005593,0.00003196,-0.00002378,-0.00001991,0.00005049,0.000
 02557,0.00007671,0.00018045,0.00000644,-0.00080351,-0.00000285,-0.0017
 4330,-0.00335456,0.00000155,-0.00001258,-0.00003165,0.00000587,0.00024
 013,-0.00011318,-0.00035579,-0.00025810,-0.00001632,-0.00001642,-0.000
 01308,-0.00000476,0.00001678,-0.00002393,0.00000936,-0.00002157,0.0000
 3293,0.00004383,0.00004980,0.00007360,-0.00003636,-0.00015633,0.000189
 32,0.00006294,0.00022978,-0.00022632,-0.00000032,0.00001478,-0.0000120
 5,-0.00004787,-0.00004490,0.00006448,0.00007056,-0.00000417,-0.0000007
 6,-0.00001378,-0.00010566,0.00003700,0.00005037,0.00000192,0.00000795,
 0.00000160,0.00000362,0.00000328,-0.00000102,-0.00000323,0.,0.00000615
 ,-0.00000725,-0.00002558,0.00011517,0.00000188,0.00000431,-0.00000399,
 -0.00000407,0.00000785,0.00000954,0.00003965,0.00000196,0.00025302,-0.
 00029617,0.00003253,0.00038157,-0.03341023,-0.06472864,0.04049988,-0.0
 0004346,-0.00001789,0.00001491,0.00003218,0.00007514,0.00000789,-0.000
 04236,-0.00000676,-0.00002776,0.00007904,0.00007479,-0.00000519,0.0000
 2732,0.00001849,0.00000284,-0.00001917,-0.00002914,0.00000166,0.000274
 34,0.00017115,0.00000900,0.00020464,-0.00047427,0.00017081,-0.00012696
 ,0.00004596,-0.00001726,0.00001038,-0.00010955,0.00000326,0.00034670,0
 .00066770,-0.00009027,-0.00112345,0.00217031,-0.00127464,0.00980421,0.
 01202826,-0.00251466,0.00073459,0.00157734,-0.00012181,0.00001753,0.00
 000576,0.00000095,0.00000949,0.00001353,0.00001293,-0.00001259,-0.0000
 3262,0.00000216,-0.00013342,0.00010294,-0.00010093,-0.13815152,-0.1230
 1149,0.02153399,-0.00039533,0.00067219,-0.00009342,-0.00494985,0.00142
 038,-0.00233129,-0.01205918,-0.02770728,0.00570414,-0.00001088,-0.0000
 0384,-0.00000360,0.00001253,0.00000447,0.00000327,-0.00003140,-0.00000
 615,0.00000149,-0.00005468,0.00005977,0.00001132,-0.00002327,-0.000075
 66,0.00017549,0.00006011,-0.00015519,0.00017121,-0.00001058,-0.0000082
 5,-0.00005054,0.00003527,-0.00000448,0.00001252,-0.00000675,-0.0000138
 3,0.00002730,-0.00003027,-0.00003184,0.00003055,-0.00000578,-0.0000084
 8,-0.00001507,-0.00000399,-0.00000333,-0.00000143,0.00000320,-0.000003
 67,-0.00000051,0.00000122,-0.00000267,-0.00000280,-0.00000242,-0.00000
 319,-0.00000215,0.00000407,-0.00000112,-0.00000012,0.00000578,-0.00001
 056,0.00000088,-0.00000249,0.00001326,-0.00000438,-0.00014012,-0.00023
 128,-0.00003095,0.14528773,0.00006623,0.00004948,-0.00001644,-0.000094
 68,-0.00017835,-0.00002932,0.00011795,0.00013876,-0.00002757,0.0000417
 6,-0.00003716,0.00001545,0.00001367,-0.00003918,-0.00001146,-0.0000111
 6,0.00000643,-0.00000015,-0.00001389,0.00014256,-0.00001075,0.00046896
 ,0.00011450,-0.00010201,-0.00007121,-0.00001058,0.00005948,-0.00002538
 ,-0.00006821,-0.00000680,-0.00128180,-0.00077831,0.00003190,0.00384775
 ,-0.00194159,0.00212523,-0.01597359,-0.01747256,0.00389867,-0.00205511
 ,0.00069331,-0.00077419,-0.00003881,0.00000389,0.00000181,0.00000740,-
 0.00003087,-0.00002007,-0.00000172,0.00001045,0.00001597,0.00026027,-0
 .00011831,0.00021153,-0.12318142,-0.24358197,0.04235076,0.00060118,-0.
 00001157,-0.00012781,0.00027282,0.00222994,0.00185054,0.00231251,0.004
 01277,0.00047468,-0.00000595,-0.00000607,-0.00000226,0.00000405,-0.000
 00883,-0.00000439,-0.00004748,-0.00000355,-0.00000259,0.00003639,-0.00
 003628,0.00001321,-0.00002855,-0.00001500,-0.00035731,-0.00010590,-0.0
 0003349,0.00005314,0.00003101,-0.00002335,-0.00001948,0.00001379,0.000
 02405,0.00000015,-0.00000485,-0.00000522,0.00000946,0.00003848,0.00009
 025,-0.00001649,-0.00000398,-0.00000826,-0.00000252,-0.00000390,-0.000
 00221,-0.00000094,-0.00000119,-0.00000449,-0.00000271,-0.00000203,-0.0
 0000625,0.00000344,0.00000485,-0.00000533,0.00000074,0.00000657,-0.000
 00802,-0.00000048,0.00000900,-0.00000078,-0.00000513,0.00002972,0.0000
 0209,0.00000042,0.00118469,0.00036222,-0.00008741,0.13351662,0.2561995
 6,-0.00001220,0.00001301,-0.00003446,0.00009741,0.00006871,0.00002622,
 -0.00004650,-0.00008747,0.00005671,-0.00001881,-0.00002973,-0.00000172
 ,-0.00002729,0.00000696,-0.00000482,0.00001720,0.00002836,0.00000864,-
 0.00014358,-0.00009125,-0.00014637,-0.00011072,0.00013003,-0.00017484,
 0.00005814,0.00002500,0.00011075,0.00000024,0.00003406,-0.00000344,0.0
 0039413,0.00026940,0.00011246,-0.00081261,0.00243469,0.00396487,0.0048
 9335,0.00679809,0.00156273,0.00086704,-0.00087394,-0.00224566,0.000002
 43,-0.00001394,0.00000004,0.00000444,-0.00002630,-0.00003455,-0.000060
 62,0.00004898,0.00000838,-0.00016435,0.00009978,0.00022420,0.02205630,
 0.04239465,-0.04527309,-0.00020767,-0.00022194,-0.00087599,-0.00199043
 ,0.00245542,0.00774657,-0.00328369,-0.00357363,0.00523898,0.00000267,-
 0.00000539,0.00000019,-0.00000681,0.00001875,-0.00000674,0.00000591,-0
 .00006232,-0.00002105,-0.00005787,-0.00014042,0.00003813,0.00026136,-0
 .00023547,-0.00098067,-0.00009341,0.00002384,0.00002741,0.00001458,0.0
 0003149,-0.00002696,-0.00001249,-0.00001261,-0.00002634,0.00001557,-0.
 00000472,0.00002009,0.00006902,0.00020446,-0.00001628,-0.00000167,-0.0
 0000815,0.00000179,0.00000138,-0.00000468,0.00000097,0.00000214,0.0000
 0260,0.00000047,-0.00000204,0.00000070,0.00000971,-0.00000206,0.000002
 19,-0.00000290,-0.00000059,0.00000143,0.00000374,-0.00000475,0.0000007
 1,-0.00001839,-0.00000811,0.00000290,0.00001571,-0.00029903,0.00002056
 ,0.00030910,-0.02206933,-0.04790040,0.03500513,0.00004924,0.00001924,0
 .00001053,-0.00000367,0.00002191,0.00000232,0.00004290,-0.00004347,-0.
 00001100,-0.00010710,-0.00010115,0.00000335,-0.00004390,-0.00000325,0.
 00000119,0.00003504,0.00003758,0.00000271,-0.00019233,-0.00014166,0.00
 003472,-0.00063107,0.00023404,0.00009825,0.00016374,0.00006831,-0.0000
 2558,-0.00005001,0.00014188,-0.00000495,0.00033022,-0.00010478,0.00009
 768,-0.00075936,-0.00021816,0.00008960,-0.00524830,-0.00188924,-0.0014
 5235,0.00033791,0.00123176,-0.00038562,-0.00002858,0.00000457,-0.00000
 376,0.00001744,0.00000807,-0.00000665,-0.00001822,0.00002805,-0.000015
 68,-0.00000502,0.00000720,0.00000900,-0.01012920,0.02827083,-0.0100271
 8,-0.00131905,-0.00312291,0.00038774,0.01087961,-0.01636558,0.00575069
 ,-0.11480222,0.10405564,-0.04100159,-0.00002023,-0.00001515,-0.0000062
 2,-0.00000357,-0.00001171,-0.00000610,0.00004743,-0.00005171,-0.000031
 18,-0.00020543,-0.00004905,0.00012673,0.00041702,-0.00068279,0.0000561
 3,0.00009254,0.00006464,0.00003358,-0.00002045,0.00001375,0.00001829,-
 0.00003430,-0.00004979,-0.00006056,-0.00000683,-0.00000882,0.00000260,
 -0.00005886,0.00002815,0.00003695,0.00000073,-0.00000739,0.00001064,0.
 00000143,-0.00000757,-0.00000429,0.00000057,0.00000151,0.00000073,0.00
 000119,0.00000082,0.00000282,0.00000079,0.00000350,0.00000034,-0.00000
 360,0.00000306,0.00000013,-0.00000847,0.00002130,0.00000288,-0.0000076
 2,-0.00000985,0.00000582,-0.00003133,-0.00006515,-0.00004558,0.0008859
 1,-0.00010845,0.00086139,0.11965191,0.00001029,-0.00002281,0.00000024,
 0.00003675,0.00000446,0.00001316,0.00000643,-0.00007767,-0.00000042,-0
 .00001155,-0.00003027,-0.00000449,-0.00004462,0.00000620,0.00000400,0.
 00001783,0.00003801,0.00000116,-0.00018439,-0.00001631,0.00002027,0.00
 003552,0.00014102,-0.00025228,-0.00000511,-0.00002398,-0.00002850,0.00
 003458,0.00003131,0.00001755,0.00024639,-0.00007557,-0.00006476,-0.000
 85014,0.00024683,-0.00043060,-0.00104786,0.00220779,0.00187684,0.00011
 152,-0.00002587,0.00010981,0.00000246,-0.00001915,-0.00000289,0.000027
 69,0.00001287,-0.00000043,-0.00001116,-0.00003567,-0.00002206,0.000000
 57,0.00005620,-0.00000439,-0.00172822,0.00322231,-0.00009060,-0.003764
 02,-0.00171650,0.00180723,0.01325528,-0.01733662,0.00749080,0.10476464
 ,-0.25104759,0.07609425,-0.00001998,-0.00001721,-0.00000598,-0.0000057
 0,0.00000405,-0.00002331,0.00007517,-0.00008905,-0.00003715,-0.0003379
 8,-0.00001023,0.00023978,0.00082676,-0.00078364,-0.00014466,0.00025210
 ,0.00015017,0.00020812,-0.00005055,0.00004491,0.00003966,-0.00007191,-
 0.00013926,-0.00012921,-0.00003056,-0.00001710,0.00000971,-0.00016404,
 0.00003865,0.00009618,-0.00000915,-0.00003124,0.00001402,-0.00000741,-
 0.00001793,-0.00000510,0.00000359,-0.00000820,0.00000199,0.00000227,-0
 .00000601,-0.00000262,0.00000136,-0.00000581,-0.00000266,0.00000578,-0
 .00000105,-0.00000073,0.00000557,-0.00000159,0.00000468,0.00000728,0.0
 0000447,-0.00000099,0.00001244,0.00001600,0.00006551,0.00050979,0.0003
 8091,-0.00151750,-0.11180765,0.26426646,0.00004220,-0.00005314,-0.0000
 0377,-0.00006012,0.00005787,0.00000751,0.00002038,-0.00002095,0.000008
 85,-0.00004785,-0.00006009,-0.00001099,-0.00005633,-0.00001010,0.00000
 177,0.00001235,0.00004864,-0.00000112,-0.00006207,0.00004597,0.0001321
 6,-0.00019793,-0.00004595,-0.00078046,0.00004802,-0.00006585,-0.000103
 91,0.00000639,0.00007428,0.00006522,0.00014072,-0.00004183,-0.00055951
 ,0.00011019,-0.00052259,-0.00057623,-0.00163869,0.00154666,0.00840164,
 0.00009384,0.00040764,0.00021602,-0.00000495,0.00000698,0.00000074,0.0
 0000632,-0.00001065,0.00001659,0.00002201,0.00000326,0.00001302,0.0000
 0050,-0.00012775,0.00002822,-0.00099185,0.00409681,0.00262530,0.000454
 75,0.00143645,0.00445442,-0.00237324,0.00418435,0.00136924,-0.04146047
 ,0.07551400,-0.06409963,-0.00000517,-0.00000450,-0.00000156,0.00001136
 ,0.00000093,-0.00000684,0.00001616,0.00002886,-0.00000108,0.00003129,0
 .00007160,-0.00004413,-0.00015373,0.00008466,0.00006266,0.00014644,0.0
 0011926,-0.00014097,-0.00001824,-0.00000534,0.00002657,-0.00002232,-0.
 00000831,0.00000431,0.00000502,0.00001175,-0.00000795,-0.00000307,0.00
 007411,-0.00004819,0.00000089,0.00000612,0.00000516,0.00000254,0.00000
 152,0.00000273,0.00000029,0.00000057,0.00000209,0.00000121,0.00000174,
 -0.00000105,-0.00000175,0.00000262,-0.00000392,-0.00000183,0.00000116,
 0.00000125,0.00000197,0.00000410,0.00001747,-0.00000311,-0.00000160,0.
 00000197,-0.00000460,0.00004950,0.00022161,0.00065313,-0.00158496,-0.0
 0458139,0.04521375,-0.08428323,0.05559092,-0.00000899,0.00000728,0.000
 00741,0.00010139,0.00002811,0.00000640,-0.00013321,-0.00007798,-0.0000
 1204,0.00006837,0.00005659,0.00000230,-0.00001541,0.00002634,0.0000077
 6,0.00000606,0.00000187,0.00001305,-0.00001382,0.00026952,-0.00008205,
 0.00012069,-0.00005826,0.00005239,-0.00005293,0.00003758,-0.00000261,0
 .00000892,-0.00005614,0.00000085,-0.00043206,-0.00037672,-0.00008773,0
 .00047826,0.00174199,-0.00053993,0.00058094,0.00000437,0.00013493,-0.0
 0013129,-0.00001124,-0.00001662,-0.00001307,0.00001328,-0.00000156,0.0
 0002702,0.00004555,0.00000907,0.00014724,-0.00001938,0.00009688,-0.000
 05903,0.00003151,-0.00003675,0.00045613,-0.00244092,0.00070759,-0.0105
 3458,0.00150747,-0.00133801,-0.33589970,0.01790335,-0.03549190,-0.0101
 9676,0.00264947,-0.00157701,-0.00009645,-0.00002406,-0.00000616,0.0000
 6969,-0.00002949,-0.00006635,-0.00058270,0.00001688,0.00004438,-0.0000
 0393,0.00089010,0.00024612,-0.00143245,-0.00069673,0.00152740,-0.00064
 024,-0.00408254,0.00052264,0.00034773,-0.00047627,-0.00039828,0.000275
 74,0.00064309,0.00050758,0.00000334,-0.00007066,0.00013421,0.00001307,
 -0.00044482,0.00021615,-0.00001786,0.00004935,-0.00008381,0.00000938,0
 .00000507,-0.00000360,-0.00000077,0.00000296,0.00000520,-0.00000304,0.
 00000478,-0.00000007,-0.00000052,0.00000034,-0.00000234,-0.00000117,0.
 00000530,-0.00000332,-0.00000330,0.00000011,-0.00000100,0.00000014,-0.
 00000015,-0.00000224,0.00000961,-0.00000846,-0.00000934,-0.00045633,0.
 00017538,-0.00018807,0.00078311,-0.00010007,0.00006558,0.35722279,-0.0
 0013556,0.00006275,-0.00000410,0.00016992,-0.00012737,-0.00000551,0.00
 009828,-0.00003006,-0.00002656,0.00012204,0.00015952,0.00003968,0.0001
 4406,-0.00002077,-0.00001399,-0.00007591,-0.00010826,-0.00000101,0.000
 09174,-0.00037151,-0.00036401,0.00023618,-0.00034046,0.00013763,-0.000
 21774,0.00015685,0.00005890,0.00000069,-0.00024698,-0.00000766,0.00130
 639,0.00069097,0.00009374,0.00041434,-0.00405191,0.00424392,0.00056536
 ,-0.00070357,0.00003662,-0.00050945,0.00025053,-0.00028170,0.00004018,
 -0.00005959,0.00000507,-0.00007859,-0.00007655,-0.00002387,0.00005399,
 0.00005738,-0.00005917,-0.00002620,0.00035072,0.00005529,-0.00234463,-
 0.00360503,0.00237558,0.02722841,0.00193581,0.00396243,0.01623162,-0.0
 5636762,0.00417316,-0.02628421,0.00458834,-0.00244822,0.00008680,0.000
 07736,0.00003916,-0.00012632,0.00003626,-0.00013278,0.00004865,-0.0001
 2369,-0.00008436,0.00004370,-0.00013174,0.00046153,0.00151345,-0.00017
 107,-0.00172340,-0.00066949,-0.00171294,-0.00040373,0.00030843,-0.0000
 1372,0.00042416,-0.00035178,0.00032222,-0.00005322,-0.00000801,0.00008
 597,-0.00017327,-0.00022334,0.00016370,0.00003980,0.00000794,0.0000387
 2,0.00011795,0.00000539,-0.00000425,0.00000411,-0.00001026,0.00000452,
 0.00000774,-0.00000535,0.00000889,-0.00000742,-0.00000039,-0.00000024,
 0.00000380,0.00000127,-0.00001225,-0.00000076,-0.00000153,-0.00000496,
 -0.00000937,0.00001151,0.00000097,-0.00001105,0.00007800,0.00002803,0.
 00000381,-0.00119531,-0.00002538,-0.00030690,0.00059949,0.00068367,-0.
 00103455,-0.01714374,0.05860673,0.00007773,0.00005858,0.00002159,0.000
 34203,0.00004609,-0.00000480,-0.00024671,-0.00026438,-0.00005959,0.000
 13833,-0.00006278,0.00006222,-0.00013604,0.00003539,0.00001643,0.00008
 095,0.00012838,0.00002484,-0.00042064,0.00007414,-0.00093295,0.0001886
 9,0.00014701,0.00008007,-0.00002311,0.00012969,0.00012121,-0.00003285,
 -0.00008229,-0.00001646,-0.00040145,-0.00091967,0.00034467,-0.00195274
 ,0.00497360,0.00633647,0.00027122,0.00020869,-0.00080904,0.00009667,-0
 .00023697,-0.00048522,-0.00010571,-0.00001200,-0.00001677,0.00010328,-
 0.00024233,-0.00012477,-0.00033384,0.00019532,0.00009539,0.00010471,0.
 00026694,0.00020593,0.00043979,0.00171062,0.00460898,-0.00806597,-0.00
 263871,0.00519783,-0.03234840,0.00622874,-0.04248367,0.00446469,-0.000
 16234,0.00425253,-0.00001779,-0.00003219,-0.00003032,0.00003866,0.0000
 7847,0.00001139,-0.00019910,-0.00017867,-0.00004589,-0.00001188,-0.000
 70340,0.00004665,0.00148027,-0.00104619,-0.00449898,0.00016440,0.00130
 091,0.00027019,-0.00001102,-0.00007064,-0.00046130,0.00017851,0.000027
 99,-0.00011617,0.00008191,-0.00007222,0.00027476,0.00002572,0.00136172
 ,-0.00011026,-0.00002985,-0.00007687,-0.00008969,-0.00000652,-0.000020
 44,0.00000569,0.00001244,-0.00000353,0.00000998,-0.00000530,-0.0000034
 6,0.00001980,0.00000041,-0.00000495,-0.00000234,0.00000613,0.00000388,
 0.00000680,-0.00000103,0.00000308,-0.00002151,-0.00000275,0.00000241,-
 0.00000454,-0.00002089,0.00002313,-0.00000434,0.00020641,-0.00000291,-
 0.00001731,0.00022775,-0.00106039,-0.00230471,0.03564291,-0.00910746,0
 .03062722\\-0.00000005,-0.00000021,-0.00000071,-0.00000058,0.00000001,
 -0.00000043,0.00000023,0.,-0.00000085,-0.00000012,0.,-0.00000089,0.000
 00003,0.00000003,-0.00000107,-0.00000010,-0.00000021,-0.00000124,0.000
 00004,-0.00000022,-0.00000040,0.00000018,-0.00000020,-0.00000036,-0.00
 000007,-0.00000002,-0.00000086,0.00000013,-0.00000014,-0.00000102,0.00
 000003,-0.00000021,0.00000011,-0.00000036,-0.00000029,0.00000013,-0.00
 000007,0.00000010,0.00000024,0.00000002,0.,-0.00000017,0.00000027,-0.0
 0000018,-0.00000059,-0.00000055,-0.00000006,-0.00000022,-0.00000103,0.
 00000034,-0.00000015,0.00000068,0.00000030,-0.00000026,-0.00000003,0.0
 0000005,0.00000055,0.00000152,0.00000164,-0.00000153,0.00000011,-0.000
 00056,0.00000079,0.00000004,0.00000024,0.00000080,0.00000026,0.0000001
 5,0.00000019,-0.00000027,0.00000040,0.00000045,0.00000300,0.00000055,-
 0.00000044,0.00000029,-0.00000329,0.00000284,-0.00000889,0.00001041,0.
 00003536,-0.00000501,0.00000541,-0.00000769,-0.00000124,0.00000184,0.0
 0000251,-0.00000050,-0.00000404,0.00000161,0.00000028,0.00000019,0.000
 00109,0.00001286,-0.00001248,-0.00002617,-0.00000011,0.00000016,0.0000
 0084,-0.00000023,0.00000018,0.00000057,-0.00000024,0.00000011,-0.00000
 014,-0.00000019,0.00000004,-0.00000069,-0.00000013,-0.00000003,-0.0000
 0131,-0.00000008,-0.00000010,-0.00000154,0.,-0.00000008,-0.00000134,0.
 00000003,-0.00000004,-0.00000086,0.00000002,-0.00000003,-0.00000012,-0
 .00000006,0.00000005,0.00000053,-0.00000014,0.00000015,0.00000110,0.00
 000002,0.00000006,0.00000132\\\@


 Once you get people laughing, they're
 listening and you can tell them almost anything.
                                 -- Herb Gardner
 Job cpu time:       0 days 22 hours  0 minutes 43.6 seconds.
 Elapsed time:       0 days  1 hours  6 minutes 13.8 seconds.
 File lengths (MBytes):  RWF=   2129 Int=      0 D2E=      0 Chk=     45 Scr=      1
 Normal termination of Gaussian 16 at Tue Jun 18 16:34:01 2019.
