 Entering Gaussian System, Link 0=/share/apps/gaussian16/g16/g16
 Initial command:
 /share/apps/gaussian16/g16/l1.exe "/home/amen01//scratch/534/Gau-46225.inp" -scrdir="/home/amen01//scratch/534/"
 Entering Link 1 = /share/apps/gaussian16/g16/l1.exe PID=     46226.
  
 Copyright (c) 1988-2017, Gaussian, Inc.  All Rights Reserved.
  
 This is part of the Gaussian(R) 16 program.  It is based on
 the Gaussian(R) 09 system (copyright 2009, Gaussian, Inc.),
 the Gaussian(R) 03 system (copyright 2003, Gaussian, Inc.),
 the Gaussian(R) 98 system (copyright 1998, Gaussian, Inc.),
 the Gaussian(R) 94 system (copyright 1995, Gaussian, Inc.),
 the Gaussian 92(TM) system (copyright 1992, Gaussian, Inc.),
 the Gaussian 90(TM) system (copyright 1990, Gaussian, Inc.),
 the Gaussian 88(TM) system (copyright 1988, Gaussian, Inc.),
 the Gaussian 86(TM) system (copyright 1986, Carnegie Mellon
 University), and the Gaussian 82(TM) system (copyright 1983,
 Carnegie Mellon University). Gaussian is a federally registered
 trademark of Gaussian, Inc.
  
 This software contains proprietary and confidential information,
 including trade secrets, belonging to Gaussian, Inc.
  
 This software is provided under written license and may be
 used, copied, transmitted, or stored only in accord with that
 written license.
  
 The following legend is applicable only to US Government
 contracts under FAR:
  
                    RESTRICTED RIGHTS LEGEND
  
 Use, reproduction and disclosure by the US Government is
 subject to restrictions as set forth in subparagraphs (a)
 and (c) of the Commercial Computer Software - Restricted
 Rights clause in FAR 52.227-19.
  
 Gaussian, Inc.
 340 Quinnipiac St., Bldg. 40, Wallingford CT 06492
  
  
 ---------------------------------------------------------------
 Warning -- This program may not be used in any manner that
 competes with the business of Gaussian, Inc. or will provide
 assistance to any competitor of Gaussian, Inc.  The licensee
 of this program is prohibited from giving any competitor of
 Gaussian, Inc. access to this program.  By using this program,
 the user acknowledges that Gaussian, Inc. is engaged in the
 business of creating and licensing software in the field of
 computational chemistry and represents and warrants to the
 licensee that it is not a competitor of Gaussian, Inc. and that
 it will not use this program in any manner prohibited above.
 ---------------------------------------------------------------
  

 Cite this work as:
 Gaussian 16, Revision B.01,
 M. J. Frisch, G. W. Trucks, H. B. Schlegel, G. E. Scuseria, 
 M. A. Robb, J. R. Cheeseman, G. Scalmani, V. Barone, 
 G. A. Petersson, H. Nakatsuji, X. Li, M. Caricato, A. V. Marenich, 
 J. Bloino, B. G. Janesko, R. Gomperts, B. Mennucci, H. P. Hratchian, 
 J. V. Ortiz, A. F. Izmaylov, J. L. Sonnenberg, D. Williams-Young, 
 F. Ding, F. Lipparini, F. Egidi, J. Goings, B. Peng, A. Petrone, 
 T. Henderson, D. Ranasinghe, V. G. Zakrzewski, J. Gao, N. Rega, 
 G. Zheng, W. Liang, M. Hada, M. Ehara, K. Toyota, R. Fukuda, 
 J. Hasegawa, M. Ishida, T. Nakajima, Y. Honda, O. Kitao, H. Nakai, 
 T. Vreven, K. Throssell, J. A. Montgomery, Jr., J. E. Peralta, 
 F. Ogliaro, M. J. Bearpark, J. J. Heyd, E. N. Brothers, K. N. Kudin, 
 V. N. Staroverov, T. A. Keith, R. Kobayashi, J. Normand, 
 K. Raghavachari, A. P. Rendell, J. C. Burant, S. S. Iyengar, 
 J. Tomasi, M. Cossi, J. M. Millam, M. Klene, C. Adamo, R. Cammi, 
 J. W. Ochterski, R. L. Martin, K. Morokuma, O. Farkas, 
 J. B. Foresman, and D. J. Fox, Gaussian, Inc., Wallingford CT, 2016.
 
 ******************************************
 Gaussian 16:  ES64L-G16RevB.01 20-Dec-2017
                18-Jun-2019 
 ******************************************
 %nprocshared=20
 Will use up to   20 processors via shared memory.
 %mem=100GB
 %chk=7-memb-haddTSguess-5a.chk
 ---------------------------------------------------------------
 # opt=(ts,calcfc,noeigen) freq b3lyp/6-311+g(d,p) int=grid=fine
 ---------------------------------------------------------------
 1/5=1,10=4,11=1,18=20,26=3,38=1/1,3;
 2/9=110,12=2,17=6,18=5,40=1/2;
 3/5=4,6=6,7=111,11=2,25=1,30=1,71=2,74=-5,75=-4,140=1/1,2,3;
 4//1;
 5/5=2,38=5/2;
 8/6=4,10=90,11=11/1;
 11/6=1,8=1,9=11,15=111,16=1/1,2,10;
 10/6=1,13=1/2;
 6/7=2,8=2,9=2,10=2,28=1/1;
 7/10=1,18=20,25=1/1,2,3,16;
 1/5=1,10=4,11=1,18=20,26=3/3(2);
 2/9=110/2;
 99//99;
 2/9=110/2;
 3/5=4,6=6,7=111,11=2,25=1,30=1,71=1,74=-5,75=-4/1,2,3;
 4/5=5,16=3,69=1/1;
 5/5=2,38=5/2;
 7//1,2,3,16;
 1/5=1,11=1,18=20,26=3/3(-5);
 2/9=110/2;
 6/7=2,8=2,9=2,10=2,19=2,28=1/1;
 99/9=1/99;
 ---------------------
 7-memb-haddTSguess-5a
 ---------------------
 Symbolic Z-matrix:
 Charge =  0 Multiplicity = 1
 C                     1.49931  -2.83488  -0.13306 
 C                     1.37225  -1.4736    0.11626 
 C                     2.48359  -0.63545   0.26923 
 C                     3.79596  -1.01837   0.13654 
 C                     2.87348  -3.29588  -0.20399 
 C                     3.95935  -2.44121  -0.08414 
 C                     2.02586   0.68223   0.34579 
 C                     2.88406   1.77309   0.27616 
 C                     4.29126   1.41201   0.22425 
 C                     4.72317   0.09724   0.15789 
 C                     0.62089   0.68809   0.23566 
 C                    -0.02431   1.88561   0.05492 
 C                     0.81362   3.06938   0.01527 
 C                     2.22068   3.01408   0.1427 
 C                     0.26048  -3.4875   -0.31354 
 C                    -0.95897  -2.77427  -0.25688 
 C                    -1.02701  -1.32607  -0.08121 
 C                     0.19731  -0.70647   0.10382 
 C                     0.16403   4.31042  -0.30046 
 C                    -1.47427   1.97485  -0.23769 
 C                    -2.07169   3.24909  -0.57031 
 C                    -1.15103   4.36241  -0.65541 
 C                    -2.19935  -3.49137  -0.3338 
 C                    -3.37644  -2.85051  -0.14924 
 C                    -3.46359  -1.42848   0.06958 
 C                    -2.29401  -0.60636   0.00358 
 C                    -2.4624    0.82823   0.10948 
 C                    -3.72751   1.30122   0.46036 
 C                    -4.72294  -0.87495   0.36161 
 C                    -4.8434    0.47317   0.60659 
 H                    -5.79963   0.90549   0.87831 
 H                    -3.8464    2.3709    0.55487 
 H                    -5.585    -1.53131   0.41446 
 H                    -4.30618  -3.4095   -0.15352 
 H                    -2.17391  -4.56341  -0.4964 
 H                     0.21268  -4.55809  -0.48685 
 H                     3.06638  -4.34859  -0.38367 
 H                     4.95632  -2.85877  -0.18111 
 H                     5.78982  -0.09046   0.08811 
 H                     5.03624   2.20066   0.20311 
 H                     2.77887   3.94105   0.05671 
 H                     0.77161   5.21258  -0.31002 
 H                    -1.56284   5.31895  -0.96642 
 H                    -1.66833   2.1559   -1.43752 
 

 GradGradGradGradGradGradGradGradGradGradGradGradGradGradGradGradGradGrad
 Berny optimization.
 Initialization pass.
                           ----------------------------
                           !    Initial Parameters    !
                           ! (Angstroms and Degrees)  !
 --------------------------                            --------------------------
 ! Name  Definition              Value          Derivative Info.                !
 --------------------------------------------------------------------------------
 ! R1    R(1,2)                  1.3897         calculate D2E/DX2 analytically  !
 ! R2    R(1,5)                  1.4512         calculate D2E/DX2 analytically  !
 ! R3    R(1,15)                 1.4118         calculate D2E/DX2 analytically  !
 ! R4    R(2,3)                  1.4003         calculate D2E/DX2 analytically  !
 ! R5    R(2,18)                 1.4033         calculate D2E/DX2 analytically  !
 ! R6    R(3,4)                  1.3735         calculate D2E/DX2 analytically  !
 ! R7    R(3,7)                  1.397          calculate D2E/DX2 analytically  !
 ! R8    R(4,6)                  1.4491         calculate D2E/DX2 analytically  !
 ! R9    R(4,10)                 1.4508         calculate D2E/DX2 analytically  !
 ! R10   R(5,6)                  1.3871         calculate D2E/DX2 analytically  !
 ! R11   R(5,37)                 1.0852         calculate D2E/DX2 analytically  !
 ! R12   R(6,38)                 1.0852         calculate D2E/DX2 analytically  !
 ! R13   R(7,8)                  1.3897         calculate D2E/DX2 analytically  !
 ! R14   R(7,11)                 1.4093         calculate D2E/DX2 analytically  !
 ! R15   R(8,9)                  1.4537         calculate D2E/DX2 analytically  !
 ! R16   R(8,14)                 1.4135         calculate D2E/DX2 analytically  !
 ! R17   R(9,10)                 1.3855         calculate D2E/DX2 analytically  !
 ! R18   R(9,40)                 1.0851         calculate D2E/DX2 analytically  !
 ! R19   R(10,39)                1.0853         calculate D2E/DX2 analytically  !
 ! R20   R(11,12)                1.3722         calculate D2E/DX2 analytically  !
 ! R21   R(11,18)                1.4634         calculate D2E/DX2 analytically  !
 ! R22   R(12,13)                1.4509         calculate D2E/DX2 analytically  !
 ! R23   R(12,20)                1.4819         calculate D2E/DX2 analytically  !
 ! R24   R(13,14)                1.4139         calculate D2E/DX2 analytically  !
 ! R25   R(13,19)                1.4359         calculate D2E/DX2 analytically  !
 ! R26   R(14,41)                1.0855         calculate D2E/DX2 analytically  !
 ! R27   R(15,16)                1.4138         calculate D2E/DX2 analytically  !
 ! R28   R(15,36)                1.0856         calculate D2E/DX2 analytically  !
 ! R29   R(16,17)                1.4604         calculate D2E/DX2 analytically  !
 ! R30   R(16,23)                1.4348         calculate D2E/DX2 analytically  !
 ! R31   R(17,18)                1.3846         calculate D2E/DX2 analytically  !
 ! R32   R(17,26)                1.4596         calculate D2E/DX2 analytically  !
 ! R33   R(19,22)                1.3631         calculate D2E/DX2 analytically  !
 ! R34   R(19,42)                1.0877         calculate D2E/DX2 analytically  !
 ! R35   R(20,21)                1.4461         calculate D2E/DX2 analytically  !
 ! R36   R(20,27)                1.553          calculate D2E/DX2 analytically  !
 ! R37   R(20,44)                1.2288         calculate D2E/DX2 analytically  !
 ! R38   R(21,22)                1.4472         calculate D2E/DX2 analytically  !
 ! R39   R(22,43)                1.0869         calculate D2E/DX2 analytically  !
 ! R40   R(23,24)                1.3529         calculate D2E/DX2 analytically  !
 ! R41   R(23,35)                1.0846         calculate D2E/DX2 analytically  !
 ! R42   R(24,25)                1.4414         calculate D2E/DX2 analytically  !
 ! R43   R(24,34)                1.0849         calculate D2E/DX2 analytically  !
 ! R44   R(25,26)                1.4311         calculate D2E/DX2 analytically  !
 ! R45   R(25,29)                1.4063         calculate D2E/DX2 analytically  !
 ! R46   R(26,27)                1.4483         calculate D2E/DX2 analytically  !
 ! R47   R(27,28)                1.3955         calculate D2E/DX2 analytically  !
 ! R48   R(28,30)                1.3972         calculate D2E/DX2 analytically  !
 ! R49   R(28,32)                1.0804         calculate D2E/DX2 analytically  !
 ! R50   R(29,30)                1.3755         calculate D2E/DX2 analytically  !
 ! R51   R(29,33)                1.0848         calculate D2E/DX2 analytically  !
 ! R52   R(30,31)                1.084          calculate D2E/DX2 analytically  !
 ! A1    A(2,1,5)              113.9857         calculate D2E/DX2 analytically  !
 ! A2    A(2,1,15)             113.2973         calculate D2E/DX2 analytically  !
 ! A3    A(5,1,15)             132.6741         calculate D2E/DX2 analytically  !
 ! A4    A(1,2,3)              122.2297         calculate D2E/DX2 analytically  !
 ! A5    A(1,2,18)             127.6211         calculate D2E/DX2 analytically  !
 ! A6    A(3,2,18)             109.771          calculate D2E/DX2 analytically  !
 ! A7    A(2,3,4)              125.5115         calculate D2E/DX2 analytically  !
 ! A8    A(2,3,7)              108.0894         calculate D2E/DX2 analytically  !
 ! A9    A(4,3,7)              125.5429         calculate D2E/DX2 analytically  !
 ! A10   A(3,4,6)              113.3402         calculate D2E/DX2 analytically  !
 ! A11   A(3,4,10)             113.2574         calculate D2E/DX2 analytically  !
 ! A12   A(6,4,10)             133.2523         calculate D2E/DX2 analytically  !
 ! A13   A(1,5,6)              122.776          calculate D2E/DX2 analytically  !
 ! A14   A(1,5,37)             118.9839         calculate D2E/DX2 analytically  !
 ! A15   A(6,5,37)             118.2209         calculate D2E/DX2 analytically  !
 ! A16   A(4,6,5)              121.9982         calculate D2E/DX2 analytically  !
 ! A17   A(4,6,38)             119.6696         calculate D2E/DX2 analytically  !
 ! A18   A(5,6,38)             118.3194         calculate D2E/DX2 analytically  !
 ! A19   A(3,7,8)              122.3639         calculate D2E/DX2 analytically  !
 ! A20   A(3,7,11)             109.0433         calculate D2E/DX2 analytically  !
 ! A21   A(8,7,11)             127.4781         calculate D2E/DX2 analytically  !
 ! A22   A(7,8,9)              113.8653         calculate D2E/DX2 analytically  !
 ! A23   A(7,8,14)             113.8329         calculate D2E/DX2 analytically  !
 ! A24   A(9,8,14)             131.9905         calculate D2E/DX2 analytically  !
 ! A25   A(8,9,10)             122.6282         calculate D2E/DX2 analytically  !
 ! A26   A(8,9,40)             118.9965         calculate D2E/DX2 analytically  !
 ! A27   A(10,9,40)            118.3433         calculate D2E/DX2 analytically  !
 ! A28   A(4,10,9)             122.0857         calculate D2E/DX2 analytically  !
 ! A29   A(4,10,39)            119.6174         calculate D2E/DX2 analytically  !
 ! A30   A(9,10,39)            118.2674         calculate D2E/DX2 analytically  !
 ! A31   A(7,11,12)            118.8597         calculate D2E/DX2 analytically  !
 ! A32   A(7,11,18)            106.9561         calculate D2E/DX2 analytically  !
 ! A33   A(12,11,18)           133.1301         calculate D2E/DX2 analytically  !
 ! A34   A(11,12,13)           116.3639         calculate D2E/DX2 analytically  !
 ! A35   A(11,12,20)           122.59           calculate D2E/DX2 analytically  !
 ! A36   A(13,12,20)           120.7017         calculate D2E/DX2 analytically  !
 ! A37   A(12,13,14)           122.7092         calculate D2E/DX2 analytically  !
 ! A38   A(12,13,19)           116.7378         calculate D2E/DX2 analytically  !
 ! A39   A(14,13,19)           120.2532         calculate D2E/DX2 analytically  !
 ! A40   A(8,14,13)            120.6569         calculate D2E/DX2 analytically  !
 ! A41   A(8,14,41)            121.0581         calculate D2E/DX2 analytically  !
 ! A42   A(13,14,41)           118.1128         calculate D2E/DX2 analytically  !
 ! A43   A(1,15,16)            121.2327         calculate D2E/DX2 analytically  !
 ! A44   A(1,15,36)            120.9924         calculate D2E/DX2 analytically  !
 ! A45   A(16,15,36)           117.7695         calculate D2E/DX2 analytically  !
 ! A46   A(15,16,17)           123.042          calculate D2E/DX2 analytically  !
 ! A47   A(15,16,23)           119.4295         calculate D2E/DX2 analytically  !
 ! A48   A(17,16,23)           117.502          calculate D2E/DX2 analytically  !
 ! A49   A(16,17,18)           114.7482         calculate D2E/DX2 analytically  !
 ! A50   A(16,17,26)           122.4386         calculate D2E/DX2 analytically  !
 ! A51   A(18,17,26)           122.6256         calculate D2E/DX2 analytically  !
 ! A52   A(2,18,11)            106.1286         calculate D2E/DX2 analytically  !
 ! A53   A(2,18,17)            119.7972         calculate D2E/DX2 analytically  !
 ! A54   A(11,18,17)           133.981          calculate D2E/DX2 analytically  !
 ! A55   A(13,19,22)           121.7807         calculate D2E/DX2 analytically  !
 ! A56   A(13,19,42)           117.7802         calculate D2E/DX2 analytically  !
 ! A57   A(22,19,42)           120.3287         calculate D2E/DX2 analytically  !
 ! A58   A(12,20,21)           120.1792         calculate D2E/DX2 analytically  !
 ! A59   A(12,20,27)           122.2744         calculate D2E/DX2 analytically  !
 ! A60   A(12,20,44)           110.8661         calculate D2E/DX2 analytically  !
 ! A61   A(21,20,27)           116.0497         calculate D2E/DX2 analytically  !
 ! A62   A(21,20,44)            65.1883         calculate D2E/DX2 analytically  !
 ! A63   A(27,20,44)           103.0957         calculate D2E/DX2 analytically  !
 ! A64   A(20,21,22)           115.3773         calculate D2E/DX2 analytically  !
 ! A65   A(19,22,21)           124.6869         calculate D2E/DX2 analytically  !
 ! A66   A(19,22,43)           118.2697         calculate D2E/DX2 analytically  !
 ! A67   A(21,22,43)           116.9258         calculate D2E/DX2 analytically  !
 ! A68   A(16,23,24)           120.5369         calculate D2E/DX2 analytically  !
 ! A69   A(16,23,35)           118.8007         calculate D2E/DX2 analytically  !
 ! A70   A(24,23,35)           120.6018         calculate D2E/DX2 analytically  !
 ! A71   A(23,24,25)           122.728          calculate D2E/DX2 analytically  !
 ! A72   A(23,24,34)           120.0687         calculate D2E/DX2 analytically  !
 ! A73   A(25,24,34)           117.2012         calculate D2E/DX2 analytically  !
 ! A74   A(24,25,26)           120.6843         calculate D2E/DX2 analytically  !
 ! A75   A(24,25,29)           118.2938         calculate D2E/DX2 analytically  !
 ! A76   A(26,25,29)           121.019          calculate D2E/DX2 analytically  !
 ! A77   A(17,26,25)           115.3932         calculate D2E/DX2 analytically  !
 ! A78   A(17,26,27)           126.4116         calculate D2E/DX2 analytically  !
 ! A79   A(25,26,27)           118.074          calculate D2E/DX2 analytically  !
 ! A80   A(20,27,26)           129.8683         calculate D2E/DX2 analytically  !
 ! A81   A(20,27,28)           112.5072         calculate D2E/DX2 analytically  !
 ! A82   A(26,27,28)           117.3566         calculate D2E/DX2 analytically  !
 ! A83   A(27,28,30)           123.3311         calculate D2E/DX2 analytically  !
 ! A84   A(27,28,32)           117.2157         calculate D2E/DX2 analytically  !
 ! A85   A(30,28,32)           119.3215         calculate D2E/DX2 analytically  !
 ! A86   A(25,29,30)           120.0786         calculate D2E/DX2 analytically  !
 ! A87   A(25,29,33)           118.9216         calculate D2E/DX2 analytically  !
 ! A88   A(30,29,33)           120.9812         calculate D2E/DX2 analytically  !
 ! A89   A(28,30,29)           119.4899         calculate D2E/DX2 analytically  !
 ! A90   A(28,30,31)           119.6286         calculate D2E/DX2 analytically  !
 ! A91   A(29,30,31)           120.8483         calculate D2E/DX2 analytically  !
 ! D1    D(5,1,2,3)              0.5993         calculate D2E/DX2 analytically  !
 ! D2    D(5,1,2,18)           172.7957         calculate D2E/DX2 analytically  !
 ! D3    D(15,1,2,3)          -177.3246         calculate D2E/DX2 analytically  !
 ! D4    D(15,1,2,18)           -5.1282         calculate D2E/DX2 analytically  !
 ! D5    D(2,1,5,6)             -2.3446         calculate D2E/DX2 analytically  !
 ! D6    D(2,1,5,37)           179.2781         calculate D2E/DX2 analytically  !
 ! D7    D(15,1,5,6)           175.0616         calculate D2E/DX2 analytically  !
 ! D8    D(15,1,5,37)           -3.3157         calculate D2E/DX2 analytically  !
 ! D9    D(2,1,15,16)            0.926          calculate D2E/DX2 analytically  !
 ! D10   D(2,1,15,36)         -178.2047         calculate D2E/DX2 analytically  !
 ! D11   D(5,1,15,16)         -176.4937         calculate D2E/DX2 analytically  !
 ! D12   D(5,1,15,36)            4.3755         calculate D2E/DX2 analytically  !
 ! D13   D(1,2,3,4)              3.1265         calculate D2E/DX2 analytically  !
 ! D14   D(1,2,3,7)            172.983          calculate D2E/DX2 analytically  !
 ! D15   D(18,2,3,4)          -170.3112         calculate D2E/DX2 analytically  !
 ! D16   D(18,2,3,7)            -0.4548         calculate D2E/DX2 analytically  !
 ! D17   D(1,2,18,11)         -172.0355         calculate D2E/DX2 analytically  !
 ! D18   D(1,2,18,17)            4.9285         calculate D2E/DX2 analytically  !
 ! D19   D(3,2,18,11)            0.954          calculate D2E/DX2 analytically  !
 ! D20   D(3,2,18,17)          177.918          calculate D2E/DX2 analytically  !
 ! D21   D(2,3,4,6)             -4.61           calculate D2E/DX2 analytically  !
 ! D22   D(2,3,4,10)           171.5373         calculate D2E/DX2 analytically  !
 ! D23   D(7,3,4,6)           -172.7369         calculate D2E/DX2 analytically  !
 ! D24   D(7,3,4,10)             3.4104         calculate D2E/DX2 analytically  !
 ! D25   D(2,3,7,8)           -169.0196         calculate D2E/DX2 analytically  !
 ! D26   D(2,3,7,11)            -0.2629         calculate D2E/DX2 analytically  !
 ! D27   D(4,3,7,8)              0.8329         calculate D2E/DX2 analytically  !
 ! D28   D(4,3,7,11)           169.5895         calculate D2E/DX2 analytically  !
 ! D29   D(3,4,6,5)              2.6809         calculate D2E/DX2 analytically  !
 ! D30   D(3,4,6,38)          -178.6415         calculate D2E/DX2 analytically  !
 ! D31   D(10,4,6,5)          -172.457          calculate D2E/DX2 analytically  !
 ! D32   D(10,4,6,38)            6.2206         calculate D2E/DX2 analytically  !
 ! D33   D(3,4,10,9)            -3.6893         calculate D2E/DX2 analytically  !
 ! D34   D(3,4,10,39)          178.3216         calculate D2E/DX2 analytically  !
 ! D35   D(6,4,10,9)           171.4517         calculate D2E/DX2 analytically  !
 ! D36   D(6,4,10,39)           -6.5374         calculate D2E/DX2 analytically  !
 ! D37   D(1,5,6,4)              0.6851         calculate D2E/DX2 analytically  !
 ! D38   D(1,5,6,38)          -178.0097         calculate D2E/DX2 analytically  !
 ! D39   D(37,5,6,4)           179.0741         calculate D2E/DX2 analytically  !
 ! D40   D(37,5,6,38)            0.3794         calculate D2E/DX2 analytically  !
 ! D41   D(3,7,8,9)             -4.5835         calculate D2E/DX2 analytically  !
 ! D42   D(3,7,8,14)           169.791          calculate D2E/DX2 analytically  !
 ! D43   D(11,7,8,9)          -171.1542         calculate D2E/DX2 analytically  !
 ! D44   D(11,7,8,14)            3.2202         calculate D2E/DX2 analytically  !
 ! D45   D(3,7,11,12)         -168.9321         calculate D2E/DX2 analytically  !
 ! D46   D(3,7,11,18)            0.8408         calculate D2E/DX2 analytically  !
 ! D47   D(8,7,11,12)           -0.9095         calculate D2E/DX2 analytically  !
 ! D48   D(8,7,11,18)          168.8634         calculate D2E/DX2 analytically  !
 ! D49   D(7,8,9,10)             4.1863         calculate D2E/DX2 analytically  !
 ! D50   D(7,8,9,40)          -177.9068         calculate D2E/DX2 analytically  !
 ! D51   D(14,8,9,10)         -168.8845         calculate D2E/DX2 analytically  !
 ! D52   D(14,8,9,40)            9.0224         calculate D2E/DX2 analytically  !
 ! D53   D(7,8,14,13)           -3.5617         calculate D2E/DX2 analytically  !
 ! D54   D(7,8,14,41)         -178.7017         calculate D2E/DX2 analytically  !
 ! D55   D(9,8,14,13)          169.5109         calculate D2E/DX2 analytically  !
 ! D56   D(9,8,14,41)           -5.6292         calculate D2E/DX2 analytically  !
 ! D57   D(8,9,10,4)            -0.0534         calculate D2E/DX2 analytically  !
 ! D58   D(8,9,10,39)          177.9618         calculate D2E/DX2 analytically  !
 ! D59   D(40,9,10,4)         -177.9732         calculate D2E/DX2 analytically  !
 ! D60   D(40,9,10,39)           0.0419         calculate D2E/DX2 analytically  !
 ! D61   D(7,11,12,13)          -1.049          calculate D2E/DX2 analytically  !
 ! D62   D(7,11,12,20)         172.2491         calculate D2E/DX2 analytically  !
 ! D63   D(18,11,12,13)       -167.5924         calculate D2E/DX2 analytically  !
 ! D64   D(18,11,12,20)          5.7057         calculate D2E/DX2 analytically  !
 ! D65   D(7,11,18,2)           -1.0914         calculate D2E/DX2 analytically  !
 ! D66   D(7,11,18,17)        -177.4292         calculate D2E/DX2 analytically  !
 ! D67   D(12,11,18,2)         166.6063         calculate D2E/DX2 analytically  !
 ! D68   D(12,11,18,17)         -9.7316         calculate D2E/DX2 analytically  !
 ! D69   D(11,12,13,14)          0.5083         calculate D2E/DX2 analytically  !
 ! D70   D(11,12,13,19)        174.2266         calculate D2E/DX2 analytically  !
 ! D71   D(20,12,13,14)       -172.9252         calculate D2E/DX2 analytically  !
 ! D72   D(20,12,13,19)          0.7931         calculate D2E/DX2 analytically  !
 ! D73   D(11,12,20,21)       -172.8841         calculate D2E/DX2 analytically  !
 ! D74   D(11,12,20,27)         21.6267         calculate D2E/DX2 analytically  !
 ! D75   D(11,12,20,44)       -100.2119         calculate D2E/DX2 analytically  !
 ! D76   D(13,12,20,21)          0.1308         calculate D2E/DX2 analytically  !
 ! D77   D(13,12,20,27)       -165.3584         calculate D2E/DX2 analytically  !
 ! D78   D(13,12,20,44)         72.803          calculate D2E/DX2 analytically  !
 ! D79   D(12,13,14,8)           1.9627         calculate D2E/DX2 analytically  !
 ! D80   D(12,13,14,41)        177.2429         calculate D2E/DX2 analytically  !
 ! D81   D(19,13,14,8)        -171.5418         calculate D2E/DX2 analytically  !
 ! D82   D(19,13,14,41)          3.7384         calculate D2E/DX2 analytically  !
 ! D83   D(12,13,19,22)         -5.3274         calculate D2E/DX2 analytically  !
 ! D84   D(12,13,19,42)        178.482          calculate D2E/DX2 analytically  !
 ! D85   D(14,13,19,22)        168.5543         calculate D2E/DX2 analytically  !
 ! D86   D(14,13,19,42)         -7.6362         calculate D2E/DX2 analytically  !
 ! D87   D(1,15,16,17)           3.2681         calculate D2E/DX2 analytically  !
 ! D88   D(1,15,16,23)        -174.8142         calculate D2E/DX2 analytically  !
 ! D89   D(36,15,16,17)       -177.574          calculate D2E/DX2 analytically  !
 ! D90   D(36,15,16,23)          4.3437         calculate D2E/DX2 analytically  !
 ! D91   D(15,16,17,18)         -3.5432         calculate D2E/DX2 analytically  !
 ! D92   D(15,16,17,26)       -178.6832         calculate D2E/DX2 analytically  !
 ! D93   D(23,16,17,18)        174.5737         calculate D2E/DX2 analytically  !
 ! D94   D(23,16,17,26)         -0.5663         calculate D2E/DX2 analytically  !
 ! D95   D(15,16,23,24)        173.4105         calculate D2E/DX2 analytically  !
 ! D96   D(15,16,23,35)         -3.7731         calculate D2E/DX2 analytically  !
 ! D97   D(17,16,23,24)         -4.7772         calculate D2E/DX2 analytically  !
 ! D98   D(17,16,23,35)        178.0393         calculate D2E/DX2 analytically  !
 ! D99   D(16,17,18,2)          -0.2631         calculate D2E/DX2 analytically  !
 ! D100  D(16,17,18,11)        175.6823         calculate D2E/DX2 analytically  !
 ! D101  D(26,17,18,2)         174.8668         calculate D2E/DX2 analytically  !
 ! D102  D(26,17,18,11)         -9.1878         calculate D2E/DX2 analytically  !
 ! D103  D(16,17,26,25)          7.4203         calculate D2E/DX2 analytically  !
 ! D104  D(16,17,26,27)       -176.6841         calculate D2E/DX2 analytically  !
 ! D105  D(18,17,26,25)       -167.3382         calculate D2E/DX2 analytically  !
 ! D106  D(18,17,26,27)          8.5575         calculate D2E/DX2 analytically  !
 ! D107  D(13,19,22,21)          9.3272         calculate D2E/DX2 analytically  !
 ! D108  D(13,19,22,43)       -174.7463         calculate D2E/DX2 analytically  !
 ! D109  D(42,19,22,21)       -174.5777         calculate D2E/DX2 analytically  !
 ! D110  D(42,19,22,43)          1.3487         calculate D2E/DX2 analytically  !
 ! D111  D(12,20,21,22)          2.9893         calculate D2E/DX2 analytically  !
 ! D112  D(27,20,21,22)        169.3502         calculate D2E/DX2 analytically  !
 ! D113  D(44,20,21,22)        -97.6768         calculate D2E/DX2 analytically  !
 ! D114  D(12,20,27,26)        -39.4261         calculate D2E/DX2 analytically  !
 ! D115  D(12,20,27,28)        146.7753         calculate D2E/DX2 analytically  !
 ! D116  D(21,20,27,26)        154.5249         calculate D2E/DX2 analytically  !
 ! D117  D(21,20,27,28)        -19.2737         calculate D2E/DX2 analytically  !
 ! D118  D(44,20,27,26)         85.9848         calculate D2E/DX2 analytically  !
 ! D119  D(44,20,27,28)        -87.8138         calculate D2E/DX2 analytically  !
 ! D120  D(20,21,22,19)         -7.852          calculate D2E/DX2 analytically  !
 ! D121  D(20,21,22,43)        176.1718         calculate D2E/DX2 analytically  !
 ! D122  D(16,23,24,25)          2.9085         calculate D2E/DX2 analytically  !
 ! D123  D(16,23,24,34)       -176.5542         calculate D2E/DX2 analytically  !
 ! D124  D(35,23,24,25)       -179.9589         calculate D2E/DX2 analytically  !
 ! D125  D(35,23,24,34)          0.5784         calculate D2E/DX2 analytically  !
 ! D126  D(23,24,25,26)          4.6132         calculate D2E/DX2 analytically  !
 ! D127  D(23,24,25,29)       -174.7769         calculate D2E/DX2 analytically  !
 ! D128  D(34,24,25,26)       -175.9096         calculate D2E/DX2 analytically  !
 ! D129  D(34,24,25,29)          4.7003         calculate D2E/DX2 analytically  !
 ! D130  D(24,25,26,17)         -9.3443         calculate D2E/DX2 analytically  !
 ! D131  D(24,25,26,27)        174.3987         calculate D2E/DX2 analytically  !
 ! D132  D(29,25,26,17)        170.029          calculate D2E/DX2 analytically  !
 ! D133  D(29,25,26,27)         -6.228          calculate D2E/DX2 analytically  !
 ! D134  D(24,25,29,30)        178.5361         calculate D2E/DX2 analytically  !
 ! D135  D(24,25,29,33)          0.0914         calculate D2E/DX2 analytically  !
 ! D136  D(26,25,29,30)         -0.8518         calculate D2E/DX2 analytically  !
 ! D137  D(26,25,29,33)       -179.2966         calculate D2E/DX2 analytically  !
 ! D138  D(17,26,27,20)         19.64           calculate D2E/DX2 analytically  !
 ! D139  D(17,26,27,28)       -166.8115         calculate D2E/DX2 analytically  !
 ! D140  D(25,26,27,20)       -164.5624         calculate D2E/DX2 analytically  !
 ! D141  D(25,26,27,28)          8.9861         calculate D2E/DX2 analytically  !
 ! D142  D(20,27,28,30)        169.4399         calculate D2E/DX2 analytically  !
 ! D143  D(20,27,28,32)         -6.3526         calculate D2E/DX2 analytically  !
 ! D144  D(26,27,28,30)         -5.2037         calculate D2E/DX2 analytically  !
 ! D145  D(26,27,28,32)        179.0038         calculate D2E/DX2 analytically  !
 ! D146  D(27,28,30,29)         -1.8846         calculate D2E/DX2 analytically  !
 ! D147  D(27,28,30,31)       -179.8057         calculate D2E/DX2 analytically  !
 ! D148  D(32,28,30,29)        173.8238         calculate D2E/DX2 analytically  !
 ! D149  D(32,28,30,31)         -4.0973         calculate D2E/DX2 analytically  !
 ! D150  D(25,29,30,28)          4.9836         calculate D2E/DX2 analytically  !
 ! D151  D(25,29,30,31)       -177.1212         calculate D2E/DX2 analytically  !
 ! D152  D(33,29,30,28)       -176.6042         calculate D2E/DX2 analytically  !
 ! D153  D(33,29,30,31)          1.2909         calculate D2E/DX2 analytically  !
 --------------------------------------------------------------------------------
 Trust Radius=3.00D-01 FncErr=1.00D-07 GrdErr=1.00D-06 EigMax=2.50D+02 EigMin=1.00D-04
 Number of steps in this run=    264 maximum allowed number of steps=    264.
 Search for a saddle point of order  1.
 GradGradGradGradGradGradGradGradGradGradGradGradGradGradGradGradGradGrad

                          Input orientation:                          
 ---------------------------------------------------------------------
 Center     Atomic      Atomic             Coordinates (Angstroms)
 Number     Number       Type             X           Y           Z
 ---------------------------------------------------------------------
      1          6           0        1.499313   -2.834880   -0.133060
      2          6           0        1.372254   -1.473595    0.116258
      3          6           0        2.483587   -0.635446    0.269234
      4          6           0        3.795956   -1.018367    0.136540
      5          6           0        2.873483   -3.295876   -0.203985
      6          6           0        3.959354   -2.441207   -0.084140
      7          6           0        2.025859    0.682227    0.345787
      8          6           0        2.884057    1.773093    0.276161
      9          6           0        4.291262    1.412007    0.224253
     10          6           0        4.723174    0.097239    0.157889
     11          6           0        0.620893    0.688086    0.235662
     12          6           0       -0.024314    1.885610    0.054920
     13          6           0        0.813623    3.069378    0.015268
     14          6           0        2.220681    3.014082    0.142699
     15          6           0        0.260478   -3.487502   -0.313541
     16          6           0       -0.958965   -2.774273   -0.256880
     17          6           0       -1.027009   -1.326068   -0.081207
     18          6           0        0.197307   -0.706474    0.103824
     19          6           0        0.164028    4.310416   -0.300460
     20          6           0       -1.474273    1.974854   -0.237688
     21          6           0       -2.071693    3.249093   -0.570306
     22          6           0       -1.151031    4.362413   -0.655405
     23          6           0       -2.199347   -3.491374   -0.333797
     24          6           0       -3.376436   -2.850512   -0.149240
     25          6           0       -3.463594   -1.428476    0.069583
     26          6           0       -2.294007   -0.606361    0.003579
     27          6           0       -2.462400    0.828233    0.109482
     28          6           0       -3.727508    1.301223    0.460364
     29          6           0       -4.722941   -0.874950    0.361609
     30          6           0       -4.843396    0.473171    0.606588
     31          1           0       -5.799627    0.905488    0.878306
     32          1           0       -3.846404    2.370902    0.554869
     33          1           0       -5.584995   -1.531308    0.414464
     34          1           0       -4.306179   -3.409501   -0.153518
     35          1           0       -2.173914   -4.563412   -0.496399
     36          1           0        0.212677   -4.558087   -0.486852
     37          1           0        3.066376   -4.348589   -0.383666
     38          1           0        4.956315   -2.858767   -0.181111
     39          1           0        5.789824   -0.090457    0.088108
     40          1           0        5.036240    2.200663    0.203110
     41          1           0        2.778866    3.941052    0.056709
     42          1           0        0.771609    5.212583   -0.310024
     43          1           0       -1.562839    5.318952   -0.966420
     44          1           0       -1.668326    2.155897   -1.437524
 ---------------------------------------------------------------------
                    Distance matrix (angstroms):
                    1          2          3          4          5
     1  C    0.000000
     2  C    1.389748   0.000000
     3  C    2.442979   1.400342   0.000000
     4  C    2.940574   2.466166   1.373517   0.000000
     5  C    1.451169   2.382636   2.730173   2.480718   0.000000
     6  C    2.491821   2.769390   2.358715   1.449094   1.387061
     7  C    3.588396   2.264388   1.397010   2.463544   4.104390
     8  C    4.828912   3.584983   2.441615   2.939949   5.091670
     9  C    5.094968   4.105968   2.731625   2.481882   4.935347
    10  C    4.367523   3.701070   2.359020   1.450781   3.881435
    11  C    3.649502   2.291651   2.285277   3.605944   4.597761
    12  C    4.963849   3.638464   3.562474   4.799397   5.942395
    13  C    5.945791   4.578304   4.071732   5.061490   6.693844
    14  C    5.899726   4.567250   3.661173   4.329223   6.353102
    15  C    1.411808   2.340212   3.662795   4.335759   2.622312
    16  C    2.462140   2.695473   4.086874   5.084020   3.868142
    17  C    2.943044   2.411891   3.595004   4.837674   4.371391
    18  C    2.506281   1.403257   2.293356   3.612288   3.736531
    19  C    7.270919   5.923533   5.492400   6.463575   8.075031
    20  C    5.655679   4.485509   4.768154   6.072457   6.832621
    21  C    7.068097   5.885229   6.045250   7.289729   8.211308
    22  C    7.687535   6.404797   6.248520   7.352051   8.663134
    23  C    3.761830   4.126780   5.518138   6.502356   5.078255
    24  C    4.875801   4.951409   6.278655   7.408214   6.266006
    25  C    5.162314   4.836284   6.003142   7.271433   6.612153
    26  C    4.401618   3.769119   4.785062   6.105332   5.829196
    27  C    5.401147   4.472475   5.160491   6.525158   6.751162
    28  C    6.691723   5.815978   6.508834   7.879586   8.071416
    29  C    6.542360   6.129435   7.211098   8.523076   7.992899
    30  C    7.191678   6.531816   7.418054   8.779751   8.626295
    31  H    8.263640   7.594513   8.447312   9.814614   9.697714
    32  H    7.493337   6.496686   7.013451   8.370652   8.822988
    33  H    7.224023   6.963876   8.119463   9.399074   8.662680
    34  H    5.833896   6.005424   7.346770   8.452588   7.180738
    35  H    4.075835   4.743166   6.140637   6.971894   5.212329
    36  H    2.179459   3.349993   4.595194   5.075246   2.958560
    37  H    2.193127   3.374250   3.814886   3.448663   1.085218
    38  H    3.457418   3.853910   3.355645   2.198729   2.128327
    39  H    5.097966   4.629124   3.355745   2.199744   4.343394
    40  H    6.162756   5.189654   3.816271   3.450346   5.920742
    41  H    6.898299   5.594685   4.590936   5.063268   7.242240
    42  H    8.082235   6.726624   6.120936   6.940521   8.764873
    43  H    8.749642   7.478346   7.304468   8.372265   9.719955
    44  H    6.053381   4.983230   5.286114   6.512450   7.202186
                    6          7          8          9         10
     6  C    0.000000
     7  C    3.698524   0.000000
     8  C    4.364219   1.389727   0.000000
     9  C    3.879759   2.383149   1.453721   0.000000
    10  C    2.661899   2.766410   2.490949   1.385484   0.000000
    11  C    4.586946   1.409288   2.510138   3.741096   4.145342
    12  C    5.883051   2.394983   2.918943   4.344786   5.074201
    13  C    6.346027   2.697638   2.456647   3.858047   4.913099
    14  C    5.730150   2.348776   1.413483   2.619275   3.843264
    15  C    3.850849   4.575798   5.908026   6.367231   5.743542
    16  C    4.932609   4.606493   5.977582   6.732111   6.379994
    17  C    5.109536   3.679073   5.002894   5.989521   5.928539
    18  C    4.147002   2.308818   3.660134   4.611175   4.596994
    19  C    7.748271   4.128899   3.764181   5.070519   6.224689
    20  C    7.003533   3.776540   4.393152   5.811332   6.487701
    21  C    8.305986   4.921175   5.239708   6.670338   7.525601
    22  C    8.528284   4.963747   4.884089   6.252779   7.304755
    23  C    6.252582   5.977721   7.343545   8.153684   7.812886
    24  C    7.347488   6.473800   7.794387   8.780783   8.624804
    25  C    7.493291   5.887737   7.112341   8.260149   8.328192
    26  C    6.517582   4.520930   5.705125   6.891174   7.054055
    27  C    7.208721   4.496846   5.431864   6.779817   7.222823
    28  C    8.566803   5.787704   6.630941   8.023010   8.541375
    29  C    8.833691   6.926135   8.055175   9.300801   9.498197
    30  C    9.298339   6.877382   7.842991   9.190733   9.584462
    31  H   10.361678   7.846761   8.747667  10.124741  10.578356
    32  H    9.192094   6.113821   6.762704   8.200634   8.874954
    33  H    9.600579   7.926509   9.091921  10.307266  10.439174
    34  H    8.322346   7.555544   8.873748   9.864362   9.691409
    35  H    6.503129   6.772304   8.144398   8.833090   8.349825
    36  H    4.322146   5.607299   6.913921   7.265160   6.514011
    37  H    2.127259   5.188823   6.159838   5.920674   4.775317
    38  H    1.085215   4.626428   5.094848   4.341213   2.984501
    39  H    2.984345   3.851087   3.457118   2.126410   1.085284
    40  H    4.773799   3.374670   2.195460   1.085089   2.127075
    41  H    6.492043   3.357160   2.181575   2.951522   4.308767
    42  H    8.294169   4.746299   4.078743   5.207474   6.480783
    43  H    9.565203   6.008316   5.821684   7.138096   8.248898
    44  H    7.391603   4.358773   4.879287   6.231498   6.901789
                   11         12         13         14         15
    11  C    0.000000
    12  C    1.372233   0.000000
    13  C    2.399223   1.450868   0.000000
    14  C    2.824575   2.514191   1.413898   0.000000
    15  C    4.226944   5.393255   6.588381   6.805964   0.000000
    16  C    3.837509   4.762909   6.112642   6.616258   1.413841
    17  C    2.621603   3.367314   4.766254   5.425360   2.526539
    18  C    1.463422   2.602001   3.826845   4.235338   2.812881
    19  C    3.690180   2.457936   1.435908   2.471172   7.798525
    20  C    2.503907   1.481879   2.548811   3.857120   5.731705
    21  C    3.802415   2.538061   2.949617   4.357532   7.133489
    22  C    4.175451   2.812224   2.445732   3.717984   7.983132
    23  C    5.074044   5.813246   7.227953   7.879382   2.459911
    24  C    5.352426   5.805967   7.254568   8.112115   3.695929
    25  C    4.603309   4.776194   6.207111   7.214752   4.272597
    26  C    3.197827   3.371062   4.813373   5.788728   3.863539
    27  C    3.089055   2.658061   3.970382   5.168200   5.120408
    28  C    4.397160   3.770880   4.893501   6.198044   6.279717
    29  C    5.569157   5.458191   6.806704   7.961556   5.667073
    30  C    5.481079   5.052017   6.252345   7.521476   6.525573
    31  H    6.456263   5.915475   7.011585   8.325421   7.579164
    32  H    4.784402   3.885078   4.742878   6.114989   7.207046
    33  H    6.593233   6.536496   7.891006   9.036759   6.206951
    34  H    6.420103   6.812930   8.259342   9.162427   4.570126
    35  H    5.993754   6.820163   8.212592   8.782900   2.667824
    36  H    5.311403   6.470774   7.667560   7.859145   1.085575
    37  H    5.633121   6.972084   7.762749   7.429750   2.935890
    38  H    5.616916   6.882695   7.234871   6.486825   4.739592
    39  H    5.229316   6.140858   5.895120   4.730742   6.501915
    40  H    4.667359   5.072517   4.315141   2.931326   7.445136
    41  H    3.907769   3.476013   2.150282   1.085467   7.852565
    42  H    4.559776   3.440266   2.168158   2.671736   8.715087
    43  H    5.259145   3.898465   3.416411   4.567012   9.016893
    44  H    3.192890   2.236788   3.017470   4.284619   6.068902
                   16         17         18         19         20
    16  C    0.000000
    17  C    1.460407   0.000000
    18  C    2.396428   1.384588   0.000000
    19  C    7.173272   5.765119   5.033263   0.000000
    20  C    4.777041   3.334759   3.178102   2.853563   0.000000
    21  C    6.133297   4.718335   4.609699   2.489512   1.446109
    22  C    7.150385   5.718732   5.299817   1.363110   2.445283
    23  C    1.434816   2.475223   3.700153   8.151968   5.514945
    24  C    2.421067   2.801493   4.175234   7.989784   5.187505
    25  C    2.861977   2.443393   3.731575   6.799372   3.954045
    26  C    2.559300   1.459606   2.495339   5.505368   2.718979
    27  C    3.920789   2.595712   3.070733   4.380842   1.552953
    28  C    4.978849   3.806396   4.422911   4.977765   2.453186
    29  C    4.261159   3.749601   4.929876   7.156034   4.362841
    30  C    5.136173   4.274942   5.201252   6.373498   3.784025
    31  H    6.185572   5.355221   6.257912   6.967654   4.593220
    32  H    5.955591   4.692672   5.101498   4.536173   2.532194
    33  H    4.836922   4.589450   5.849091   8.227279   5.442105
    34  H    3.408525   3.885727   5.258704   8.921965   6.084246
    35  H    2.175888   3.459505   4.567157   9.178736   6.580680
    36  H    2.146538   3.485300   3.896673   8.870595   6.751829
    37  H    4.324109   5.097344   4.661996   9.132848   7.786189
    38  H    5.916369   6.177322   5.230842   8.624236   8.044846
    39  H    7.271041   6.929979   5.626364   7.153199   7.559018
    40  H    7.804105   7.020089   5.645934   5.333206   6.529324
    41  H    7.691899   6.499712   5.316593   2.664841   4.694869
    42  H    8.172367   6.785377   5.961236   1.087728   3.941079
    43  H    8.146680   6.725103   6.367833   2.107775   3.423724
    44  H    5.118954   3.791433   3.748267   3.048342   1.228837
                   21         22         23         24         25
    21  C    0.000000
    22  C    1.447184   0.000000
    23  C    6.745823   7.929966   0.000000
    24  C    6.251786   7.565376   1.352887   0.000000
    25  C    4.922042   6.277575   2.452873   1.441411   0.000000
    26  C    3.904266   5.140950   2.906215   2.496241   1.431141
    27  C    2.544666   3.846449   4.350253   3.799416   2.469153
    28  C    2.756484   4.153800   5.092637   4.210911   2.770129
    29  C    4.990522   6.420501   3.701053   2.444767   1.406281
    30  C    4.095505   5.509300   4.857256   3.710811   2.410081
    31  H    4.635564   5.992666   5.810646   4.586419   3.399775
    32  H    2.277463   3.563133   6.153763   5.289594   3.849327
    33  H    6.013759   7.452557   3.983010   2.633590   2.151711
    34  H    7.035873   8.402946   2.116115   1.084854   2.164297
    35  H    7.813523   8.985651   1.084597   2.121463   3.436777
    36  H    8.134947   9.025709   2.641810   3.988925   4.859944
    37  H    9.173841   9.682041   5.335273   6.618838   7.167496
    38  H    9.319352   9.469428   7.185193   8.332816   8.544205
    39  H    8.566770   8.279875   8.693164   9.575728   9.349673
    40  H    7.226347   6.610033   9.221783   9.818943   9.243141
    41  H    4.939623   4.016060   8.954108   9.168179   8.234094
    42  H    3.465170   2.130404   9.197065   9.068938   7.885728
    43  H    2.167984   1.086868   8.855913   8.408154   7.086181
    44  H    1.452532   2.397502   5.778570   5.444396   4.282766
                   26         27         28         29         30
    26  C    0.000000
    27  C    1.448320   0.000000
    28  C    2.429497   1.395470   0.000000
    29  C    2.469827   2.841557   2.395072   0.000000
    30  C    2.833442   2.458114   1.397232   1.375483   0.000000
    31  H    3.916658   3.425513   2.150572   2.143872   1.084023
    32  H    3.402639   2.119826   1.080408   3.367673   2.144307
    33  H    3.443103   3.925691   3.387565   1.084775   2.145884
    34  H    3.454144   4.628939   4.785669   2.619732   3.992681
    35  H    3.990320   5.433245   6.141905   4.564917   5.806021
    36  H    4.705329   6.043517   7.124169   6.216567   7.216165
    37  H    6.548888   7.590128   8.876352   8.561254   9.316355
    38  H    7.594380   8.289496   9.650170   9.895356  10.380588
    39  H    8.100718   8.303231   9.625744  10.545542  10.660763
    40  H    7.851861   7.623774   8.813538  10.233579  10.037641
    41  H    6.812916   6.096171   7.033103   8.919863   8.392106
    42  H    6.584562   5.464186   6.011180   8.227954   7.404761
    43  H    6.048540   4.704608   4.781595   7.079147   6.059538
    44  H    3.177786   2.187801   2.927913   4.664074   4.134130
                   31         32         33         34         35
    31  H    0.000000
    32  H    2.463154   0.000000
    33  H    2.489817   4.274302   0.000000
    34  H    4.681258   5.841769   2.342132   0.000000
    35  H    6.704064   7.210208   4.653902   2.448598   0.000000
    36  H    8.237846   8.097667   6.602027   4.674443   2.386616
    37  H   10.382866   9.686017   9.133472   7.435686   5.245903
    38  H   11.444749  10.265426  10.641244   9.278893   7.337942
    39  H   11.658975   9.956558  11.470356  10.630320   9.152601
    40  H   10.933864   8.891236  11.259792  10.903298   9.911021
    41  H    9.136751   6.826986  10.001444  10.211400   9.857072
    42  H    7.946341   5.490832   9.295771  10.007435  10.211803
    43  H    6.389996   4.027405   8.062918   9.185457   9.912389
    44  H    4.898391   2.959710   5.689080   6.291311   6.803708
                   36         37         38         39         40
    36  H    0.000000
    37  H    2.863239   0.000000
    38  H    5.048095   2.415050   0.000000
    39  H    7.169021   5.076557   2.903576   0.000000
    40  H    8.332077   6.864209   5.074628   2.414611   0.000000
    41  H    8.894726   8.306307   7.143905   5.031890   2.854142
    42  H    9.788241   9.832975   9.092583   7.311855   5.246146
    43  H   10.046808  10.734551  10.487667   9.188873   7.391845
    44  H    7.037011   8.113961   8.403053   7.937107   6.902528
                   41         42         43         44
    41  H    0.000000
    42  H    2.404239   0.000000
    43  H    4.668598   2.427307   0.000000
    44  H    5.019664   4.070365   3.199685   0.000000
 Stoichiometry    C30H14
 Framework group  C1[X(C30H14)]
 Deg. of freedom   126
 Full point group                 C1      NOp   1
 Largest Abelian subgroup         C1      NOp   1
 Largest concise Abelian subgroup C1      NOp   1
                         Standard orientation:                         
 ---------------------------------------------------------------------
 Center     Atomic      Atomic             Coordinates (Angstroms)
 Number     Number       Type             X           Y           Z
 ---------------------------------------------------------------------
      1          6           0       -1.499313   -2.834880    0.133060
      2          6           0       -1.372254   -1.473595   -0.116258
      3          6           0       -2.483587   -0.635446   -0.269234
      4          6           0       -3.795956   -1.018367   -0.136540
      5          6           0       -2.873483   -3.295876    0.203985
      6          6           0       -3.959354   -2.441207    0.084140
      7          6           0       -2.025859    0.682227   -0.345787
      8          6           0       -2.884057    1.773093   -0.276161
      9          6           0       -4.291262    1.412008   -0.224253
     10          6           0       -4.723174    0.097240   -0.157889
     11          6           0       -0.620893    0.688086   -0.235662
     12          6           0        0.024314    1.885610   -0.054920
     13          6           0       -0.813623    3.069378   -0.015268
     14          6           0       -2.220681    3.014082   -0.142699
     15          6           0       -0.260478   -3.487502    0.313541
     16          6           0        0.958965   -2.774273    0.256880
     17          6           0        1.027009   -1.326068    0.081207
     18          6           0       -0.197307   -0.706474   -0.103824
     19          6           0       -0.164028    4.310416    0.300460
     20          6           0        1.474273    1.974854    0.237688
     21          6           0        2.071693    3.249093    0.570306
     22          6           0        1.151031    4.362413    0.655405
     23          6           0        2.199347   -3.491374    0.333797
     24          6           0        3.376436   -2.850512    0.149240
     25          6           0        3.463594   -1.428476   -0.069583
     26          6           0        2.294007   -0.606361   -0.003579
     27          6           0        2.462400    0.828233   -0.109482
     28          6           0        3.727508    1.301223   -0.460364
     29          6           0        4.722941   -0.874951   -0.361609
     30          6           0        4.843396    0.473170   -0.606588
     31          1           0        5.799627    0.905487   -0.878306
     32          1           0        3.846404    2.370902   -0.554869
     33          1           0        5.584995   -1.531309   -0.414464
     34          1           0        4.306179   -3.409502    0.153518
     35          1           0        2.173913   -4.563412    0.496399
     36          1           0       -0.212678   -4.558087    0.486852
     37          1           0       -3.066377   -4.348589    0.383666
     38          1           0       -4.956315   -2.858766    0.181111
     39          1           0       -5.789824   -0.090456   -0.088108
     40          1           0       -5.036240    2.200664   -0.203110
     41          1           0       -2.778866    3.941052   -0.056709
     42          1           0       -0.771608    5.212583    0.310024
     43          1           0        1.562840    5.318952    0.966420
     44          1           0        1.668326    2.155897    1.437524
 ---------------------------------------------------------------------
 Rotational constants (GHZ):           0.2420030           0.1774328           0.1038334
 Standard basis: 6-311+G(d,p) (5D, 7F)
 There are   774 symmetry adapted cartesian basis functions of A   symmetry.
 There are   744 symmetry adapted basis functions of A   symmetry.
   744 basis functions,  1192 primitive gaussians,   774 cartesian basis functions
    97 alpha electrons       97 beta electrons
       nuclear repulsion energy      2582.7610780218 Hartrees.
 NAtoms=   44 NActive=   44 NUniq=   44 SFac= 1.00D+00 NAtFMM=   60 NAOKFM=F Big=F
 Integral buffers will be    131072 words long.
 Raffenetti 2 integral format.
 Two-electron integral symmetry is turned on.
 One-electron integrals computed using PRISM.
 NBasis=   744 RedAO= T EigKep=  1.31D-06  NBF=   744
 NBsUse=   721 1.00D-06 EigRej=  9.35D-07 NBFU=   721
 ExpMin= 4.38D-02 ExpMax= 4.56D+03 ExpMxC= 6.82D+02 IAcc=2 IRadAn=         4 AccDes= 0.00D+00
 Harris functional with IExCor=  402 and IRadAn=       4 diagonalized for initial guess.
 HarFok:  IExCor=  402 AccDes= 0.00D+00 IRadAn=         4 IDoV= 1 UseB2=F ITyADJ=14
 ICtDFT=  3500011 ScaDFX=  1.000000  1.000000  1.000000  1.000000
 FoFCou: FMM=F IPFlag=           0 FMFlag=      100000 FMFlg1=           0
         NFxFlg=           0 DoJE=T BraDBF=F KetDBF=T FulRan=T
         wScrn=  0.000000 ICntrl=       500 IOpCl=  0 I1Cent=   200000004 NGrid=           0
         NMat0=    1 NMatS0=      1 NMatT0=    0 NMatD0=    1 NMtDS0=    0 NMtDT0=    0
 Petite list used in FoFCou.
 Requested convergence on RMS density matrix=1.00D-08 within 128 cycles.
 Requested convergence on MAX density matrix=1.00D-06.
 Requested convergence on             energy=1.00D-06.
 No special actions if energy rises.
 SCF Done:  E(RB3LYP) =  -1151.78635161     A.U. after   17 cycles
            NFock= 17  Conv=0.43D-08     -V/T= 2.0044
 DoSCS=F DFT=T ScalE2(SS,OS)=  1.000000  1.000000
 Range of M.O.s used for correlation:     1   721
 NBasis=   744 NAE=    97 NBE=    97 NFC=     0 NFV=     0
 NROrb=    721 NOA=    97 NOB=    97 NVA=   624 NVB=   624

 **** Warning!!: The largest alpha MO coefficient is  0.15665570D+03


 **** Warning!!: The smallest alpha delta epsilon is  0.91730148D-01

 Symmetrizing basis deriv contribution to polar:
 IMax=3 JMax=2 DiffMx= 0.00D+00
 G2DrvN: will do    45 centers at a time, making    1 passes.
 Calling FoFCou, ICntrl=  3107 FMM=F I1Cent=   0 AccDes= 0.00D+00.
 End of G2Drv F.D. properties file   721 does not exist.
 End of G2Drv F.D. properties file   722 does not exist.
 End of G2Drv F.D. properties file   788 does not exist.
          IDoAtm=11111111111111111111111111111111111111111111
          Differentiating once with respect to nuclear coordinates.
 CalDSu exits because no D1Ps are significant.
          There are   135 degrees of freedom in the 1st order CPHF.  IDoFFX=6 NUNeed=     0.
    129 vectors produced by pass  0 Test12= 6.05D-14 1.00D-09 XBig12= 2.88D-01 1.13D-01.
 AX will form   129 AO Fock derivatives at one time.
    129 vectors produced by pass  1 Test12= 6.05D-14 1.00D-09 XBig12= 7.86D-02 6.50D-02.
    129 vectors produced by pass  2 Test12= 6.05D-14 1.00D-09 XBig12= 9.66D-04 4.40D-03.
    129 vectors produced by pass  3 Test12= 6.05D-14 1.00D-09 XBig12= 5.80D-06 2.28D-04.
    129 vectors produced by pass  4 Test12= 6.05D-14 1.00D-09 XBig12= 1.93D-08 1.28D-05.
    129 vectors produced by pass  5 Test12= 6.05D-14 1.00D-09 XBig12= 7.73D-11 5.64D-07.
    104 vectors produced by pass  6 Test12= 6.05D-14 1.00D-09 XBig12= 1.19D-11 2.50D-07.
     83 vectors produced by pass  7 Test12= 6.05D-14 1.00D-09 XBig12= 1.72D-12 6.94D-08.
     36 vectors produced by pass  8 Test12= 6.05D-14 1.00D-09 XBig12= 5.09D-14 1.55D-08.
      2 vectors produced by pass  9 Test12= 6.05D-14 1.00D-09 XBig12= 4.34D-16 1.31D-09.
      1 vectors produced by pass 10 Test12= 6.05D-14 1.00D-09 XBig12= 5.21D-16 1.22D-09.
 InvSVY:  IOpt=1 It=  1 EMax= 7.77D-16
 Solved reduced A of dimension  1000 with   135 vectors.
 End of Minotr F.D. properties file   721 does not exist.
 End of Minotr F.D. properties file   722 does not exist.
 End of Minotr F.D. properties file   788 does not exist.

 **********************************************************************

            Population analysis using the SCF Density.

 **********************************************************************

 Orbital symmetries:
       Occupied  (A) (A) (A) (A) (A) (A) (A) (A) (A) (A) (A) (A)
                 (A) (A) (A) (A) (A) (A) (A) (A) (A) (A) (A) (A)
                 (A) (A) (A) (A) (A) (A) (A) (A) (A) (A) (A) (A)
                 (A) (A) (A) (A) (A) (A) (A) (A) (A) (A) (A) (A)
                 (A) (A) (A) (A) (A) (A) (A) (A) (A) (A) (A) (A)
                 (A) (A) (A) (A) (A) (A) (A) (A) (A) (A) (A) (A)
                 (A) (A) (A) (A) (A) (A) (A) (A) (A) (A) (A) (A)
                 (A) (A) (A) (A) (A) (A) (A) (A) (A) (A) (A) (A)
                 (A)
       Virtual   (A) (A) (A) (A) (A) (A) (A) (A) (A) (A) (A) (A)
                 (A) (A) (A) (A) (A) (A) (A) (A) (A) (A) (A) (A)
                 (A) (A) (A) (A) (A) (A) (A) (A) (A) (A) (A) (A)
                 (A) (A) (A) (A) (A) (A) (A) (A) (A) (A) (A) (A)
                 (A) (A) (A) (A) (A) (A) (A) (A) (A) (A) (A) (A)
                 (A) (A) (A) (A) (A) (A) (A) (A) (A) (A) (A) (A)
                 (A) (A) (A) (A) (A) (A) (A) (A) (A) (A) (A) (A)
                 (A) (A) (A) (A) (A) (A) (A) (A) (A) (A) (A) (A)
                 (A) (A) (A) (A) (A) (A) (A) (A) (A) (A) (A) (A)
                 (A) (A) (A) (A) (A) (A) (A) (A) (A) (A) (A) (A)
                 (A) (A) (A) (A) (A) (A) (A) (A) (A) (A) (A) (A)
                 (A) (A) (A) (A) (A) (A) (A) (A) (A) (A) (A) (A)
                 (A) (A) (A) (A) (A) (A) (A) (A) (A) (A) (A) (A)
                 (A) (A) (A) (A) (A) (A) (A) (A) (A) (A) (A) (A)
                 (A) (A) (A) (A) (A) (A) (A) (A) (A) (A) (A) (A)
                 (A) (A) (A) (A) (A) (A) (A) (A) (A) (A) (A) (A)
                 (A) (A) (A) (A) (A) (A) (A) (A) (A) (A) (A) (A)
                 (A) (A) (A) (A) (A) (A) (A) (A) (A) (A) (A) (A)
                 (A) (A) (A) (A) (A) (A) (A) (A) (A) (A) (A) (A)
                 (A) (A) (A) (A) (A) (A) (A) (A) (A) (A) (A) (A)
                 (A) (A) (A) (A) (A) (A) (A) (A) (A) (A) (A) (A)
                 (A) (A) (A) (A) (A) (A) (A) (A) (A) (A) (A) (A)
                 (A) (A) (A) (A) (A) (A) (A) (A) (A) (A) (A) (A)
                 (A) (A) (A) (A) (A) (A) (A) (A) (A) (A) (A) (A)
                 (A) (A) (A) (A) (A) (A) (A) (A) (A) (A) (A) (A)
                 (A) (A) (A) (A) (A) (A) (A) (A) (A) (A) (A) (A)
                 (A) (A) (A) (A) (A) (A) (A) (A) (A) (A) (A) (A)
                 (A) (A) (A) (A) (A) (A) (A) (A) (A) (A) (A) (A)
                 (A) (A) (A) (A) (A) (A) (A) (A) (A) (A) (A) (A)
                 (A) (A) (A) (A) (A) (A) (A) (A) (A) (A) (A) (A)
                 (A) (A) (A) (A) (A) (A) (A) (A) (A) (A) (A) (A)
                 (A) (A) (A) (A) (A) (A) (A) (A) (A) (A) (A) (A)
                 (A) (A) (A) (A) (A) (A) (A) (A) (A) (A) (A) (A)
                 (A) (A) (A) (A) (A) (A) (A) (A) (A) (A) (A) (A)
                 (A) (A) (A) (A) (A) (A) (A) (A) (A) (A) (A) (A)
                 (A) (A) (A) (A) (A) (A) (A) (A) (A) (A) (A) (A)
                 (A) (A) (A) (A) (A) (A) (A) (A) (A) (A) (A) (A)
                 (A) (A) (A) (A) (A) (A) (A) (A) (A) (A) (A) (A)
                 (A) (A) (A) (A) (A) (A) (A) (A) (A) (A) (A) (A)
                 (A) (A) (A) (A) (A) (A) (A) (A) (A) (A) (A) (A)
                 (A) (A) (A) (A) (A) (A) (A) (A) (A) (A) (A) (A)
                 (A) (A) (A) (A) (A) (A) (A) (A) (A) (A) (A) (A)
                 (A) (A) (A) (A) (A) (A) (A) (A) (A) (A) (A) (A)
                 (A) (A) (A) (A) (A) (A) (A) (A) (A) (A) (A) (A)
                 (A) (A) (A) (A) (A) (A) (A) (A) (A) (A) (A) (A)
                 (A) (A) (A) (A) (A) (A) (A) (A) (A) (A) (A) (A)
                 (A) (A) (A) (A) (A) (A) (A) (A) (A) (A) (A) (A)
                 (A) (A) (A) (A) (A) (A) (A) (A) (A) (A) (A) (A)
                 (A) (A) (A) (A) (A) (A) (A) (A) (A) (A) (A) (A)
                 (A) (A) (A) (A) (A) (A) (A) (A) (A) (A) (A) (A)
                 (A) (A) (A) (A) (A) (A) (A) (A) (A) (A) (A) (A)
                 (A) (A) (A) (A) (A) (A) (A) (A) (A) (A) (A) (A)
 The electronic state is 1-A.
 Alpha  occ. eigenvalues --  -10.22776 -10.21128 -10.20958 -10.20794 -10.20713
 Alpha  occ. eigenvalues --  -10.20524 -10.20438 -10.20401 -10.20365 -10.20261
 Alpha  occ. eigenvalues --  -10.20148 -10.20089 -10.20070 -10.19972 -10.19908
 Alpha  occ. eigenvalues --  -10.19880 -10.19646 -10.19520 -10.19490 -10.19105
 Alpha  occ. eigenvalues --  -10.18488 -10.18406 -10.18294 -10.17921 -10.17848
 Alpha  occ. eigenvalues --  -10.17802 -10.17585 -10.17456 -10.17322 -10.16985
 Alpha  occ. eigenvalues --   -0.93334  -0.89243  -0.89168  -0.85986  -0.85053
 Alpha  occ. eigenvalues --   -0.84023  -0.81448  -0.80286  -0.78751  -0.78242
 Alpha  occ. eigenvalues --   -0.76017  -0.75228  -0.73120  -0.72160  -0.71920
 Alpha  occ. eigenvalues --   -0.67196  -0.65708  -0.64210  -0.64025  -0.62885
 Alpha  occ. eigenvalues --   -0.60646  -0.60008  -0.58838  -0.56878  -0.56295
 Alpha  occ. eigenvalues --   -0.53142  -0.52599  -0.51496  -0.51343  -0.50565
 Alpha  occ. eigenvalues --   -0.49191  -0.47735  -0.47513  -0.46420  -0.45770
 Alpha  occ. eigenvalues --   -0.45286  -0.44968  -0.44524  -0.43974  -0.43195
 Alpha  occ. eigenvalues --   -0.42927  -0.42450  -0.41395  -0.41026  -0.40968
 Alpha  occ. eigenvalues --   -0.40877  -0.39673  -0.38864  -0.37946  -0.37237
 Alpha  occ. eigenvalues --   -0.36369  -0.35835  -0.35116  -0.34770  -0.34700
 Alpha  occ. eigenvalues --   -0.34059  -0.33311  -0.32738  -0.30541  -0.29867
 Alpha  occ. eigenvalues --   -0.28816  -0.26693  -0.25431  -0.23378  -0.22581
 Alpha  occ. eigenvalues --   -0.21566  -0.19585
 Alpha virt. eigenvalues --   -0.10412  -0.07494  -0.06150  -0.04857  -0.03422
 Alpha virt. eigenvalues --   -0.01575  -0.00145   0.00327   0.00475   0.00604
 Alpha virt. eigenvalues --    0.00763   0.01399   0.01715   0.02091   0.02887
 Alpha virt. eigenvalues --    0.03221   0.03351   0.03506   0.04023   0.04376
 Alpha virt. eigenvalues --    0.04837   0.04954   0.05223   0.05581   0.06267
 Alpha virt. eigenvalues --    0.06856   0.07009   0.07151   0.07238   0.07920
 Alpha virt. eigenvalues --    0.08373   0.08509   0.08564   0.09160   0.09240
 Alpha virt. eigenvalues --    0.09619   0.10070   0.10465   0.10588   0.10693
 Alpha virt. eigenvalues --    0.11415   0.11876   0.12211   0.12369   0.12931
 Alpha virt. eigenvalues --    0.13124   0.13499   0.13894   0.14062   0.14781
 Alpha virt. eigenvalues --    0.14878   0.14992   0.15416   0.15631   0.15767
 Alpha virt. eigenvalues --    0.16054   0.16140   0.16429   0.16515   0.16651
 Alpha virt. eigenvalues --    0.16924   0.17249   0.17498   0.17753   0.17958
 Alpha virt. eigenvalues --    0.18075   0.18598   0.18646   0.19056   0.19222
 Alpha virt. eigenvalues --    0.19392   0.19673   0.19780   0.20144   0.20173
 Alpha virt. eigenvalues --    0.20296   0.20470   0.20799   0.21173   0.21199
 Alpha virt. eigenvalues --    0.21387   0.21726   0.21891   0.22091   0.22338
 Alpha virt. eigenvalues --    0.22612   0.22666   0.22772   0.23049   0.23344
 Alpha virt. eigenvalues --    0.23526   0.23869   0.24138   0.24414   0.24710
 Alpha virt. eigenvalues --    0.24935   0.25507   0.25602   0.25682   0.25960
 Alpha virt. eigenvalues --    0.26096   0.26382   0.26398   0.27026   0.27090
 Alpha virt. eigenvalues --    0.27806   0.27970   0.28129   0.28451   0.28544
 Alpha virt. eigenvalues --    0.28701   0.29158   0.29406   0.29497   0.29726
 Alpha virt. eigenvalues --    0.29935   0.30520   0.30669   0.31037   0.31250
 Alpha virt. eigenvalues --    0.31681   0.32071   0.32313   0.32866   0.33056
 Alpha virt. eigenvalues --    0.33745   0.33892   0.33931   0.34628   0.34727
 Alpha virt. eigenvalues --    0.34852   0.35682   0.35918   0.36667   0.37071
 Alpha virt. eigenvalues --    0.37541   0.38113   0.38738   0.39080   0.39378
 Alpha virt. eigenvalues --    0.39567   0.40001   0.40242   0.41452   0.41722
 Alpha virt. eigenvalues --    0.42753   0.42911   0.43515   0.43690   0.44259
 Alpha virt. eigenvalues --    0.45186   0.45631   0.46402   0.47127   0.47627
 Alpha virt. eigenvalues --    0.48699   0.48957   0.49990   0.50491   0.50845
 Alpha virt. eigenvalues --    0.51317   0.51730   0.52305   0.52981   0.53207
 Alpha virt. eigenvalues --    0.53529   0.53756   0.54205   0.54479   0.54952
 Alpha virt. eigenvalues --    0.55804   0.55960   0.56421   0.56794   0.57241
 Alpha virt. eigenvalues --    0.57630   0.57826   0.58555   0.58783   0.58901
 Alpha virt. eigenvalues --    0.59221   0.59561   0.59849   0.60403   0.60449
 Alpha virt. eigenvalues --    0.60829   0.61413   0.61791   0.62096   0.62950
 Alpha virt. eigenvalues --    0.63212   0.63457   0.63877   0.64238   0.64882
 Alpha virt. eigenvalues --    0.65457   0.65785   0.66121   0.66517   0.67002
 Alpha virt. eigenvalues --    0.67465   0.67828   0.67979   0.68306   0.68411
 Alpha virt. eigenvalues --    0.68735   0.69758   0.70176   0.70403   0.70706
 Alpha virt. eigenvalues --    0.70851   0.71324   0.71521   0.71808   0.72379
 Alpha virt. eigenvalues --    0.72650   0.72914   0.73120   0.73515   0.73937
 Alpha virt. eigenvalues --    0.74409   0.74532   0.75090   0.75441   0.75804
 Alpha virt. eigenvalues --    0.76191   0.76562   0.77432   0.77701   0.78251
 Alpha virt. eigenvalues --    0.79081   0.80005   0.81899   0.82556   0.82779
 Alpha virt. eigenvalues --    0.83438   0.84310   0.84991   0.85283   0.85546
 Alpha virt. eigenvalues --    0.86423   0.87222   0.88047   0.88587   0.88821
 Alpha virt. eigenvalues --    0.89268   0.89609   0.90128   0.90267   0.91009
 Alpha virt. eigenvalues --    0.91592   0.91825   0.92301   0.92756   0.93256
 Alpha virt. eigenvalues --    0.93462   0.93814   0.94263   0.94464   0.94709
 Alpha virt. eigenvalues --    0.94946   0.95354   0.95408   0.95817   0.96183
 Alpha virt. eigenvalues --    0.97488   0.97690   0.98061   0.98494   0.99238
 Alpha virt. eigenvalues --    0.99518   0.99711   1.00454   1.00838   1.01224
 Alpha virt. eigenvalues --    1.01606   1.02521   1.03256   1.03812   1.04841
 Alpha virt. eigenvalues --    1.05009   1.05158   1.05477   1.05957   1.06384
 Alpha virt. eigenvalues --    1.07122   1.08118   1.08786   1.09799   1.10645
 Alpha virt. eigenvalues --    1.10907   1.11645   1.13376   1.14306   1.15482
 Alpha virt. eigenvalues --    1.16006   1.16636   1.17491   1.17721   1.18367
 Alpha virt. eigenvalues --    1.19257   1.20714   1.21261   1.22282   1.23408
 Alpha virt. eigenvalues --    1.25101   1.27543   1.28361   1.29691   1.30976
 Alpha virt. eigenvalues --    1.32195   1.33133   1.34187   1.35649   1.36236
 Alpha virt. eigenvalues --    1.37560   1.38304   1.38938   1.39353   1.40852
 Alpha virt. eigenvalues --    1.42584   1.43930   1.44555   1.45146   1.45728
 Alpha virt. eigenvalues --    1.45938   1.46620   1.47406   1.48499   1.48933
 Alpha virt. eigenvalues --    1.49450   1.49568   1.50595   1.50798   1.51577
 Alpha virt. eigenvalues --    1.51929   1.52267   1.53262   1.54054   1.54234
 Alpha virt. eigenvalues --    1.55230   1.55467   1.56194   1.57069   1.57629
 Alpha virt. eigenvalues --    1.57935   1.59234   1.59891   1.60497   1.60853
 Alpha virt. eigenvalues --    1.62501   1.62547   1.63765   1.64664   1.65592
 Alpha virt. eigenvalues --    1.66687   1.67433   1.68947   1.69262   1.70937
 Alpha virt. eigenvalues --    1.71104   1.71952   1.72317   1.72885   1.72966
 Alpha virt. eigenvalues --    1.73628   1.74419   1.75176   1.75439   1.75545
 Alpha virt. eigenvalues --    1.76058   1.76940   1.78489   1.78651   1.79728
 Alpha virt. eigenvalues --    1.80146   1.80591   1.81965   1.82613   1.83540
 Alpha virt. eigenvalues --    1.84142   1.84272   1.85125   1.85669   1.86317
 Alpha virt. eigenvalues --    1.87200   1.87285   1.87944   1.88498   1.89314
 Alpha virt. eigenvalues --    1.90550   1.90940   1.91308   1.92064   1.92771
 Alpha virt. eigenvalues --    1.93278   1.93497   1.94289   1.94476   1.94990
 Alpha virt. eigenvalues --    1.95313   1.96067   1.96534   1.97405   1.98764
 Alpha virt. eigenvalues --    2.00251   2.00856   2.01459   2.02506   2.02710
 Alpha virt. eigenvalues --    2.03283   2.03904   2.04599   2.05239   2.05999
 Alpha virt. eigenvalues --    2.06358   2.07889   2.09511   2.09899   2.11074
 Alpha virt. eigenvalues --    2.11304   2.11786   2.12297   2.13726   2.14907
 Alpha virt. eigenvalues --    2.16529   2.16963   2.18680   2.18949   2.19491
 Alpha virt. eigenvalues --    2.20290   2.20755   2.21558   2.22016   2.23386
 Alpha virt. eigenvalues --    2.24208   2.25588   2.25801   2.27493   2.28831
 Alpha virt. eigenvalues --    2.29563   2.30058   2.31888   2.32817   2.34271
 Alpha virt. eigenvalues --    2.36010   2.37558   2.38727   2.39357   2.39956
 Alpha virt. eigenvalues --    2.41864   2.42111   2.42704   2.45824   2.46270
 Alpha virt. eigenvalues --    2.46514   2.47151   2.48164   2.52571   2.52824
 Alpha virt. eigenvalues --    2.54793   2.55556   2.56187   2.57009   2.58723
 Alpha virt. eigenvalues --    2.59656   2.61239   2.62483   2.63233   2.64775
 Alpha virt. eigenvalues --    2.66456   2.66912   2.68780   2.68878   2.70254
 Alpha virt. eigenvalues --    2.70943   2.71495   2.71875   2.72173   2.72292
 Alpha virt. eigenvalues --    2.72662   2.73328   2.73796   2.74482   2.75116
 Alpha virt. eigenvalues --    2.75642   2.75666   2.76092   2.76707   2.76858
 Alpha virt. eigenvalues --    2.77350   2.77812   2.78361   2.78986   2.80249
 Alpha virt. eigenvalues --    2.80784   2.81202   2.81830   2.82955   2.83866
 Alpha virt. eigenvalues --    2.84292   2.85658   2.86023   2.87018   2.87431
 Alpha virt. eigenvalues --    2.87861   2.88660   2.89711   2.90317   2.90900
 Alpha virt. eigenvalues --    2.92773   2.93515   2.95290   2.96438   2.97526
 Alpha virt. eigenvalues --    2.99342   2.99849   3.02409   3.02823   3.05206
 Alpha virt. eigenvalues --    3.06578   3.08406   3.10251   3.12033   3.12319
 Alpha virt. eigenvalues --    3.13080   3.14608   3.16171   3.17246   3.18845
 Alpha virt. eigenvalues --    3.19529   3.20054   3.21387   3.22791   3.24248
 Alpha virt. eigenvalues --    3.24828   3.26350   3.29126   3.31157   3.33194
 Alpha virt. eigenvalues --    3.33641   3.35261   3.36452   3.37086   3.39191
 Alpha virt. eigenvalues --    3.40161   3.41524   3.42805   3.43695   3.44577
 Alpha virt. eigenvalues --    3.46788   3.47200   3.47837   3.48690   3.50333
 Alpha virt. eigenvalues --    3.53093   3.55574   3.57057   3.57669   3.60292
 Alpha virt. eigenvalues --    3.61898   3.62352   3.63444   3.66849   3.68925
 Alpha virt. eigenvalues --    3.70578   3.81637   3.82692   3.85186   3.87817
 Alpha virt. eigenvalues --    3.93370   3.96072   4.04828   4.05582   4.06020
 Alpha virt. eigenvalues --    4.06845   4.07551   4.09720   4.14663   4.19489
 Alpha virt. eigenvalues --    4.23569   4.27644   4.33698   4.42441   4.48715
 Alpha virt. eigenvalues --    4.67847   4.72885   4.75248   4.77400   4.78379
 Alpha virt. eigenvalues --    4.80706   4.82935   4.85066   4.88608  23.36905
 Alpha virt. eigenvalues --   23.60418  23.64351  23.75785  23.79476  23.81640
 Alpha virt. eigenvalues --   23.83875  23.85444  23.87834  23.88832  23.90989
 Alpha virt. eigenvalues --   23.92123  23.92898  23.94712  23.97235  23.98792
 Alpha virt. eigenvalues --   24.00596  24.04277  24.05136  24.07479  24.08522
 Alpha virt. eigenvalues --   24.10111  24.10347  24.11226  24.13039  24.16722
 Alpha virt. eigenvalues --   24.17482  24.19122  24.20655  24.22150
          Condensed to atoms (all electrons):
               1          2          3          4          5          6
     1  C    9.636758   0.223659  -0.238550   0.963514  -1.090333  -1.318350
     2  C    0.223659   7.974138   0.312066   0.217176   0.537159   0.958229
     3  C   -0.238550   0.312066   7.896061   0.207077   0.923209  -0.561502
     4  C    0.963514   0.217176   0.207077  10.861868  -1.687859  -1.095083
     5  C   -1.090333   0.537159   0.923209  -1.687859   9.643189   1.997270
     6  C   -1.318350   0.958229  -0.561502  -1.095083   1.997270   9.991487
     7  C   -0.004726  -0.166709   0.285982   0.359806  -0.420643  -1.144601
     8  C   -0.002235   0.089252  -0.112762   0.923512  -0.125437   0.408058
     9  C    0.162203  -1.037087   1.322356  -1.306775  -0.205427  -0.770796
    10  C   -0.183920  -1.256782  -0.301516  -1.013396  -0.227679  -1.897936
    11  C   -0.464642   0.542086  -0.630590   0.014294  -0.260862  -0.028112
    12  C   -0.174080   0.033901  -0.366321  -0.079558  -0.104919  -0.153099
    13  C    0.171301  -0.361073  -0.608938  -0.253966  -0.155022  -0.087203
    14  C   -0.062249  -0.128693  -0.467593  -0.561599  -0.019486  -0.096063
    15  C    1.055415   0.478056  -0.308577  -0.531432  -0.504095   0.156002
    16  C   -0.555257  -0.588910  -0.458173  -0.556400  -0.822481   0.085188
    17  C   -1.015221   0.559820  -0.095709  -0.398644  -0.350521   0.297027
    18  C    0.366662  -0.292859  -0.553476   0.374482  -0.544964  -0.712935
    19  C    0.089707  -0.021094   0.233225   0.024152  -0.036093   0.006615
    20  C    0.194029  -0.274919  -0.430121  -0.007071   0.034282   0.071205
    21  C    0.024657  -0.103399   0.005250   0.087891   0.001494   0.012944
    22  C   -0.015621  -0.031887  -0.098858  -0.059573   0.002368  -0.007707
    23  C   -0.902626  -0.892905   0.044426  -0.207849  -0.345538  -0.087727
    24  C   -0.112975  -0.210528  -0.005894  -0.019710  -0.131797  -0.033635
    25  C    0.136338  -0.409085   0.181685  -0.103274   0.049419   0.040465
    26  C   -0.884643  -0.113093  -0.348822   0.046964  -0.209529  -0.052950
    27  C   -0.282987   0.019117   0.031047  -0.159971  -0.055578  -0.061292
    28  C    0.012175   0.035942   0.028207   0.005217   0.000725  -0.000787
    29  C    0.064815  -0.259656   0.040613  -0.004784   0.004108   0.008059
    30  C   -0.028393  -0.029474   0.012694   0.001063  -0.006643  -0.000437
    31  H    0.000049   0.000078  -0.000001   0.000002   0.000001   0.000000
    32  H   -0.000170   0.000393  -0.000200  -0.000025  -0.000014  -0.000005
    33  H    0.000520   0.000056   0.000019  -0.000003   0.000038   0.000001
    34  H    0.002621   0.000867   0.000123   0.000016   0.000209   0.000003
    35  H    0.040803   0.006636   0.000881   0.000149   0.007683   0.000522
    36  H   -0.016853   0.027851  -0.006206   0.006902   0.004325   0.004889
    37  H   -0.119266   0.019230  -0.004811  -0.048551   0.412056   0.001600
    38  H   -0.008751   0.006683   0.027048  -0.110779   0.002832   0.398066
    39  H    0.008702  -0.015859   0.029145  -0.096833   0.003100   0.003583
    40  H    0.001911  -0.003765  -0.005833  -0.031194  -0.001096  -0.001153
    41  H   -0.000147   0.002806  -0.005764   0.007707   0.000095   0.000136
    42  H   -0.000013  -0.000292   0.001172   0.000181   0.000006   0.000010
    43  H    0.000007   0.000091   0.000110   0.000032   0.000001   0.000001
    44  H   -0.002584   0.004453  -0.003893  -0.001185  -0.000153  -0.000184
               7          8          9         10         11         12
     1  C   -0.004726  -0.002235   0.162203  -0.183920  -0.464642  -0.174080
     2  C   -0.166709   0.089252  -1.037087  -1.256782   0.542086   0.033901
     3  C    0.285982  -0.112762   1.322356  -0.301516  -0.630590  -0.366321
     4  C    0.359806   0.923512  -1.306775  -1.013396   0.014294  -0.079558
     5  C   -0.420643  -0.125437  -0.205427  -0.227679  -0.260862  -0.104919
     6  C   -1.144601   0.408058  -0.770796  -1.897936  -0.028112  -0.153099
     7  C    7.945335  -0.066377  -0.654143   1.090415   0.739859   0.794559
     8  C   -0.066377  12.284700  -0.467922  -1.466250  -0.115107  -1.464257
     9  C   -0.654143  -0.467922  11.572576   2.156638  -1.579234  -0.742538
    10  C    1.090415  -1.466250   2.156638   9.762557  -0.356403   0.052336
    11  C    0.739859  -0.115107  -1.579234  -0.356403   8.948203   1.226590
    12  C    0.794559  -1.464257  -0.742538   0.052336   1.226590   8.579201
    13  C   -0.657636  -1.878330  -0.793344  -0.125710   0.683114   1.576009
    14  C    0.599740   1.340653  -1.082410   0.147150   0.795923   0.195012
    15  C   -0.068443  -0.012115  -0.085719  -0.097336  -0.075079  -0.072870
    16  C   -0.525119   0.044821  -0.136147  -0.155974  -0.536625  -0.509224
    17  C   -0.182532  -0.300577  -0.302552  -0.293926   0.666057   0.130003
    18  C    0.327943  -0.441249  -0.357003   0.257002  -0.697419   0.204442
    19  C   -1.583632  -0.126021   0.619024  -0.178137  -1.730799  -1.046260
    20  C   -0.341612  -1.723192  -0.392863  -0.128484  -1.372603  -0.348414
    21  C    0.208778   0.577388   0.013703  -0.021856  -1.213555   0.020374
    22  C   -0.074067  -0.776984  -0.114623   0.009888  -0.009120   0.354747
    23  C   -0.142946   0.059215  -0.022387  -0.016509   0.345925   0.063969
    24  C   -0.031520   0.029589  -0.001125  -0.000359   0.242126   0.001311
    25  C   -0.041832  -0.119141  -0.024748  -0.014231  -0.534749  -0.765120
    26  C   -0.111176   0.003090  -0.001446   0.037587   0.828597   0.184632
    27  C   -0.168174  -0.524538   0.014893   0.035439   1.179414  -0.249482
    28  C   -0.039914   0.107243   0.023757  -0.008463  -0.365850  -1.286999
    29  C    0.018408  -0.017353  -0.005257  -0.001554  -0.262971   0.095420
    30  C   -0.004046   0.052033   0.006296  -0.001077   0.032061  -0.126621
    31  H    0.000031  -0.000005  -0.000000   0.000000  -0.000832  -0.000009
    32  H   -0.000742  -0.000319   0.000013   0.000004  -0.001396   0.004136
    33  H   -0.000008  -0.000014  -0.000000  -0.000000  -0.000990  -0.001110
    34  H    0.000027   0.000001   0.000000   0.000001   0.000269   0.000021
    35  H   -0.000174  -0.000001  -0.000000  -0.000002   0.000095  -0.000432
    36  H    0.002448  -0.000040   0.000147   0.000134  -0.000384   0.000042
    37  H   -0.003623   0.001355  -0.001419  -0.003216   0.002049  -0.000436
    38  H   -0.008230   0.007372   0.002257   0.018153   0.002001  -0.000045
    39  H   -0.008564  -0.012884   0.025502   0.400496  -0.001053  -0.000194
    40  H    0.010441  -0.105307   0.407775  -0.015340  -0.009583   0.003341
    41  H    0.020767  -0.035060   0.013702   0.003693  -0.006091  -0.004136
    42  H    0.007027   0.046638   0.008428   0.000933  -0.005815   0.007175
[...]
 .00020503,-0.00582383,-0.00587235,-0.00379402,0.02424462,0.00004602,-0
 .00002137,0.00001527,-0.00012467,0.00020152,0.00002746,0.00061545,0.00
 058536,-0.00001622,0.00029859,0.00007264,-0.00001787,0.00005122,0.0000
 1397,-0.00000188,-0.00006669,-0.00005888,-0.00000102,-0.00093562,0.003
 20999,-0.00043681,0.01212566,0.01231199,-0.00138248,0.00117529,-0.0001
 0054,0.00014781,-0.00008296,-0.00041248,0.00000710,-0.00059256,0.00051
 547,-0.00007358,-0.00433827,0.00209372,-0.00129097,-0.01289626,-0.0266
 4304,0.00267070,-0.13039901,-0.11903697,0.00981291,0.00001925,0.000038
 37,0.00001172,-0.00001384,0.00002652,0.00000484,-0.00008549,-0.0000141
 2,-0.00001257,0.00011381,0.00003644,0.00004706,0.00081180,-0.00227650,
 0.00064834,-0.00032780,-0.00140835,0.00058641,0.00002608,-0.00044958,-
 0.00000956,0.00041494,0.00058981,-0.00005280,0.00000289,-0.00000360,-0
 .00000271,-0.00000517,0.00001258,0.00000214,-0.00002018,-0.00002390,0.
 00001380,0.00001830,-0.00001213,0.00001821,-0.00022361,0.00028507,-0.0
 0024966,-0.00010707,-0.00013278,0.00000447,0.00000247,-0.00003038,-0.0
 0000647,0.00000014,0.00004781,0.00003728,-0.00001555,-0.00000767,0.000
 00206,-0.00000248,-0.00000003,-0.00000580,-0.00000229,-0.00000356,-0.0
 0000214,-0.00000238,-0.00000352,-0.00000005,0.00000068,-0.00000318,-0.
 00000023,0.00000874,0.00000330,-0.00000287,-0.00000394,-0.00000284,0.0
 0000066,-0.00000085,0.00000827,0.00000172,-0.00000082,-0.00002063,-0.0
 0001824,-0.00023068,-0.00055332,0.00002526,0.13494749,-0.00007739,0.00
 011906,-0.00003714,0.00020254,-0.00056353,-0.00004915,-0.00139923,-0.0
 0025037,0.00019363,-0.00005435,0.00003428,0.00000122,0.00000421,-0.000
 05112,-0.00001296,0.00004844,0.00004243,-0.00000021,0.00436013,-0.0036
 1189,0.00076499,-0.01690890,-0.01742162,0.00235781,-0.00097246,0.00137
 964,-0.00037270,0.00027139,-0.00003987,-0.00006561,0.00054034,0.000196
 19,-0.00008177,0.00079671,0.00090128,0.00074636,0.00157585,0.00292299,
 0.00003894,-0.12087389,-0.25763270,0.02155007,-0.00009274,-0.00003354,
 -0.00001960,0.00002682,-0.00009245,-0.00002709,0.00004590,0.00005455,0
 .00001734,-0.00010685,-0.00013740,-0.00010946,0.00216390,0.00051667,-0
 .00029967,0.00040322,-0.00010964,0.00033842,0.00002384,0.00021226,-0.0
 0007711,-0.00039771,0.00005315,-0.00022174,-0.00000721,0.00000889,0.00
 000911,-0.00000744,-0.00002631,-0.00000615,-0.00002189,0.00001162,-0.0
 0000011,0.00000320,-0.00002065,-0.00000264,0.00002619,0.00005237,-0.00
 003622,-0.00002763,-0.00000839,0.00000405,0.00002256,-0.00001965,-0.00
 000419,0.00000798,0.00003574,-0.00000216,-0.00000567,0.00000061,0.0000
 0055,0.00000662,0.00000804,-0.00000074,-0.00000270,-0.00000394,0.00000
 195,-0.00000477,-0.00000067,-0.00000048,-0.00000143,-0.00000530,0.0000
 0030,-0.00002220,-0.00002056,0.00001204,0.00000400,-0.00000898,0.00000
 029,0.00001525,-0.00003467,-0.00000456,0.00003876,-0.00003921,0.000029
 89,0.00097580,-0.00013655,0.00000681,0.12970174,0.27323552,0.00011418,
 0.00015218,-0.00029039,0.00000560,0.00003891,0.00020736,0.00036292,0.0
 0014713,0.00061359,-0.00003271,-0.00015883,-0.00018861,-0.00005676,-0.
 00001534,-0.00001797,0.00004361,0.00005876,0.00009227,-0.00101931,0.00
 054907,0.00573816,0.00205831,0.00356026,0.00280030,0.00001640,-0.00050
 894,-0.00296466,0.00001015,0.00011130,-0.00018170,0.00002802,-0.000120
 97,-0.00104184,-0.00099836,0.00035151,0.00604550,-0.00147067,-0.000762
 04,0.00296428,0.01136838,0.02238930,-0.03598395,-0.00010508,0.00001401
 ,-0.00007093,0.00005575,-0.00012484,0.00000873,-0.00007878,0.00011541,
 0.00007853,0.00014563,0.00020067,-0.00071612,0.00041210,-0.00146495,-0
 .00421752,-0.00023809,-0.00012548,0.00037245,-0.00018120,-0.00001208,-
 0.00043855,-0.00015106,-0.00007910,0.00016097,-0.00000970,-0.00000161,
 -0.00000108,0.00001118,-0.00000387,0.00000149,-0.00010512,-0.00000173,
 -0.00000189,0.00015562,-0.00002315,-0.00006319,0.00002116,0.00018330,-
 0.00002031,-0.00013274,-0.00003793,0.00012402,0.00008688,-0.00008768,-
 0.00002358,0.00003685,0.00012960,0.00000427,-0.00000296,0.00000310,-0.
 00002294,-0.00000187,0.00000181,0.00002181,0.00000299,-0.00000108,0.00
 000531,0.00000123,0.00000170,-0.00000058,-0.00000028,0.00000175,0.0000
 0444,-0.00000253,-0.00001153,0.00010367,0.00000044,0.00000222,-0.00000
 286,-0.00000180,0.00000189,0.00001186,0.00001365,-0.00001522,0.0002334
 6,-0.00018984,-0.00000584,0.00031776,-0.01012564,-0.02464229,0.0256000
 4,-0.00001372,0.00003888,0.00001417,0.00006635,0.00003257,-0.00001307,
 -0.00000493,-0.00005050,0.00000518,0.00000806,0.00004449,0.00000650,0.
 00002976,0.00001581,0.00000390,-0.00001505,-0.00003921,-0.00000790,0.0
 0017959,0.00018314,0.00004950,0.00010787,-0.00040314,0.00004346,-0.000
 06755,0.00001664,-0.00002353,0.00000368,-0.00004573,0.00000097,0.00053
 217,0.00063466,-0.00002672,-0.00109494,0.00232295,-0.00169463,0.009243
 54,0.01180028,-0.00099403,0.00086058,0.00161506,0.00026383,-0.00001760
 ,0.00000847,-0.00000435,0.00003589,-0.00000405,0.00000585,-0.00002178,
 -0.00000305,0.00001283,-0.00014799,0.00009500,-0.00000378,-0.13982299,
 -0.12396982,-0.00082561,-0.00034689,0.00171899,-0.00035472,-0.00409640
 ,-0.00037798,-0.00254219,-0.01135557,-0.02816774,-0.00034316,-0.000022
 90,-0.00002602,-0.00000391,0.00000794,0.00001840,-0.00000763,-0.000118
 50,-0.00005353,-0.00001103,-0.00006019,0.00018801,0.00004802,-0.000150
 89,-0.00040940,0.00046228,-0.00005863,-0.00019612,0.00014289,0.0000238
 8,-0.00011134,-0.00003636,0.00011860,0.00003429,0.00003102,-0.00001723
 ,-0.00000125,0.00001868,0.00012585,0.00003940,-0.00015925,-0.00000825,
 -0.00001791,-0.00001770,-0.00000484,-0.00000807,-0.00000176,0.00000484
 ,-0.00000493,-0.00000091,0.00000019,-0.00000467,-0.00000136,-0.0000008
 1,-0.00000458,0.00000034,0.00000494,-0.00000151,-0.00000195,0.00000771
 ,-0.00000833,0.00000202,0.00000325,0.00001299,-0.00000076,-0.00009464,
 -0.00023254,-0.00005276,0.14637023,0.00004361,-0.00000810,-0.00001005,
 -0.00011736,-0.00013730,-0.00001214,0.00010698,0.00015168,-0.00003078,
 0.00009153,-0.00000923,0.00000730,0.00000229,-0.00002707,-0.00000694,-
 0.00000483,0.00000984,0.00000341,-0.00001564,0.00015103,0.00000085,0.0
 0058806,0.00009620,0.00002946,-0.00012092,0.00001495,0.00001887,-0.000
 01549,-0.00011631,-0.00001136,-0.00139717,-0.00068810,-0.00006440,0.00
 372761,-0.00231285,0.00151611,-0.01677809,-0.01884814,0.00049441,-0.00
 210826,0.00086775,-0.00045589,-0.00000011,-0.00000193,0.00000155,-0.00
 001791,-0.00002142,-0.00000374,0.00000005,-0.00001373,0.00000299,0.000
 30074,-0.00010490,0.00006773,-0.12315106,-0.24296489,0.00453495,0.0005
 8257,0.00018968,0.00076801,-0.00068962,0.00070315,0.00022339,0.0030055
 2,0.00490724,0.00165355,0.00001534,-0.00000666,-0.00000228,-0.00000380
 ,0.00001190,0.00000068,0.00000526,-0.00001105,0.00001202,0.00002809,-0
 .00007305,0.00000699,0.00009558,0.00012799,-0.00038221,-0.00010239,0.0
 0005943,0.00003167,-0.00000581,0.00000501,-0.00000854,0.00000647,-0.00
 000975,0.00000159,-0.00000628,0.00000031,0.00000325,0.00002641,-0.0000
 2354,-0.00000966,-0.00000401,-0.00000791,0.00000305,-0.00000560,-0.000
 00296,0.00000047,-0.00000157,-0.00000654,-0.00000176,-0.00000069,-0.00
 000606,0.00000123,0.00000523,-0.00000647,-0.00000107,0.00000738,-0.000
 00812,-0.00000007,0.00000945,-0.00000148,-0.00000058,0.00003410,0.0000
 0104,0.00000003,0.00124897,0.00036210,-0.00003712,0.13464937,0.2566854
 7,-0.00005244,-0.00010113,0.00001690,-0.00002071,0.00011040,0.00005988
 ,-0.00002124,0.00000588,-0.00013732,0.00003999,-0.00000682,0.00000547,
 -0.00002316,0.00000884,-0.00001090,0.00000845,0.00002777,0.00002842,-0
 .00002908,-0.00006433,-0.00006864,0.00006311,0.00006482,0.00005686,-0.
 00000401,0.00001297,0.00008132,0.00000574,-0.00001469,-0.00001964,0.00
 006592,0.00050372,0.00008689,-0.00079059,0.00174827,0.00479294,0.00406
 541,0.00579313,0.00451545,0.00061949,-0.00034722,-0.00186281,0.0000717
 1,-0.00000578,0.00000211,-0.00007023,-0.00002636,-0.00000216,-0.000021
 81,0.00001044,-0.00004498,-0.00005519,0.00000256,-0.00011385,-0.001204
 14,0.00493085,-0.04515187,-0.00026102,-0.00037635,0.00091879,-0.004841
 46,0.00143533,0.00340279,-0.00524234,-0.00614788,0.01018667,0.00006488
 ,0.00000129,-0.00000767,-0.00002219,0.00005749,0.00001384,0.00022898,-
 0.00006180,0.00001417,-0.00008606,-0.00031181,0.00002762,0.00061782,-0
 .00002680,-0.00144025,-0.00003087,0.00040945,0.00001533,-0.00011235,0.
 00022449,0.00000785,-0.00012501,-0.00025368,-0.00009523,0.00001778,0.0
 0000574,-0.00000366,0.00004259,-0.00006868,0.00010812,0.00000335,-0.00
 000554,0.00003276,0.00000009,-0.00000164,0.00000602,0.00000149,0.00000
 158,0.00000121,0.00000037,0.00000253,0.00000226,-0.00000251,0.00000284
 ,-0.00001079,0.00000061,-0.00000156,0.00000801,-0.00000147,-0.00000230
 ,-0.00001043,-0.00000496,0.00000345,0.00000898,-0.00022326,-0.00003146
 ,0.00018712,0.00504221,-0.00742974,0.02776843,0.00004629,-0.00002428,-
 0.00000695,-0.00001711,0.00008331,0.00000248,0.00001888,-0.00001641,-0
 .00006903,-0.00002660,-0.00008690,-0.00000258,-0.00006926,0.00001573,0
 .00000358,0.00005127,0.00005591,0.00002053,-0.00006672,-0.00013314,-0.
 00004373,-0.00052586,0.00010785,0.00030680,0.00012038,0.00010694,0.000
 02347,-0.00005426,0.00008026,-0.00002063,0.00020879,0.00004467,0.00045
 294,-0.00043725,-0.00032800,0.00002002,-0.00426250,-0.00217904,-0.0034
 5532,0.00012604,0.00124177,-0.00019551,-0.00002026,0.00000487,-0.00000
 031,0.00001451,-0.00002792,-0.00000193,-0.00006576,0.00006450,0.000015
 23,0.00000324,0.00001841,0.00000163,-0.01165891,0.02983351,-0.01018117
 ,-0.00050157,-0.00511427,0.00028869,0.00655508,-0.01953136,0.00467083,
 -0.09390847,0.09221573,-0.03301195,-0.00000185,-0.00001649,-0.00000482
 ,-0.00001789,0.00001399,0.00000689,0.00002824,-0.00008254,-0.00000291,
 -0.00029528,-0.00010341,0.00006547,0.00076250,-0.00055096,-0.00018472,
 -0.00005150,0.00004749,0.00001750,-0.00001689,-0.00002986,-0.00001009,
 0.00001411,-0.00000476,-0.00002310,-0.00001433,-0.00000853,0.00001095,
 0.00003950,-0.00004256,0.00002019,-0.00000204,-0.00000577,0.00000406,-
 0.00000055,-0.00001158,-0.00000354,0.00000280,0.00000041,-0.00000045,0
 .00000232,0.00000176,0.00000103,0.00000068,0.00000226,-0.00000030,-0.0
 0000248,0.00000381,-0.00000075,-0.00000833,0.00001988,-0.00000139,-0.0
 0000797,-0.00000851,0.00000024,-0.00002023,-0.00005323,-0.00013001,0.0
 0051972,-0.00000451,0.00139873,0.10327962,0.00001053,-0.00002641,0.000
 00074,-0.00000493,0.00001577,0.00000179,-0.00000361,0.00000210,0.00006
 814,0.00004127,-0.00001293,-0.00001777,-0.00004154,0.00001966,0.000003
 97,0.00002788,0.00002882,-0.00000683,0.00003956,-0.00001833,0.00003933
 ,0.00007982,0.00004203,-0.00022235,-0.00003093,-0.00000275,-0.00004078
 ,0.00001747,-0.00001393,0.00002160,0.00014206,0.00019381,-0.00022502,-
 0.00050155,0.00004994,-0.00037280,-0.00073741,0.00203345,0.00164899,0.
 00005177,-0.00004708,0.00011975,-0.00000519,-0.00000818,-0.00000376,0.
 00003800,-0.00000253,0.00000844,-0.00003417,0.00001691,0.00001530,-0.0
 0001380,0.00001905,-0.00003242,-0.00089103,0.00083769,0.00063090,-0.00
 289863,-0.00238399,0.00208998,0.00216729,-0.02215341,0.00471476,0.0974
 7524,-0.25884612,0.06853901,-0.00001517,-0.00003277,-0.00000644,-0.000
 01723,0.00002142,0.00000304,0.00002614,-0.00009978,-0.00001667,-0.0004
 2106,0.00003265,0.00005996,0.00097649,-0.00069045,-0.00001068,0.000022
 02,0.00002995,0.00009054,-0.00003577,-0.00005184,0.00001196,0.00002420
 ,-0.00002335,-0.00003845,-0.00003499,-0.00000615,0.00000069,0.00006679
 ,-0.00002498,-0.00003807,-0.00001071,-0.00001947,0.00000303,-0.0000091
 3,-0.00002102,-0.00000357,0.00000533,-0.00001022,-0.00000075,0.0000022
 6,-0.00000791,-0.00000149,0.00000257,-0.00000774,-0.00000146,0.0000071
 7,-0.00000131,-0.00000001,0.00000693,-0.00000330,0.00000620,0.00001231
 ,0.00000561,0.00000143,0.00002312,0.00000909,0.00008819,0.00053128,0.0
 0058367,-0.00091491,-0.09576255,0.28014704,0.00002404,0.00003550,0.000
 02416,-0.00004196,-0.00004023,0.00000225,-0.00002523,0.00006944,0.0002
 8326,-0.00001554,-0.00000581,-0.00004616,-0.00000348,-0.00001761,-0.00
 000164,-0.00000338,0.00000719,-0.00004804,0.00017477,-0.00004034,0.000
 23454,-0.00024645,-0.00009800,-0.00108976,-0.00000031,0.00000641,-0.00
 011336,-0.00000716,0.00000329,0.00010109,0.00009645,0.00006510,-0.0014
 7901,0.00039679,-0.00063647,-0.00034850,-0.00353382,0.00052723,0.00910
 522,0.00004733,0.00079340,0.00010648,-0.00003117,-0.00000220,-0.000002
 05,0.00002716,0.00003179,0.00002446,-0.00001350,-0.00000653,-0.0000015
 9,0.00000711,-0.00004945,-0.00004253,-0.00306488,0.00861439,0.00376362
 ,-0.00186584,0.00133323,0.00486467,0.00505622,0.00052845,0.00223045,-0
 .03654847,0.06615821,-0.06356469,-0.00003762,-0.00000868,0.00000072,0.
 00000788,-0.00004575,-0.00000933,0.00002482,0.00002652,-0.00004474,-0.
 00006832,0.00006239,-0.00006386,0.00010632,-0.00012879,0.00062961,0.00
 028345,0.00002523,-0.00014063,0.00001751,-0.00001230,0.00006848,-0.000
 06197,0.00005397,-0.00001832,-0.00000386,0.00000063,-0.00002930,-0.000
 08999,0.00005844,0.00008183,0.00000134,0.00001215,0.00000588,0.0000024
 6,-0.00000268,0.00000049,-0.00000193,0.00000020,0.00000011,0.00000047,
 -0.00000026,-0.00000254,0.00000051,0.00000161,-0.00000024,-0.00000244,
 0.00000173,0.00000214,-0.00000110,0.00000488,0.00001636,-0.00000313,-0
 .00000163,0.00000491,-0.00002531,0.00002905,0.00037214,0.00126364,-0.0
 0094167,-0.00422767,0.03904374,-0.07651458,0.05052279,0.00022466,0.000
 22920,0.00001879,-0.00012177,-0.00038950,0.00005395,0.00017812,0.00030
 170,-0.00019750,-0.00006668,-0.00013039,0.00000311,0.00008292,-0.00019
 544,-0.00003779,-0.00014803,0.00001978,0.00003082,-0.00004966,-0.00045
 284,0.00078764,-0.00025417,-0.00039148,-0.00019036,-0.00021449,0.00007
 614,0.00003156,-0.00017611,-0.00015082,-0.00001133,0.00084497,-0.00203
 349,-0.00041726,-0.01099804,0.00067754,-0.01669087,0.00056558,0.000064
 66,-0.00091624,-0.00132963,0.00049279,0.00036386,-0.00019809,0.0000716
 6,0.00000413,-0.00003599,-0.00034423,-0.00003720,-0.00026347,0.0004118
 9,0.00010390,0.00026320,0.00012240,-0.00017184,-0.00355616,0.00152709,
 0.00043201,-0.01049179,0.00408734,0.02604287,0.00850177,-0.02593006,-0
 .00285210,0.00349358,-0.00010135,-0.00581641,0.00009336,0.00011646,-0.
 00000594,-0.00001736,-0.00002006,0.00003037,0.00000062,0.00008433,-0.0
 0008135,0.00090609,-0.00126435,-0.00001592,0.00178314,0.00020487,0.004
 82591,-0.00294239,0.00084808,0.00036101,-0.00012264,-0.00016702,0.0000
 2987,-0.00011652,0.00001154,-0.00145338,0.00005789,0.00002460,0.000052
 27,0.00016120,-0.00061957,0.00157289,0.00006868,-0.00005498,0.00025522
 ,0.00000493,0.00002747,0.00002014,-0.00000575,0.00001106,-0.00000155,-
 0.00001320,0.00000256,0.00001197,-0.00001162,0.00000893,-0.00000273,0.
 00000218,-0.00001988,-0.00000035,0.00001528,-0.00000914,-0.00001230,-0
 .00002645,0.00000489,-0.00001541,-0.00008576,0.00000482,0.00013623,-0.
 00071234,-0.00002951,0.00088737,0.00025991,-0.00032810,-0.00088515,0.0
 1445002,-0.00035933,-0.00096926,-0.00018881,-0.00100029,0.00095238,-0.
 00010785,-0.00032476,0.00098465,0.00037268,0.00095321,0.00031349,-0.00
 009315,-0.00027522,0.00036686,0.00008145,0.00024562,0.00008078,0.00000
 399,0.00281088,0.00049001,-0.00074155,0.00103728,-0.00135900,0.0002168
 2,-0.00036398,0.00032582,-0.00004164,0.00009466,-0.00047674,0.00001293
 ,-0.00361658,0.00680953,-0.00052849,0.01477527,-0.00346000,0.00649918,
 0.00106191,-0.00425715,0.00217968,-0.00085569,0.00099583,-0.00035927,0
 .00067874,0.00005112,0.00005112,-0.00002064,0.00084663,0.00006555,0.00
 123292,-0.00092865,0.00007384,-0.00041111,-0.00191222,0.00010896,0.002
 81874,-0.00470741,-0.00046483,-0.01132797,-0.01746545,-0.05571897,-0.0
 0513083,0.02232684,0.00859086,-0.01303331,-0.00665710,-0.00619479,-0.0
 0013820,-0.00018675,-0.00000777,0.00021544,0.00016312,-0.00001653,-0.0
 0074553,0.00062253,-0.00024978,-0.00126666,0.00335877,0.00026134,-0.01
 079514,-0.00686901,0.02399041,0.00168829,-0.00211506,0.00084222,-0.000
 80994,-0.00024782,0.00026513,-0.00028665,-0.00086466,-0.00109473,-0.00
 014340,-0.00002722,0.00000599,-0.00046690,-0.00016113,0.00015182,0.000
 01638,-0.00002115,0.00004955,-0.00002078,0.00001195,-0.00000392,0.0000
 1987,-0.00003288,0.00000410,0.00002994,-0.00000791,-0.00000940,0.00001
 026,-0.00001438,-0.00000145,-0.00000357,0.00003837,0.00000467,-0.00002
 959,-0.00000352,0.00001535,0.00003927,0.00000285,0.00000498,0.00019268
 ,0.00011253,0.00013954,0.00014072,0.00048912,0.00083667,0.00016354,0.0
 0042729,0.00010253,0.02320042,0.01297400,0.00002882,0.00069575,0.00013
 479,0.00049596,-0.00083254,-0.00005219,0.00018994,-0.00003788,0.000155
 47,-0.00015189,0.00018186,0.00010450,0.00048552,-0.00015530,-0.0000446
 7,-0.00025612,-0.00033732,-0.00008356,0.00000474,-0.00025063,-0.000100
 53,-0.00004956,-0.00090558,-0.00034020,-0.00033450,0.00018481,0.000125
 15,-0.00015798,-0.00031968,-0.00001305,0.00103968,-0.00306041,-0.00072
 616,-0.00673009,0.00122103,-0.00025152,0.00023911,0.00117656,0.0000412
 6,-0.00144072,0.00036270,-0.00030025,-0.00030120,0.00004751,-0.0000008
 4,-0.00003831,-0.00054511,-0.00013610,-0.00083819,0.00063151,-0.000172
 18,0.00030383,0.00100692,0.00000966,-0.00291318,0.00275399,0.00120071,
 -0.01225398,0.01017230,-0.13367298,0.01700964,-0.04145385,-0.03816063,
 0.00399320,0.00478834,-0.00106495,0.00014825,0.00010362,0.00001561,-0.
 00017106,0.00002325,-0.00000475,0.00062266,-0.00026008,-0.00030410,0.0
 0051531,-0.00188748,0.00096143,0.00600809,0.00343388,-0.00638686,-0.00
 026206,0.00126246,-0.00003142,0.00001127,0.00032526,-0.00001923,0.0001
 3238,0.00002777,0.00044857,0.00005157,0.00001414,-0.00003655,0.0003288
 2,0.00043434,-0.00038645,-0.00000957,-0.00000435,-0.00000128,0.0000092
 3,-0.00001206,-0.00000226,-0.00000292,0.00001112,0.00000903,-0.0000146
 9,-0.00000022,0.00001493,-0.00000444,0.00000793,0.00000837,-0.00000112
 ,-0.00002424,0.00001062,0.00001477,-0.00000935,-0.00001928,-0.00001925
 ,0.00000765,-0.00000823,-0.00012709,0.00000236,0.00017915,-0.00028820,
 0.00002640,0.00085166,0.00097617,0.00030109,-0.00117170,-0.00624289,0.
 02089154,0.17922100\\0.00000235,0.00000121,-0.00000128,0.00000055,0.00
 000140,-0.00000132,0.00000108,0.00000229,-0.00000152,0.00000092,0.0000
 0337,-0.00000300,0.00000266,0.00000249,-0.00000256,0.00000200,0.000003
 12,-0.00000336,0.00000128,0.00000236,-0.00000001,-0.00000182,0.0000013
 2,-0.00000197,-0.00000086,0.00000350,-0.00000339,-0.00000009,0.0000038
 9,-0.00000366,-0.00000239,0.00000303,-0.00000047,0.00000721,-0.0000038
 5,-0.00000601,-0.00000209,-0.00000301,0.00000033,-0.00000333,0.0000022
 1,-0.00000141,0.00000278,0.00000035,-0.00000057,0.00000225,-0.00000020
 ,0.00000042,0.00000230,-0.00000084,0.00000053,0.,-0.00000123,-0.000000
 34,-0.00000812,0.00000064,-0.00000335,-0.00002259,0.00000990,-0.000049
 95,-0.00002103,0.00000237,0.00001635,0.00000611,0.00000011,-0.00000539
 ,0.00000244,-0.00000192,0.00000139,0.00000241,-0.00000286,0.00000224,0
 .00000029,-0.00000256,0.00000279,0.00000072,0.00000034,0.00000079,-0.0
 0000545,-0.00000553,0.00000811,0.00000044,-0.00000390,0.00000436,0.000
 00130,-0.00000467,0.00000322,0.00000079,-0.00000377,0.00000371,-0.0000
 0002,-0.00000479,0.00000447,-0.00000160,-0.00000342,0.00000215,0.00000
 163,-0.00000460,0.00000389,0.00000276,-0.00000349,0.00000288,0.0000034
 6,-0.00000172,0.00000120,0.00000346,0.00000025,-0.00000056,0.00000333,
 0.00000259,-0.00000265,0.00000228,0.00000414,-0.00000395,0.00000019,0.
 00000478,-0.00000432,-0.00000163,0.00000418,-0.00000356,-0.00000319,0.
 00000232,-0.00000179,-0.00000479,0.00000095,0.00000070,-0.00000595,-0.
 00000150,0.00000332,0.00002797,-0.00000925,0.00004356\\\@


 RESEARCH IS WHAT I AM DOING WHEN I DON'T KNOW WHAT I AM DOING.
     -- WERNER VON BRAUN
 Job cpu time:       0 days 21 hours 16 minutes 42.4 seconds.
 Elapsed time:       0 days  1 hours  4 minutes  1.0 seconds.
 File lengths (MBytes):  RWF=   2127 Int=      0 D2E=      0 Chk=     45 Scr=      1
 Normal termination of Gaussian 16 at Tue Jun 18 18:01:00 2019.
