 Entering Gaussian System, Link 0=/share/apps/gaussian16/g16/g16
 Initial command:
 /share/apps/gaussian16/g16/l1.exe "/home/amen01//scratch/676/Gau-21373.inp" -scrdir="/home/amen01//scratch/676/"
 Entering Link 1 = /share/apps/gaussian16/g16/l1.exe PID=     21374.
  
 Copyright (c) 1988-2017, Gaussian, Inc.  All Rights Reserved.
  
 This is part of the Gaussian(R) 16 program.  It is based on
 the Gaussian(R) 09 system (copyright 2009, Gaussian, Inc.),
 the Gaussian(R) 03 system (copyright 2003, Gaussian, Inc.),
 the Gaussian(R) 98 system (copyright 1998, Gaussian, Inc.),
 the Gaussian(R) 94 system (copyright 1995, Gaussian, Inc.),
 the Gaussian 92(TM) system (copyright 1992, Gaussian, Inc.),
 the Gaussian 90(TM) system (copyright 1990, Gaussian, Inc.),
 the Gaussian 88(TM) system (copyright 1988, Gaussian, Inc.),
 the Gaussian 86(TM) system (copyright 1986, Carnegie Mellon
 University), and the Gaussian 82(TM) system (copyright 1983,
 Carnegie Mellon University). Gaussian is a federally registered
 trademark of Gaussian, Inc.
  
 This software contains proprietary and confidential information,
 including trade secrets, belonging to Gaussian, Inc.
  
 This software is provided under written license and may be
 used, copied, transmitted, or stored only in accord with that
 written license.
  
 The following legend is applicable only to US Government
 contracts under FAR:
  
                    RESTRICTED RIGHTS LEGEND
  
 Use, reproduction and disclosure by the US Government is
 subject to restrictions as set forth in subparagraphs (a)
 and (c) of the Commercial Computer Software - Restricted
 Rights clause in FAR 52.227-19.
  
 Gaussian, Inc.
 340 Quinnipiac St., Bldg. 40, Wallingford CT 06492
  
  
 ---------------------------------------------------------------
 Warning -- This program may not be used in any manner that
 competes with the business of Gaussian, Inc. or will provide
 assistance to any competitor of Gaussian, Inc.  The licensee
 of this program is prohibited from giving any competitor of
 Gaussian, Inc. access to this program.  By using this program,
 the user acknowledges that Gaussian, Inc. is engaged in the
 business of creating and licensing software in the field of
 computational chemistry and represents and warrants to the
 licensee that it is not a competitor of Gaussian, Inc. and that
 it will not use this program in any manner prohibited above.
 ---------------------------------------------------------------
  

 Cite this work as:
 Gaussian 16, Revision B.01,
 M. J. Frisch, G. W. Trucks, H. B. Schlegel, G. E. Scuseria, 
 M. A. Robb, J. R. Cheeseman, G. Scalmani, V. Barone, 
 G. A. Petersson, H. Nakatsuji, X. Li, M. Caricato, A. V. Marenich, 
 J. Bloino, B. G. Janesko, R. Gomperts, B. Mennucci, H. P. Hratchian, 
 J. V. Ortiz, A. F. Izmaylov, J. L. Sonnenberg, D. Williams-Young, 
 F. Ding, F. Lipparini, F. Egidi, J. Goings, B. Peng, A. Petrone, 
 T. Henderson, D. Ranasinghe, V. G. Zakrzewski, J. Gao, N. Rega, 
 G. Zheng, W. Liang, M. Hada, M. Ehara, K. Toyota, R. Fukuda, 
 J. Hasegawa, M. Ishida, T. Nakajima, Y. Honda, O. Kitao, H. Nakai, 
 T. Vreven, K. Throssell, J. A. Montgomery, Jr., J. E. Peralta, 
 F. Ogliaro, M. J. Bearpark, J. J. Heyd, E. N. Brothers, K. N. Kudin, 
 V. N. Staroverov, T. A. Keith, R. Kobayashi, J. Normand, 
 K. Raghavachari, A. P. Rendell, J. C. Burant, S. S. Iyengar, 
 J. Tomasi, M. Cossi, J. M. Millam, M. Klene, C. Adamo, R. Cammi, 
 J. W. Ochterski, R. L. Martin, K. Morokuma, O. Farkas, 
 J. B. Foresman, and D. J. Fox, Gaussian, Inc., Wallingford CT, 2016.
 
 ******************************************
 Gaussian 16:  ES64L-G16RevB.01 20-Dec-2017
                 3-Jul-2019 
 ******************************************
 %nprocshared=20
 Will use up to   20 processors via shared memory.
 %mem=100GB
 %chk=7-memb-carbTguess-5a.chk
 ---------------------------------------------------------------
 # opt=(ts,calcfc,noeigen) freq b3lyp/6-311+g(d,p) int=grid=fine
 ---------------------------------------------------------------
 1/5=1,10=4,11=1,18=20,26=3,38=1/1,3;
 2/9=110,12=2,17=6,18=5,40=1/2;
 3/5=4,6=6,7=111,11=2,25=1,30=1,71=2,74=-5,75=-4,140=1/1,2,3;
 4//1;
 5/5=2,38=5/2;
 8/6=4,10=90,11=11/1;
 11/6=1,8=1,9=11,15=111,16=1/1,2,10;
 10/6=1,13=1/2;
 6/7=2,8=2,9=2,10=2,28=1/1;
 7/10=1,18=20,25=1/1,2,3,16;
 1/5=1,10=4,11=1,18=20,26=3/3(2);
 2/9=110/2;
 99//99;
 2/9=110/2;
 3/5=4,6=6,7=111,11=2,25=1,30=1,71=1,74=-5,75=-4/1,2,3;
 4/5=5,16=3,69=1/1;
 5/5=2,38=5/2;
 7//1,2,3,16;
 1/5=1,11=1,18=20,26=3/3(-5);
 2/9=110/2;
 6/7=2,8=2,9=2,10=2,19=2,28=1/1;
 99/9=1/99;
 ---------------------
 7-memb-carbTSguess-5a
 ---------------------
 Symbolic Z-matrix:
 Charge =  0 Multiplicity = 1
 C                    -1.5302   -2.8624    0.0829 
 C                    -1.3984   -1.5159   -0.2538 
 C                    -2.4989   -0.6615   -0.3601 
 C                    -3.7907   -1.031    -0.0731 
 C                    -2.8862   -3.3076    0.27 
 C                    -3.9636   -2.429     0.2088 
 C                    -2.0178    0.6611   -0.4813 
 C                    -2.8924    1.7669   -0.2432 
 C                    -4.3009    1.392    -0.0435 
 C                    -4.7259    0.0933    0.0248 
 C                    -0.6342    0.6471   -0.4355 
 C                     0.0981    1.8418   -0.2381 
 C                    -0.7793    3.1333   -0.3161 
 C                    -2.2847    2.9731   -0.1082 
 C                    -0.2961   -3.5188    0.277 
 C                     0.9215   -2.816     0.1945 
 C                     0.9991   -1.3721   -0.0395 
 C                    -0.219    -0.7522   -0.2777 
 C                    -0.2274    4.2212    0.5718 
 C                     1.4505    1.8902   -0.0108 
 C                     2.0433    3.2408    0.3889 
 C                     1.0565    4.2474    0.9039 
 C                     2.1503   -3.5398    0.3428 
 C                     3.3385   -2.91      0.2205 
 C                     3.4427   -1.4901   -0.0039 
 C                     2.2727   -0.6639   -0.0574 
 C                     2.4462    0.7795   -0.1565 
 C                     3.7673    1.2255   -0.3657 
 C                     4.7295   -0.9542   -0.1693 
 C                     4.8833    0.3951   -0.3923 
 H                     5.8645    0.8226   -0.5657 
 H                     3.9479    2.2773   -0.5185 
 H                     0.20312   3.44094  -1.05957 
 H                     5.5861   -1.6181   -0.1352 
 H                     4.2646   -3.4698    0.2947 
 H                     2.1062   -4.6079    0.5267 
 H                    -0.2576   -4.5785    0.5094 
 H                    -3.0763   -4.3476    0.5142 
 H                    -4.9566   -2.8139    0.4188 
 H                    -5.7785   -0.1053    0.2002 
 H                    -5.0287    2.1881    0.077 
 H                    -2.8377    3.8736    0.1413 
 H                    -0.916     4.979     0.9318 
 H                     1.4455    5.0343    1.5428 
 H                     3.18529   3.21413   0.46879 
 H                     1.28346   3.45226  -0.75864 
 
 Add virtual bond connecting atoms H46        and H33        Dist= 2.12D+00.

 GradGradGradGradGradGradGradGradGradGradGradGradGradGradGradGradGradGrad
 Berny optimization.
 Initialization pass.
                           ----------------------------
                           !    Initial Parameters    !
                           ! (Angstroms and Degrees)  !
 --------------------------                            --------------------------
 ! Name  Definition              Value          Derivative Info.                !
 --------------------------------------------------------------------------------
 ! R1    R(1,2)                  1.3942         calculate D2E/DX2 analytically  !
 ! R2    R(1,5)                  1.4394         calculate D2E/DX2 analytically  !
 ! R3    R(1,15)                 1.4112         calculate D2E/DX2 analytically  !
 ! R4    R(2,3)                  1.3973         calculate D2E/DX2 analytically  !
 ! R5    R(2,18)                 1.4053         calculate D2E/DX2 analytically  !
 ! R6    R(3,4)                  1.3739         calculate D2E/DX2 analytically  !
 ! R7    R(3,7)                  1.4126         calculate D2E/DX2 analytically  !
 ! R8    R(4,6)                  1.4366         calculate D2E/DX2 analytically  !
 ! R9    R(4,10)                 1.4657         calculate D2E/DX2 analytically  !
 ! R10   R(5,6)                  1.3916         calculate D2E/DX2 analytically  !
 ! R11   R(5,38)                 1.0851         calculate D2E/DX2 analytically  !
 ! R12   R(6,39)                 1.0855         calculate D2E/DX2 analytically  !
 ! R13   R(7,8)                  1.4298         calculate D2E/DX2 analytically  !
 ! R14   R(7,11)                 1.3844         calculate D2E/DX2 analytically  !
 ! R15   R(8,9)                  1.4712         calculate D2E/DX2 analytically  !
 ! R16   R(8,14)                 1.3574         calculate D2E/DX2 analytically  !
 ! R17   R(9,10)                 1.3682         calculate D2E/DX2 analytically  !
 ! R18   R(9,41)                 1.0854         calculate D2E/DX2 analytically  !
 ! R19   R(10,40)                1.0854         calculate D2E/DX2 analytically  !
 ! R20   R(11,12)                1.4151         calculate D2E/DX2 analytically  !
 ! R21   R(11,18)                1.4681         calculate D2E/DX2 analytically  !
 ! R22   R(12,13)                1.5633         calculate D2E/DX2 analytically  !
 ! R23   R(12,20)                1.3722         calculate D2E/DX2 analytically  !
 ! R24   R(13,14)                1.5281         calculate D2E/DX2 analytically  !
 ! R25   R(13,19)                1.5088         calculate D2E/DX2 analytically  !
 ! R26   R(13,33)                1.2699         calculate D2E/DX2 analytically  !
 ! R27   R(14,42)                1.0858         calculate D2E/DX2 analytically  !
 ! R28   R(15,16)                1.4083         calculate D2E/DX2 analytically  !
 ! R29   R(15,37)                1.0856         calculate D2E/DX2 analytically  !
 ! R30   R(16,17)                1.4648         calculate D2E/DX2 analytically  !
 ! R31   R(16,23)                1.4338         calculate D2E/DX2 analytically  !
 ! R32   R(17,18)                1.3874         calculate D2E/DX2 analytically  !
 ! R33   R(17,26)                1.4574         calculate D2E/DX2 analytically  !
 ! R34   R(19,22)                1.3264         calculate D2E/DX2 analytically  !
 ! R35   R(19,43)                1.0854         calculate D2E/DX2 analytically  !
 ! R36   R(20,21)                1.5282         calculate D2E/DX2 analytically  !
 ! R37   R(20,27)                1.4988         calculate D2E/DX2 analytically  !
 ! R38   R(21,22)                1.5007         calculate D2E/DX2 analytically  !
 ! R39   R(21,45)                1.1451         calculate D2E/DX2 analytically  !
 ! R40   R(22,44)                1.0857         calculate D2E/DX2 analytically  !
 ! R41   R(23,24)                1.3503         calculate D2E/DX2 analytically  !
 ! R42   R(23,36)                1.0847         calculate D2E/DX2 analytically  !
 ! R43   R(24,25)                1.4413         calculate D2E/DX2 analytically  !
 ! R44   R(24,35)                1.0847         calculate D2E/DX2 analytically  !
 ! R45   R(25,26)                1.4333         calculate D2E/DX2 analytically  !
 ! R46   R(25,29)                1.4037         calculate D2E/DX2 analytically  !
 ! R47   R(26,27)                1.4572         calculate D2E/DX2 analytically  !
 ! R48   R(27,28)                1.41           calculate D2E/DX2 analytically  !
 ! R49   R(28,30)                1.3913         calculate D2E/DX2 analytically  !
 ! R50   R(28,32)                1.0781         calculate D2E/DX2 analytically  !
 ! R51   R(29,30)                1.3762         calculate D2E/DX2 analytically  !
 ! R52   R(29,34)                1.0843         calculate D2E/DX2 analytically  !
 ! R53   R(30,31)                1.0842         calculate D2E/DX2 analytically  !
 ! R54   R(33,46)                1.1215         calculate D2E/DX2 analytically  !
 ! A1    A(2,1,5)              114.7812         calculate D2E/DX2 analytically  !
 ! A2    A(2,1,15)             113.5633         calculate D2E/DX2 analytically  !
 ! A3    A(5,1,15)             131.458          calculate D2E/DX2 analytically  !
 ! A4    A(1,2,3)              122.3079         calculate D2E/DX2 analytically  !
 ! A5    A(1,2,18)             127.4671         calculate D2E/DX2 analytically  !
 ! A6    A(3,2,18)             109.1114         calculate D2E/DX2 analytically  !
 ! A7    A(2,3,4)              124.0687         calculate D2E/DX2 analytically  !
 ! A8    A(2,3,7)              108.1077         calculate D2E/DX2 analytically  !
 ! A9    A(4,3,7)              126.1536         calculate D2E/DX2 analytically  !
 ! A10   A(3,4,6)              114.5741         calculate D2E/DX2 analytically  !
 ! A11   A(3,4,10)             114.053          calculate D2E/DX2 analytically  !
 ! A12   A(6,4,10)             131.0395         calculate D2E/DX2 analytically  !
 ! A13   A(1,5,6)              121.8951         calculate D2E/DX2 analytically  !
 ! A14   A(1,5,38)             119.3892         calculate D2E/DX2 analytically  !
 ! A15   A(6,5,38)             118.6464         calculate D2E/DX2 analytically  !
 ! A16   A(4,6,5)              121.9962         calculate D2E/DX2 analytically  !
 ! A17   A(4,6,39)             119.5462         calculate D2E/DX2 analytically  !
 ! A18   A(5,6,39)             118.4165         calculate D2E/DX2 analytically  !
 ! A19   A(3,7,8)              120.099          calculate D2E/DX2 analytically  !
 ! A20   A(3,7,11)             109.1516         calculate D2E/DX2 analytically  !
 ! A21   A(8,7,11)             127.8522         calculate D2E/DX2 analytically  !
 ! A22   A(7,8,9)              114.2772         calculate D2E/DX2 analytically  !
 ! A23   A(7,8,14)             115.465          calculate D2E/DX2 analytically  !
 ! A24   A(9,8,14)             129.9105         calculate D2E/DX2 analytically  !
 ! A25   A(8,9,10)             123.0979         calculate D2E/DX2 analytically  !
 ! A26   A(8,9,41)             118.0446         calculate D2E/DX2 analytically  !
 ! A27   A(10,9,41)            118.8426         calculate D2E/DX2 analytically  !
 ! A28   A(4,10,9)             121.7754         calculate D2E/DX2 analytically  !
 ! A29   A(4,10,40)            119.2882         calculate D2E/DX2 analytically  !
 ! A30   A(9,10,40)            118.8801         calculate D2E/DX2 analytically  !
 ! A31   A(7,11,12)            120.8808         calculate D2E/DX2 analytically  !
 ! A32   A(7,11,18)            107.2078         calculate D2E/DX2 analytically  !
 ! A33   A(12,11,18)           130.0408         calculate D2E/DX2 analytically  !
 ! A34   A(11,12,13)           113.5823         calculate D2E/DX2 analytically  !
 ! A35   A(11,12,20)           124.2562         calculate D2E/DX2 analytically  !
 ! A36   A(13,12,20)           122.1589         calculate D2E/DX2 analytically  !
 ! A37   A(12,13,14)           117.3557         calculate D2E/DX2 analytically  !
 ! A38   A(12,13,19)           111.1626         calculate D2E/DX2 analytically  !
 ! A39   A(12,13,33)            78.1791         calculate D2E/DX2 analytically  !
 ! A40   A(14,13,19)           110.8473         calculate D2E/DX2 analytically  !
 ! A41   A(14,13,33)           150.135          calculate D2E/DX2 analytically  !
 ! A42   A(19,13,33)            83.5043         calculate D2E/DX2 analytically  !
 ! A43   A(8,14,13)            121.378          calculate D2E/DX2 analytically  !
 ! A44   A(8,14,42)            122.1284         calculate D2E/DX2 analytically  !
 ! A45   A(13,14,42)           116.4906         calculate D2E/DX2 analytically  !
 ! A46   A(1,15,16)            121.0578         calculate D2E/DX2 analytically  !
 ! A47   A(1,15,37)            120.9644         calculate D2E/DX2 analytically  !
 ! A48   A(16,15,37)           117.9714         calculate D2E/DX2 analytically  !
 ! A49   A(15,16,17)           123.1674         calculate D2E/DX2 analytically  !
 ! A50   A(15,16,23)           118.8808         calculate D2E/DX2 analytically  !
 ! A51   A(17,16,23)           117.9517         calculate D2E/DX2 analytically  !
 ! A52   A(16,17,18)           114.9204         calculate D2E/DX2 analytically  !
 ! A53   A(16,17,26)           121.8212         calculate D2E/DX2 analytically  !
 ! A54   A(18,17,26)           123.233          calculate D2E/DX2 analytically  !
 ! A55   A(2,18,11)            106.4068         calculate D2E/DX2 analytically  !
 ! A56   A(2,18,17)            119.4147         calculate D2E/DX2 analytically  !
 ! A57   A(11,18,17)           133.8395         calculate D2E/DX2 analytically  !
 ! A58   A(13,19,22)           121.0406         calculate D2E/DX2 analytically  !
 ! A59   A(13,19,43)           117.8101         calculate D2E/DX2 analytically  !
 ! A60   A(22,19,43)           121.149          calculate D2E/DX2 analytically  !
 ! A61   A(12,20,21)           117.1815         calculate D2E/DX2 analytically  !
 ! A62   A(12,20,27)           127.7711         calculate D2E/DX2 analytically  !
 ! A63   A(21,20,27)           115.0041         calculate D2E/DX2 analytically  !
 ! A64   A(20,21,22)           115.3079         calculate D2E/DX2 analytically  !
 ! A65   A(20,21,45)           112.6145         calculate D2E/DX2 analytically  !
 ! A66   A(22,21,45)           130.3487         calculate D2E/DX2 analytically  !
 ! A67   A(19,22,21)           122.4997         calculate D2E/DX2 analytically  !
 ! A68   A(19,22,44)           120.5618         calculate D2E/DX2 analytically  !
 ! A69   A(21,22,44)           116.9035         calculate D2E/DX2 analytically  !
 ! A70   A(16,23,24)           120.6171         calculate D2E/DX2 analytically  !
 ! A71   A(16,23,36)           118.6703         calculate D2E/DX2 analytically  !
 ! A72   A(24,23,36)           120.6896         calculate D2E/DX2 analytically  !
 ! A73   A(23,24,25)           122.4928         calculate D2E/DX2 analytically  !
 ! A74   A(23,24,35)           120.2898         calculate D2E/DX2 analytically  !
 ! A75   A(25,24,35)           117.2167         calculate D2E/DX2 analytically  !
 ! A76   A(24,25,26)           120.9754         calculate D2E/DX2 analytically  !
 ! A77   A(24,25,29)           117.4341         calculate D2E/DX2 analytically  !
 ! A78   A(26,25,29)           121.5905         calculate D2E/DX2 analytically  !
 ! A79   A(17,26,25)           115.6448         calculate D2E/DX2 analytically  !
 ! A80   A(17,26,27)           125.8908         calculate D2E/DX2 analytically  !
 ! A81   A(25,26,27)           118.4459         calculate D2E/DX2 analytically  !
 ! A82   A(20,27,26)           130.4183         calculate D2E/DX2 analytically  !
 ! A83   A(20,27,28)           113.7335         calculate D2E/DX2 analytically  !
 ! A84   A(26,27,28)           115.7845         calculate D2E/DX2 analytically  !
 ! A85   A(27,28,30)           124.4449         calculate D2E/DX2 analytically  !
 ! A86   A(27,28,32)           119.1176         calculate D2E/DX2 analytically  !
 ! A87   A(30,28,32)           116.4375         calculate D2E/DX2 analytically  !
 ! A88   A(25,29,30)           119.7255         calculate D2E/DX2 analytically  !
 ! A89   A(25,29,34)           119.1272         calculate D2E/DX2 analytically  !
 ! A90   A(30,29,34)           121.1392         calculate D2E/DX2 analytically  !
 ! A91   A(28,30,29)           119.5007         calculate D2E/DX2 analytically  !
 ! A92   A(28,30,31)           119.579          calculate D2E/DX2 analytically  !
 ! A93   A(29,30,31)           120.9053         calculate D2E/DX2 analytically  !
 ! A94   A(13,33,46)           126.1985         calculate D2E/DX2 analytically  !
 ! D1    D(5,1,2,3)              1.8345         calculate D2E/DX2 analytically  !
 ! D2    D(5,1,2,18)           168.42           calculate D2E/DX2 analytically  !
 ! D3    D(15,1,2,3)          -173.6533         calculate D2E/DX2 analytically  !
 ! D4    D(15,1,2,18)           -7.0677         calculate D2E/DX2 analytically  !
 ! D5    D(2,1,5,6)             -4.2996         calculate D2E/DX2 analytically  !
 ! D6    D(2,1,5,38)           178.7681         calculate D2E/DX2 analytically  !
 ! D7    D(15,1,5,6)           170.1787         calculate D2E/DX2 analytically  !
 ! D8    D(15,1,5,38)           -6.7535         calculate D2E/DX2 analytically  !
 ! D9    D(2,1,15,16)            3.0735         calculate D2E/DX2 analytically  !
 ! D10   D(2,1,15,37)         -177.8595         calculate D2E/DX2 analytically  !
 ! D11   D(5,1,15,16)         -171.4575         calculate D2E/DX2 analytically  !
 ! D12   D(5,1,15,37)            7.6095         calculate D2E/DX2 analytically  !
 ! D13   D(1,2,3,4)              3.941          calculate D2E/DX2 analytically  !
 ! D14   D(1,2,3,7)            169.9731         calculate D2E/DX2 analytically  !
 ! D15   D(18,2,3,4)          -164.8217         calculate D2E/DX2 analytically  !
 ! D16   D(18,2,3,7)             1.2105         calculate D2E/DX2 analytically  !
 ! D17   D(1,2,18,11)         -169.2112         calculate D2E/DX2 analytically  !
 ! D18   D(1,2,18,17)            5.0043         calculate D2E/DX2 analytically  !
 ! D19   D(3,2,18,11)           -1.188          calculate D2E/DX2 analytically  !
 ! D20   D(3,2,18,17)          173.0275         calculate D2E/DX2 analytically  !
 ! D21   D(2,3,4,6)             -6.7267         calculate D2E/DX2 analytically  !
 ! D22   D(2,3,4,10)           167.3873         calculate D2E/DX2 analytically  !
 ! D23   D(7,3,4,6)           -170.2195         calculate D2E/DX2 analytically  !
 ! D24   D(7,3,4,10)             3.8946         calculate D2E/DX2 analytically  !
 ! D25   D(2,3,7,8)           -162.9391         calculate D2E/DX2 analytically  !
 ! D26   D(2,3,7,11)            -0.7393         calculate D2E/DX2 analytically  !
 ! D27   D(4,3,7,8)              2.7233         calculate D2E/DX2 analytically  !
 ! D28   D(4,3,7,11)           164.9231         calculate D2E/DX2 analytically  !
 ! D29   D(3,4,6,5)              4.0691         calculate D2E/DX2 analytically  !
 ! D30   D(3,4,6,39)          -178.3023         calculate D2E/DX2 analytically  !
 ! D31   D(10,4,6,5)          -168.799          calculate D2E/DX2 analytically  !
 ! D32   D(10,4,6,39)            8.8297         calculate D2E/DX2 analytically  !
 ! D33   D(3,4,10,9)            -5.7435         calculate D2E/DX2 analytically  !
 ! D34   D(3,4,10,40)          177.0182         calculate D2E/DX2 analytically  !
 ! D35   D(6,4,10,9)           167.154          calculate D2E/DX2 analytically  !
 ! D36   D(6,4,10,40)          -10.0843         calculate D2E/DX2 analytically  !
 ! D37   D(1,5,6,4)              1.3697         calculate D2E/DX2 analytically  !
 ! D38   D(1,5,6,39)          -176.2847         calculate D2E/DX2 analytically  !
 ! D39   D(38,5,6,4)           178.324          calculate D2E/DX2 analytically  !
 ! D40   D(38,5,6,39)            0.6695         calculate D2E/DX2 analytically  !
 ! D41   D(3,7,8,9)             -7.1549         calculate D2E/DX2 analytically  !
 ! D42   D(3,7,8,14)           166.7592         calculate D2E/DX2 analytically  !
 ! D43   D(11,7,8,9)          -165.7024         calculate D2E/DX2 analytically  !
 ! D44   D(11,7,8,14)            8.2118         calculate D2E/DX2 analytically  !
 ! D45   D(3,7,11,12)         -165.9126         calculate D2E/DX2 analytically  !
 ! D46   D(3,7,11,18)            0.0023         calculate D2E/DX2 analytically  !
 ! D47   D(8,7,11,12)           -5.4824         calculate D2E/DX2 analytically  !
 ! D48   D(8,7,11,18)          160.4325         calculate D2E/DX2 analytically  !
 ! D49   D(7,8,9,10)             5.3703         calculate D2E/DX2 analytically  !
 ! D50   D(7,8,9,41)          -176.053          calculate D2E/DX2 analytically  !
 ! D51   D(14,8,9,10)         -167.4612         calculate D2E/DX2 analytically  !
 ! D52   D(14,8,9,41)           11.1155         calculate D2E/DX2 analytically  !
 ! D53   D(7,8,14,13)            4.8559         calculate D2E/DX2 analytically  !
 ! D54   D(7,8,14,42)         -175.8006         calculate D2E/DX2 analytically  !
 ! D55   D(9,8,14,13)          177.6177         calculate D2E/DX2 analytically  !
 ! D56   D(9,8,14,42)           -3.0387         calculate D2E/DX2 analytically  !
 ! D57   D(8,9,10,4)             1.1558         calculate D2E/DX2 analytically  !
 ! D58   D(8,9,10,40)          178.405          calculate D2E/DX2 analytically  !
 ! D59   D(41,9,10,4)         -177.4101         calculate D2E/DX2 analytically  !
 ! D60   D(41,9,10,40)          -0.1609         calculate D2E/DX2 analytically  !
 ! D61   D(7,11,12,13)          -9.286          calculate D2E/DX2 analytically  !
 ! D62   D(7,11,12,20)         171.2919         calculate D2E/DX2 analytically  !
 ! D63   D(18,11,12,13)       -171.6091         calculate D2E/DX2 analytically  !
 ! D64   D(18,11,12,20)          8.9688         calculate D2E/DX2 analytically  !
 ! D65   D(7,11,18,2)            0.7247         calculate D2E/DX2 analytically  !
 ! D66   D(7,11,18,17)        -172.2838         calculate D2E/DX2 analytically  !
 ! D67   D(12,11,18,2)         164.8929         calculate D2E/DX2 analytically  !
 ! D68   D(12,11,18,17)         -8.1156         calculate D2E/DX2 analytically  !
 ! D69   D(11,12,13,14)         20.3565         calculate D2E/DX2 analytically  !
 ! D70   D(11,12,13,19)        149.4029         calculate D2E/DX2 analytically  !
 ! D71   D(11,12,13,33)       -132.4244         calculate D2E/DX2 analytically  !
 ! D72   D(20,12,13,14)       -160.2077         calculate D2E/DX2 analytically  !
 ! D73   D(20,12,13,19)        -31.1613         calculate D2E/DX2 analytically  !
 ! D74   D(20,12,13,33)         47.0114         calculate D2E/DX2 analytically  !
 ! D75   D(11,12,20,21)       -171.0198         calculate D2E/DX2 analytically  !
 ! D76   D(11,12,20,27)         11.512          calculate D2E/DX2 analytically  !
 ! D77   D(13,12,20,21)          9.6058         calculate D2E/DX2 analytically  !
 ! D78   D(13,12,20,27)       -167.8624         calculate D2E/DX2 analytically  !
 ! D79   D(12,13,14,8)         -18.9551         calculate D2E/DX2 analytically  !
 ! D80   D(12,13,14,42)        161.666          calculate D2E/DX2 analytically  !
 ! D81   D(19,13,14,8)        -148.1504         calculate D2E/DX2 analytically  !
 ! D82   D(19,13,14,42)         32.4708         calculate D2E/DX2 analytically  !
 ! D83   D(33,13,14,8)          97.0099         calculate D2E/DX2 analytically  !
 ! D84   D(33,13,14,42)        -82.3689         calculate D2E/DX2 analytically  !
 ! D85   D(12,13,19,22)         24.7556         calculate D2E/DX2 analytically  !
 ! D86   D(12,13,19,43)       -155.056          calculate D2E/DX2 analytically  !
 ! D87   D(14,13,19,22)        157.1851         calculate D2E/DX2 analytically  !
 ! D88   D(14,13,19,43)        -22.6265         calculate D2E/DX2 analytically  !
 ! D89   D(33,13,19,22)        -49.8677         calculate D2E/DX2 analytically  !
 ! D90   D(33,13,19,43)        130.3208         calculate D2E/DX2 analytically  !
 ! D91   D(12,13,33,46)        -57.4731         calculate D2E/DX2 analytically  !
 ! D92   D(14,13,33,46)        177.1956         calculate D2E/DX2 analytically  !
 ! D93   D(19,13,33,46)         55.7961         calculate D2E/DX2 analytically  !
 ! D94   D(1,15,16,17)           2.5231         calculate D2E/DX2 analytically  !
 ! D95   D(1,15,16,23)        -177.3538         calculate D2E/DX2 analytically  !
 ! D96   D(37,15,16,17)       -176.5711         calculate D2E/DX2 analytically  !
 ! D97   D(37,15,16,23)          3.552          calculate D2E/DX2 analytically  !
 ! D98   D(15,16,17,18)         -4.6972         calculate D2E/DX2 analytically  !
 ! D99   D(15,16,17,26)        177.0777         calculate D2E/DX2 analytically  !
 ! D100  D(23,16,17,18)        175.1808         calculate D2E/DX2 analytically  !
 ! D101  D(23,16,17,26)         -3.0444         calculate D2E/DX2 analytically  !
 ! D102  D(15,16,23,24)        177.5252         calculate D2E/DX2 analytically  !
 ! D103  D(15,16,23,36)         -0.739          calculate D2E/DX2 analytically  !
 ! D104  D(17,16,23,24)         -2.3581         calculate D2E/DX2 analytically  !
 ! D105  D(17,16,23,36)        179.3777         calculate D2E/DX2 analytically  !
 ! D106  D(16,17,18,2)           1.167          calculate D2E/DX2 analytically  !
 ! D107  D(16,17,18,11)        173.4636         calculate D2E/DX2 analytically  !
 ! D108  D(26,17,18,2)         179.364          calculate D2E/DX2 analytically  !
 ! D109  D(26,17,18,11)         -8.3394         calculate D2E/DX2 analytically  !
 ! D110  D(16,17,26,25)          7.6816         calculate D2E/DX2 analytically  !
 ! D111  D(16,17,26,27)       -173.912          calculate D2E/DX2 analytically  !
 ! D112  D(18,17,26,25)       -170.394          calculate D2E/DX2 analytically  !
 ! D113  D(18,17,26,27)          8.0124         calculate D2E/DX2 analytically  !
 ! D114  D(13,19,22,21)          2.177          calculate D2E/DX2 analytically  !
 ! D115  D(13,19,22,44)        179.9584         calculate D2E/DX2 analytically  !
 ! D116  D(43,19,22,21)       -178.0177         calculate D2E/DX2 analytically  !
 ! D117  D(43,19,22,44)         -0.2363         calculate D2E/DX2 analytically  !
 ! D118  D(12,20,21,22)         18.4575         calculate D2E/DX2 analytically  !
 ! D119  D(12,20,21,45)       -174.9364         calculate D2E/DX2 analytically  !
 ! D120  D(27,20,21,22)       -163.7506         calculate D2E/DX2 analytically  !
 ! D121  D(27,20,21,45)          2.8555         calculate D2E/DX2 analytically  !
 ! D122  D(12,20,27,26)        -26.5913         calculate D2E/DX2 analytically  !
 ! D123  D(12,20,27,28)        156.4805         calculate D2E/DX2 analytically  !
 ! D124  D(21,20,27,26)        155.8937         calculate D2E/DX2 analytically  !
 ! D125  D(21,20,27,28)        -21.0344         calculate D2E/DX2 analytically  !
 ! D126  D(20,21,22,19)        -25.5111         calculate D2E/DX2 analytically  !
 ! D127  D(20,21,22,44)        156.6311         calculate D2E/DX2 analytically  !
 ! D128  D(45,21,22,19)        170.7837         calculate D2E/DX2 analytically  !
 ! D129  D(45,21,22,44)         -7.0741         calculate D2E/DX2 analytically  !
 ! D130  D(16,23,24,25)          2.7286         calculate D2E/DX2 analytically  !
 ! D131  D(16,23,24,35)       -177.5743         calculate D2E/DX2 analytically  !
 ! D132  D(36,23,24,25)       -179.0424         calculate D2E/DX2 analytically  !
 ! D133  D(36,23,24,35)          0.6547         calculate D2E/DX2 analytically  !
 ! D134  D(23,24,25,26)          2.4203         calculate D2E/DX2 analytically  !
 ! D135  D(23,24,25,29)       -177.4627         calculate D2E/DX2 analytically  !
 ! D136  D(35,24,25,26)       -177.2857         calculate D2E/DX2 analytically  !
 ! D137  D(35,24,25,29)          2.8314         calculate D2E/DX2 analytically  !
 ! D138  D(24,25,26,17)         -7.3571         calculate D2E/DX2 analytically  !
 ! D139  D(24,25,26,27)        174.1112         calculate D2E/DX2 analytically  !
 ! D140  D(29,25,26,17)        172.521          calculate D2E/DX2 analytically  !
 ! D141  D(29,25,26,27)         -6.0108         calculate D2E/DX2 analytically  !
 ! D142  D(24,25,29,30)        179.7062         calculate D2E/DX2 analytically  !
 ! D143  D(24,25,29,34)          0.7311         calculate D2E/DX2 analytically  !
 ! D144  D(26,25,29,30)         -0.176          calculate D2E/DX2 analytically  !
 ! D145  D(26,25,29,34)       -179.1511         calculate D2E/DX2 analytically  !
 ! D146  D(17,26,27,20)         12.6776         calculate D2E/DX2 analytically  !
 ! D147  D(17,26,27,28)       -170.4455         calculate D2E/DX2 analytically  !
 ! D148  D(25,26,27,20)       -168.9563         calculate D2E/DX2 analytically  !
 ! D149  D(25,26,27,28)          7.9207         calculate D2E/DX2 analytically  !
 ! D150  D(20,27,28,30)        173.0687         calculate D2E/DX2 analytically  !
 ! D151  D(20,27,28,32)         -6.9902         calculate D2E/DX2 analytically  !
 ! D152  D(26,27,28,30)         -4.3344         calculate D2E/DX2 analytically  !
 ! D153  D(26,27,28,32)        175.6067         calculate D2E/DX2 analytically  !
 ! D154  D(27,28,30,29)         -1.7594         calculate D2E/DX2 analytically  !
 ! D155  D(27,28,30,31)        179.6373         calculate D2E/DX2 analytically  !
 ! D156  D(32,28,30,29)        178.2981         calculate D2E/DX2 analytically  !
 ! D157  D(32,28,30,31)         -0.3052         calculate D2E/DX2 analytically  !
 ! D158  D(25,29,30,28)          4.1062         calculate D2E/DX2 analytically  !
 ! D159  D(25,29,30,31)       -177.3095         calculate D2E/DX2 analytically  !
 ! D160  D(34,29,30,28)       -176.9398         calculate D2E/DX2 analytically  !
 ! D161  D(34,29,30,31)          1.6445         calculate D2E/DX2 analytically  !
 --------------------------------------------------------------------------------
 Trust Radius=3.00D-01 FncErr=1.00D-07 GrdErr=1.00D-06 EigMax=2.50D+02 EigMin=1.00D-04
 Number of steps in this run=    276 maximum allowed number of steps=    276.
 Search for a saddle point of order  1.
 GradGradGradGradGradGradGradGradGradGradGradGradGradGradGradGradGradGrad

                          Input orientation:                          
 ---------------------------------------------------------------------
 Center     Atomic      Atomic             Coordinates (Angstroms)
 Number     Number       Type             X           Y           Z
 ---------------------------------------------------------------------
      1          6           0       -1.530200   -2.862400    0.082900
      2          6           0       -1.398400   -1.515900   -0.253800
      3          6           0       -2.498900   -0.661500   -0.360100
      4          6           0       -3.790700   -1.031000   -0.073100
      5          6           0       -2.886200   -3.307600    0.270000
      6          6           0       -3.963600   -2.429000    0.208800
      7          6           0       -2.017800    0.661100   -0.481300
      8          6           0       -2.892400    1.766900   -0.243200
      9          6           0       -4.300900    1.392000   -0.043500
     10          6           0       -4.725900    0.093300    0.024800
     11          6           0       -0.634200    0.647100   -0.435500
     12          6           0        0.098100    1.841800   -0.238100
     13          6           0       -0.779300    3.133300   -0.316100
     14          6           0       -2.284700    2.973100   -0.108200
     15          6           0       -0.296100   -3.518800    0.277000
     16          6           0        0.921500   -2.816000    0.194500
     17          6           0        0.999100   -1.372100   -0.039500
     18          6           0       -0.219000   -0.752200   -0.277700
     19          6           0       -0.227400    4.221200    0.571800
     20          6           0        1.450500    1.890200   -0.010800
     21          6           0        2.043300    3.240800    0.388900
     22          6           0        1.056500    4.247400    0.903900
     23          6           0        2.150300   -3.539800    0.342800
     24          6           0        3.338500   -2.910000    0.220500
     25          6           0        3.442700   -1.490100   -0.003900
     26          6           0        2.272700   -0.663900   -0.057400
     27          6           0        2.446200    0.779500   -0.156500
     28          6           0        3.767300    1.225500   -0.365700
     29          6           0        4.729500   -0.954200   -0.169300
     30          6           0        4.883300    0.395100   -0.392300
     31          1           0        5.864500    0.822600   -0.565700
     32          1           0        3.947900    2.277300   -0.518500
     33          1           0        0.203120    3.440940   -1.059570
     34          1           0        5.586100   -1.618100   -0.135200
     35          1           0        4.264600   -3.469800    0.294700
     36          1           0        2.106200   -4.607900    0.526700
     37          1           0       -0.257600   -4.578500    0.509400
     38          1           0       -3.076300   -4.347600    0.514200
     39          1           0       -4.956600   -2.813900    0.418800
     40          1           0       -5.778500   -0.105300    0.200200
     41          1           0       -5.028700    2.188100    0.077000
     42          1           0       -2.837700    3.873600    0.141300
     43          1           0       -0.916000    4.979000    0.931800
     44          1           0        1.445500    5.034300    1.542800
     45          1           0        3.185290    3.214130    0.468790
     46          1           0        1.283460    3.452260   -0.758640
 ---------------------------------------------------------------------
                    Distance matrix (angstroms):
                    1          2          3          4          5
     1  C    0.000000
     2  C    1.394202   0.000000
     3  C    2.445115   1.397283   0.000000
     4  C    2.913455   2.447627   1.373916   0.000000
     5  C    1.439425   2.387070   2.747521   2.473610   0.000000
     6  C    2.474898   2.761884   2.364963   1.436581   1.391573
     7  C    3.601545   2.274806   1.412592   2.484553   4.131483
     8  C    4.836564   3.606789   2.462851   2.943488   5.100389
     9  C    5.078649   4.113954   2.750328   2.476310   4.917916
    10  C    4.353394   3.706670   2.382730   1.465685   3.874370
    11  C    3.658981   2.301214   2.279304   3.593167   4.605311
    12  C    4.988376   3.676127   3.609128   4.837662   5.973318
    13  C    6.055697   4.690653   4.166469   5.144801   6.802039
    14  C    5.887177   4.577974   3.649610   4.278094   6.320762
    15  C    1.411219   2.347003   3.663658   4.303946   2.598706
    16  C    2.454677   2.696881   4.080268   5.046054   3.840046
    17  C    2.938254   2.411350   3.583817   4.802048   4.351725
    18  C    2.510423   1.405273   2.283191   3.588402   3.734167
    19  C    7.218982   5.913305   5.465246   6.379546   7.990190
    20  C    5.610754   4.447111   4.714970   6.000622   6.775171
    21  C    7.079025   5.906315   6.034942   7.245500   8.197295
    22  C    7.610145   6.370434   6.191596   7.232661   8.545451
    23  C    3.751333   4.128604   5.513052   6.462394   5.042375
    24  C    4.870877   4.960514   6.282363   7.378505   6.237582
    25  C    5.159503   4.847614   6.009664   7.248285   6.590395
    26  C    4.394899   3.773785   4.781192   6.074523   5.806082
    27  C    5.397454   4.478758   5.154799   6.494905   6.732071
    28  C    6.706391   5.849124   6.544162   7.893084   8.076025
    29  C    6.548945   6.154170   7.236839   8.521089   7.983130
    30  C    7.209029   6.567409   7.457501   8.796245   8.632135
    31  H    8.287430   7.636464   8.496545   9.843850   9.712451
    32  H    7.535767   6.560591   7.086809   8.427880   8.861025
    33  H    6.636394   5.271090   4.961873   6.076345   7.540189
    34  H    7.227557   6.986254   8.144501   9.395367   8.648611
    35  H    5.830395   6.015658   7.352567   8.424422   7.152682
    36  H    4.057972   4.738340   6.129228   6.922962   5.165340
    37  H    2.178626   3.356102   4.595905   5.040522   2.929511
    38  H    2.186839   3.379896   3.832117   3.443127   1.085068
    39  H    3.443167   3.846815   3.358541   2.186326   2.133644
    40  H    5.065907   4.623979   3.373288   2.209743   4.315669
    41  H    6.143866   5.196934   3.835514   3.452214   5.901718
    42  H    6.861972   5.592352   4.575294   5.000928   7.182517
    43  H    7.911095   6.619825   5.999151   6.737494   8.543267
    44  H    8.564109   7.363468   7.184807   8.174154   9.485301
    45  H    7.701232   6.626125   6.929472   8.184083   8.912658
    46  H    6.964180   5.668320   5.602509   6.805636   8.008737
                    6          7          8          9         10
     6  C    0.000000
     7  C    3.716328   0.000000
     8  C    4.354004   1.429829   0.000000
     9  C    3.844147   2.436889   1.471157   0.000000
    10  C    2.641393   2.812888   2.496895   1.368178   0.000000
    11  C    4.578473   1.384429   2.527924   3.762078   4.154585
    12  C    5.910741   2.435207   2.991442   4.426216   5.137835
    13  C    6.430744   2.770008   2.517450   3.938033   4.993342
    14  C    5.665852   2.357071   1.357366   2.563031   3.777618
    15  C    3.826601   4.583758   5.911853   6.344848   5.721363
    16  C    4.900426   4.602870   5.978326   6.710989   6.354994
    17  C    5.080067   3.664802   5.003857   5.977480   5.909920
    18  C    4.131630   2.296639   3.673435   4.616747   4.595490
    19  C    7.636499   4.121755   3.713494   4.997636   6.129867
    20  C    6.929372   3.709604   4.350861   5.773030   6.432576
    21  C    8.262077   4.889236   5.189708   6.622228   7.474048
    22  C    8.382057   4.922565   4.802346   6.144315   7.173947
    23  C    6.215433   5.974928   7.343928   8.129567   7.783487
    24  C    7.317934   6.475742   7.804648   8.771393   8.607709
    25  C    7.468605   5.888347   7.127328   8.262651   8.320697
    26  C    6.486746   4.510400   5.711529   6.887607   7.039923
    27  C    7.177287   4.477366   5.429837   6.775787   7.207132
    28  C    8.570428   5.813716   6.682793   8.076347   8.577226
    29  C    8.825417   6.944969   8.093405   9.331056   9.515226
    30  C    9.306154   6.906798   7.897188   9.244728   9.622982
    31  H   10.380959   7.884406   8.813569  10.194718  10.631893
    32  H    9.234179   6.180863   6.864838   8.309758   8.961018
    33  H    7.309344   3.604774   3.612633   5.051411   6.056219
    34  H    9.590238   7.945680   9.129888  10.335467  10.454273
    35  H    8.294210   7.558774   8.884538   9.854911   9.674586
    36  H    6.456867   6.766521   8.137372   8.796298   8.308476
    37  H    4.294781   5.615443   6.911778   7.231932   6.482766
    38  H    2.135789   5.215220   6.163975   5.895225   4.762592
    39  H    1.085494   4.639219   5.067829   4.281735   2.942834
    40  H    2.948477   3.898035   3.468618   2.117687   1.085437
    41  H    4.740192   3.421834   2.200844   1.085352   2.117215
    42  H    6.402732   3.373429   2.142199   2.886770   4.227238
    43  H    8.042951   4.674941   3.950236   5.027457   6.261633
    44  H    9.313365   5.934333   5.716911   6.985972   8.050092
    45  H    9.111484   5.873055   6.288062   7.721764   8.516081
    46  H    7.940831   4.331952   4.532541   5.995096   6.928838
                   11         12         13         14         15
    11  C    0.000000
    12  C    1.415111   0.000000
    13  C    2.493291   1.563294   0.000000
    14  C    2.870810   2.640918   1.528109   0.000000
    15  C    4.239893   5.399699   6.695945   6.800564   0.000000
    16  C    3.848398   4.749761   6.208672   6.624577   1.408291
    17  C    2.627100   3.343710   4.851582   5.446910   2.527061
    18  C    1.468105   2.613610   3.925878   4.263063   2.822714
    19  C    3.735550   2.534449   1.508803   2.500527   7.745917
    20  C    2.464070   1.372222   2.571092   3.890229   5.691285
    21  C    3.817842   2.476718   2.911297   4.364671   7.153846
    22  C    4.196977   2.830125   2.469773   3.716424   7.907995
    23  C    5.088155   5.788833   7.317579   7.892433   2.447375
    24  C    5.372675   5.769758   7.332509   8.144893   3.685668
    25  C    4.623312   4.726812   6.268858   7.261828   4.262998
    26  C    3.211191   3.322660   4.878561   5.830973   3.854998
    27  C    3.095842   2.578510   3.996210   5.214943   5.116983
    28  C    4.439890   3.722786   4.930896   6.304531   6.279543
    29  C    5.603954   5.410380   6.861201   8.039056   5.659771
    30  C    5.523421   5.001486   6.290356   7.622796   6.526313
    31  H    6.502373   5.864935   7.038587   8.440582   7.583593
    32  H    4.864163   3.884488   4.808339   6.284726   7.227664
    33  H    2.982635   1.800858   1.269858   2.704298   7.104479
    34  H    6.626722   6.488424   7.945240   9.112044   6.195389
    35  H    6.440520   6.771757   8.331562   9.196011   4.560998
    36  H    6.004219   6.798236   8.304372   8.783773   2.649440
    37  H    5.323679   6.473448   7.773383   7.843292   1.085567
    38  H    5.640285   6.996531   7.869528   7.389632   2.910788
    39  H    5.602811   6.903409   7.304731   6.395791   4.715639
    40  H    5.237752   6.206266   5.978888   4.666722   6.458683
    41  H    4.684973   5.148135   4.370965   2.860080   7.416617
    42  H    3.949483   3.590415   2.234786   1.085799   7.818294
    43  H    4.551294   3.498441   2.232163   2.641699   8.545504
    44  H    5.242742   3.896043   3.466849   4.570420   8.819917
    45  H    4.689977   3.451626   4.042346   5.505616   7.582164
    46  H    3.413321   2.066306   2.133672   3.658474   7.222412
                   16         17         18         19         20
    16  C    0.000000
    17  C    1.464795   0.000000
    18  C    2.404783   1.387365   0.000000
    19  C    7.140344   5.758732   5.045436   0.000000
    20  C    4.740286   3.293507   3.136996   2.930586   0.000000
    21  C    6.162877   4.748971   4.637500   2.480064   1.528166
    22  C    7.100218   5.698428   5.293305   1.326415   2.558965
    23  C    1.433816   2.484017   3.710703   8.120284   5.486315
    24  C    2.418967   2.811677   4.190479   7.980794   5.163329
    25  C    2.855490   2.446706   3.745332   6.813223   3.923689
    26  C    2.553572   1.457369   2.502978   5.523640   2.683582
    27  C    3.921165   2.595606   3.076375   4.418581   1.498767
    28  C    4.974548   3.810100   4.450801   5.080428   2.436256
    29  C    4.254352   3.755978   4.953807   7.204502   4.343682
    30  C    5.133357   4.281877   5.230956   6.456608   3.763639
    31  H    6.184704   5.363368   6.290621   7.067930   4.575050
    32  H    5.967342   4.716247   5.157413   4.732931   2.577715
    33  H    6.421687   4.983922   4.286249   1.858903   2.249593
    34  H    4.827231   4.594589   5.871054   8.270070   5.424650
    35  H    3.407904   3.895578   5.274055   8.911023   6.061525
    36  H    2.173655   3.466505   4.573843   9.132400   6.553179
    37  H    2.143792   3.487347   3.906608   8.799973   6.710611
    38  H    4.293066   5.076324   4.660276   9.030165   7.725134
    39  H    5.882378   6.144851   5.213499   8.478288   7.960153
    40  H    7.227581   6.899138   5.617376   7.047794   7.502332
    41  H    7.775584   7.001640   5.648397   5.237443   6.486639
    42  H    7.673667   6.501622   5.332089   2.668299   4.727121
    43  H    8.042515   6.704290   5.898759   1.085371   4.003686
    44  H    7.982462   6.613993   6.290339   2.098229   3.507002
    45  H    6.446894   5.106005   5.279982   3.559671   2.234344
    46  H    6.350636   4.885946   4.490676   2.155003   1.739885
                   21         22         23         24         25
    21  C    0.000000
    22  C    1.500747   0.000000
    23  C    6.781601   7.883636   0.000000
    24  C    6.287944   7.543403   1.350342   0.000000
    25  C    4.949144   6.279885   2.447809   1.441294   0.000000
    26  C    3.936812   5.150156   2.906190   2.501624   1.433307
    27  C    2.552996   3.883561   4.358120   3.814543   2.483422
    28  C    2.757359   4.253493   5.081805   4.198793   2.758758
    29  C    5.012513   6.457502   3.687797   2.431456   1.403709
    30  C    4.095593   5.582540   4.846968   3.699408   2.404197
    31  H    4.621744   6.083243   5.800964   4.575051   3.395485
    32  H    2.319312   3.776865   6.149135   5.274995   3.835798
    33  H    2.350401   2.287761   7.381659   7.197474   5.993703
    34  H    6.036143   7.483388   3.965619   2.616722   2.151229
    35  H    7.069314   8.379630   2.116005   1.084686   2.164231
    36  H    7.850162   8.925272   1.084713   2.120185   3.433431
    37  H    8.151694   8.931909   2.627667   3.974832   4.847052
    38  H    9.154770   9.544942   5.291433   6.580472   7.136602
    39  H    9.255209   9.287338   7.144280   8.298026   8.513481
    40  H    8.509556   8.133782   8.641874   9.538681   9.326835
    41  H    7.156720   6.477201   9.187901   9.799043   9.235817
    42  H    4.928073   3.985734   8.937519   9.174364   8.260374
    43  H    3.474699   2.103990   9.072986   8.991276   7.856402
    44  H    2.214835   1.085691   8.686307   8.273079   6.996348
    45  H    1.145092   2.405975   6.833934   6.131076   4.734921
    46  H    1.392451   1.856825   7.131163   6.757237   5.445996
                   26         27         28         29         30
    26  C    0.000000
    27  C    1.457164   0.000000
    28  C    2.428726   1.409960   0.000000
    29  C    2.476421   2.866939   2.390710   0.000000
    30  C    2.837053   2.478472   1.391304   1.376225   0.000000
    31  H    3.920342   3.442975   2.144895   2.145315   1.084240
    32  H    3.416075   2.151639   1.078076   3.342967   2.105606
    33  H    4.705020   3.595860   4.253588   6.371652   5.623742
    34  H    3.448938   3.950685   3.383375   1.084292   2.147790
    35  H    3.459005   4.643997   4.767523   2.599937   3.973941
    36  H    3.990493   5.441180   6.130594   4.551444   5.795417
    37  H    4.695506   6.038387   7.117024   6.202205   7.209619
    38  H    6.519829   7.565382   8.869528   8.538902   9.309682
    39  H    7.557251   8.248936   9.645653   9.880530  10.381676
    40  H    8.074665   8.279843   9.654717  10.548707  10.689969
    41  H    7.839797   7.610046   8.859582  10.254618  10.083791
    42  H    6.837001   6.130395   7.134109   8.981461   8.485195
    43  H    6.556573   5.488587   6.140486   8.263592   7.509811
    44  H    5.976151   4.689600   4.851813   7.041170   6.089767
    45  H    4.018559   2.620051   2.233777   4.490737   3.401712
    46  H    4.291050   2.976270   3.358917   5.624891   4.737012
                   31         32         33         34         35
    31  H    0.000000
    32  H    2.406602   0.000000
    33  H    6.257063   3.958559   0.000000
    34  H    2.493963   4.243202   7.444785   0.000000
    35  H    4.660973   5.812981   8.129452   2.315161   0.000000
    36  H    6.693914   7.203491   8.421508   4.635377   2.451079
    37  H    8.234551   8.108317   8.184458   6.582424   4.661073
    38  H   10.384366   9.710569   8.596086   9.105441   7.396454
    39  H   11.458166  10.299950   8.242045  10.624753   9.245330
    40  H   11.705001  10.039730   7.067009  11.469751  10.592103
    41  H   10.997248   8.996773   5.498485  11.278571  10.882309
    42  H    9.248607   7.001991   3.297858  10.059604  10.217227
    43  H    8.092796   5.749789   2.753836   9.324029   9.931099
    44  H    6.458463   4.255821   3.294637   8.013406   9.045706
    45  H    3.737346   1.560117   3.358670   5.429470   6.772750
    46  H    5.285666   2.921890   1.121526   6.679067   7.609969
                   36         37         38         39         40
    36  H    0.000000
    37  H    2.364046   0.000000
    38  H    5.189048   2.828146   0.000000
    39  H    7.287882   5.020221   2.428346   0.000000
    40  H    9.085621   7.112346   5.039602   2.838982   0.000000
    41  H    9.863805   8.290793   6.835085   5.014183   2.416001
    42  H    9.824791   8.844796   8.233111   7.020641   4.948072
    43  H   10.060142   9.589459   9.582628   8.793117   7.073136
    44  H    9.718076   9.817046  10.465407  10.190412   8.966841
    45  H    7.896325   8.519403   9.817807  10.130647   9.562441
    46  H    8.203364   8.275016   9.025821   8.921293   7.965355
                   41         42         43         44         45
    41  H    0.000000
    42  H    2.765054   0.000000
    43  H    5.043224   2.353663   0.000000
    44  H    7.222513   4.653733   2.439890   0.000000
    45  H    8.287090   6.067830   4.488844   2.737405   0.000000
    46  H    6.491514   4.239266   3.166409   2.797451   2.276016
                   46
    46  H    0.000000
 Stoichiometry    C30H16
 Framework group  C1[X(C30H16)]
 Deg. of freedom   132
 Full point group                 C1      NOp   1
 Largest Abelian subgroup         C1      NOp   1
 Largest concise Abelian subgroup C1      NOp   1
                         Standard orientation:                         
 ---------------------------------------------------------------------
 Center     Atomic      Atomic             Coordinates (Angstroms)
 Number     Number       Type             X           Y           Z
 ---------------------------------------------------------------------
      1          6           0       -1.526515   -2.863668    0.078903
      2          6           0       -1.395828   -1.516458   -0.255380
      3          6           0       -2.497220   -0.663275   -0.362222
      4          6           0       -3.789052   -1.034871   -0.078087
      5          6           0       -2.882276   -3.310882    0.262903
      6          6           0       -3.960677   -2.433544    0.201241
      7          6           0       -2.017582    0.660126   -0.480432
      8          6           0       -2.893995    1.764433   -0.242071
      9          6           0       -4.302367    1.387432   -0.045449
     10          6           0       -4.725843    0.088087    0.019998
     11          6           0       -0.634047    0.647797   -0.432229
     12          6           0        0.096395    1.843098   -0.231608
     13          6           0       -0.782500    3.133615   -0.309049
     14          6           0       -2.288058    2.971178   -0.104049
     15          6           0       -0.291927   -3.518825    0.274100
     16          6           0        0.924926   -2.814356    0.194876
     17          6           0        1.001109   -1.369981   -0.036645
     18          6           0       -0.217355   -0.751232   -0.275973
     19          6           0       -0.233532    4.220766    0.581581
     20          6           0        1.448332    1.892835   -0.001859
     21          6           0        2.038723    3.243531    0.401071
     22          6           0        1.049751    4.248046    0.915973
     23          6           0        2.154378   -3.536845    0.344154
     24          6           0        3.341993   -2.905349    0.224959
     25          6           0        3.444790   -1.484955    0.003047
     26          6           0        2.273842   -0.660146   -0.051163
     27          6           0        2.445690    0.783630   -0.147616
     28          6           0        3.766589    1.231636   -0.353776
     29          6           0        4.731199   -0.947164   -0.159227
     30          6           0        4.883683    0.402690   -0.379767
     31          1           0        5.864644    0.831709   -0.550753
     32          1           0        3.946126    2.283910   -0.504552
     33          1           0        0.200830    3.443702   -1.050296
     34          1           0        5.588577   -1.610037   -0.124703
     35          1           0        4.268669   -3.464099    0.299874
     36          1           0        2.111307   -4.605297    0.526243
     37          1           0       -0.252494   -4.578852    0.504848
     38          1           0       -3.071488   -4.351517    0.505082
     39          1           0       -4.953556   -2.820038    0.408875
     40          1           0       -5.778497   -0.112125    0.193231
     41          1           0       -5.031383    2.182416    0.075067
     42          1           0       -2.842632    3.870573    0.145943
     43          1           0       -0.923719    4.977111    0.941603
     44          1           0        1.436636    5.034397    1.556830
     45          1           0        3.180604    3.218172    0.482919
     46          1           0        1.280626    3.455896   -0.747455
 ---------------------------------------------------------------------
 Rotational constants (GHZ):           0.2391230           0.1761821           0.1032061
 Standard basis: 6-311+G(d,p) (5D, 7F)
 There are   786 symmetry adapted cartesian basis functions of A   symmetry.
 There are   756 symmetry adapted basis functions of A   symmetry.
   756 basis functions,  1208 primitive gaussians,   786 cartesian basis functions
    98 alpha electrons       98 beta electrons
       nuclear repulsion energy      2628.6742312056 Hartrees.
 NAtoms=   46 NActive=   46 NUniq=   46 SFac= 1.00D+00 NAtFMM=   60 NAOKFM=F Big=F
 Integral buffers will be    131072 words long.
 Raffenetti 2 integral format.
 Two-electron integral symmetry is turned on.
 One-electron integrals computed using PRISM.
 NBasis=   756 RedAO= T EigKep=  1.11D-06  NBF=   756
 NBsUse=   735 1.00D-06 EigRej=  8.82D-07 NBFU=   735
 ExpMin= 4.38D-02 ExpMax= 4.56D+03 ExpMxC= 6.82D+02 IAcc=2 IRadAn=         4 AccDes= 0.00D+00
 Harris functional with IExCor=  402 and IRadAn=       4 diagonalized for initial guess.
 HarFok:  IExCor=  402 AccDes= 0.00D+00 IRadAn=         4 IDoV= 1 UseB2=F ITyADJ=14
 ICtDFT=  3500011 ScaDFX=  1.000000  1.000000  1.000000  1.000000
 FoFCou: FMM=F IPFlag=           0 FMFlag=      100000 FMFlg1=           0
         NFxFlg=           0 DoJE=T BraDBF=F KetDBF=T FulRan=T
         wScrn=  0.000000 ICntrl=       500 IOpCl=  0 I1Cent=   200000004 NGrid=           0
         NMat0=    1 NMatS0=      1 NMatT0=    0 NMatD0=    1 NMtDS0=    0 NMtDT0=    0
 Petite list used in FoFCou.
 Requested convergence on RMS density matrix=1.00D-08 within 128 cycles.
 Requested convergence on MAX density matrix=1.00D-06.
 Requested convergence on             energy=1.00D-06.
 No special actions if energy rises.
 SCF Done:  E(RB3LYP) =  -1152.90446932     A.U. after   18 cycles
            NFock= 18  Conv=0.74D-08     -V/T= 2.0046
 DoSCS=F DFT=T ScalE2(SS,OS)=  1.000000  1.000000
 Range of M.O.s used for correlation:     1   735
 NBasis=   756 NAE=    98 NBE=    98 NFC=     0 NFV=     0
 NROrb=    735 NOA=    98 NOB=    98 NVA=   637 NVB=   637

 **** Warning!!: The largest alpha MO coefficient is  0.16261012D+03


 **** Warning!!: The smallest alpha delta epsilon is  0.77702382D-01

 Symmetrizing basis deriv contribution to polar:
 IMax=3 JMax=2 DiffMx= 0.00D+00
 G2DrvN: will do    47 centers at a time, making    1 passes.
 Calling FoFCou, ICntrl=  3107 FMM=F I1Cent=   0 AccDes= 0.00D+00.
 End of G2Drv F.D. properties file   721 does not exist.
 End of G2Drv F.D. properties file   722 does not exist.
 End of G2Drv F.D. properties file   788 does not exist.
          IDoAtm=1111111111111111111111111111111111111111111111
          Differentiating once with respect to nuclear coordinates.
 CalDSu exits because no D1Ps are significant.
          There are   141 degrees of freedom in the 1st order CPHF.  IDoFFX=6 NUNeed=     0.
    136 vectors produced by pass  0 Test12= 6.24D-14 1.00D-09 XBig12= 3.57D-01 1.99D-01.
 AX will form   136 AO Fock derivatives at one time.
    135 vectors produced by pass  1 Test12= 6.24D-14 1.00D-09 XBig12= 7.94D-02 4.43D-02.
    135 vectors produced by pass  2 Test12= 6.24D-14 1.00D-09 XBig12= 1.02D-03 5.12D-03.
    135 vectors produced by pass  3 Test12= 6.24D-14 1.00D-09 XBig12= 6.55D-06 2.41D-04.
    135 vectors produced by pass  4 Test12= 6.24D-14 1.00D-09 XBig12= 1.90D-08 1.30D-05.
    135 vectors produced by pass  5 Test12= 6.24D-14 1.00D-09 XBig12= 7.69D-11 8.67D-07.
    113 vectors produced by pass  6 Test12= 6.24D-14 1.00D-09 XBig12= 1.20D-11 3.06D-07.
     84 vectors produced by pass  7 Test12= 6.24D-14 1.00D-09 XBig12= 1.87D-12 7.55D-08.
     47 vectors produced by pass  8 Test12= 6.24D-14 1.00D-09 XBig12= 1.05D-13 2.15D-08.
      5 vectors produced by pass  9 Test12= 6.24D-14 1.00D-09 XBig12= 7.74D-16 2.03D-09.
      2 vectors produced by pass 10 Test12= 6.24D-14 1.00D-09 XBig12= 7.24D-16 1.77D-09.
      1 vectors produced by pass 11 Test12= 6.24D-14 1.00D-09 XBig12= 7.28D-16 1.74D-09.
 InvSVY:  IOpt=1 It=  1 EMax= 1.22D-15
 Solved reduced A of dimension  1063 with   141 vectors.
 End of Minotr F.D. properties file   721 does not exist.
 End of Minotr F.D. properties file   722 does not exist.
 End of Minotr F.D. properties file   788 does not exist.

 **********************************************************************

            Population analysis using the SCF Density.

 **********************************************************************

 Orbital symmetries:
       Occupied  (A) (A) (A) (A) (A) (A) (A) (A) (A) (A) (A) (A)
                 (A) (A) (A) (A) (A) (A) (A) (A) (A) (A) (A) (A)
                 (A) (A) (A) (A) (A) (A) (A) (A) (A) (A) (A) (A)
                 (A) (A) (A) (A) (A) (A) (A) (A) (A) (A) (A) (A)
                 (A) (A) (A) (A) (A) (A) (A) (A) (A) (A) (A) (A)
                 (A) (A) (A) (A) (A) (A) (A) (A) (A) (A) (A) (A)
                 (A) (A) (A) (A) (A) (A) (A) (A) (A) (A) (A) (A)
                 (A) (A) (A) (A) (A) (A) (A) (A) (A) (A) (A) (A)
                 (A) (A)
       Virtual   (A) (A) (A) (A) (A) (A) (A) (A) (A) (A) (A) (A)
                 (A) (A) (A) (A) (A) (A) (A) (A) (A) (A) (A) (A)
                 (A) (A) (A) (A) (A) (A) (A) (A) (A) (A) (A) (A)
                 (A) (A) (A) (A) (A) (A) (A) (A) (A) (A) (A) (A)
                 (A) (A) (A) (A) (A) (A) (A) (A) (A) (A) (A) (A)
                 (A) (A) (A) (A) (A) (A) (A) (A) (A) (A) (A) (A)
                 (A) (A) (A) (A) (A) (A) (A) (A) (A) (A) (A) (A)
                 (A) (A) (A) (A) (A) (A) (A) (A) (A) (A) (A) (A)
                 (A) (A) (A) (A) (A) (A) (A) (A) (A) (A) (A) (A)
                 (A) (A) (A) (A) (A) (A) (A) (A) (A) (A) (A) (A)
                 (A) (A) (A) (A) (A) (A) (A) (A) (A) (A) (A) (A)
                 (A) (A) (A) (A) (A) (A) (A) (A) (A) (A) (A) (A)
                 (A) (A) (A) (A) (A) (A) (A) (A) (A) (A) (A) (A)
                 (A) (A) (A) (A) (A) (A) (A) (A) (A) (A) (A) (A)
                 (A) (A) (A) (A) (A) (A) (A) (A) (A) (A) (A) (A)
                 (A) (A) (A) (A) (A) (A) (A) (A) (A) (A) (A) (A)
                 (A) (A) (A) (A) (A) (A) (A) (A) (A) (A) (A) (A)
                 (A) (A) (A) (A) (A) (A) (A) (A) (A) (A) (A) (A)
                 (A) (A) (A) (A) (A) (A) (A) (A) (A) (A) (A) (A)
                 (A) (A) (A) (A) (A) (A) (A) (A) (A) (A) (A) (A)
                 (A) (A) (A) (A) (A) (A) (A) (A) (A) (A) (A) (A)
                 (A) (A) (A) (A) (A) (A) (A) (A) (A) (A) (A) (A)
                 (A) (A) (A) (A) (A) (A) (A) (A) (A) (A) (A) (A)
                 (A) (A) (A) (A) (A) (A) (A) (A) (A) (A) (A) (A)
                 (A) (A) (A) (A) (A) (A) (A) (A) (A) (A) (A) (A)
                 (A) (A) (A) (A) (A) (A) (A) (A) (A) (A) (A) (A)
                 (A) (A) (A) (A) (A) (A) (A) (A) (A) (A) (A) (A)
                 (A) (A) (A) (A) (A) (A) (A) (A) (A) (A) (A) (A)
                 (A) (A) (A) (A) (A) (A) (A) (A) (A) (A) (A) (A)
                 (A) (A) (A) (A) (A) (A) (A) (A) (A) (A) (A) (A)
                 (A) (A) (A) (A) (A) (A) (A) (A) (A) (A) (A) (A)
                 (A) (A) (A) (A) (A) (A) (A) (A) (A) (A) (A) (A)
                 (A) (A) (A) (A) (A) (A) (A) (A) (A) (A) (A) (A)
                 (A) (A) (A) (A) (A) (A) (A) (A) (A) (A) (A) (A)
                 (A) (A) (A) (A) (A) (A) (A) (A) (A) (A) (A) (A)
                 (A) (A) (A) (A) (A) (A) (A) (A) (A) (A) (A) (A)
                 (A) (A) (A) (A) (A) (A) (A) (A) (A) (A) (A) (A)
                 (A) (A) (A) (A) (A) (A) (A) (A) (A) (A) (A) (A)
                 (A) (A) (A) (A) (A) (A) (A) (A) (A) (A) (A) (A)
                 (A) (A) (A) (A) (A) (A) (A) (A) (A) (A) (A) (A)
                 (A) (A) (A) (A) (A) (A) (A) (A) (A) (A) (A) (A)
                 (A) (A) (A) (A) (A) (A) (A) (A) (A) (A) (A) (A)
                 (A) (A) (A) (A) (A) (A) (A) (A) (A) (A) (A) (A)
                 (A) (A) (A) (A) (A) (A) (A) (A) (A) (A) (A) (A)
                 (A) (A) (A) (A) (A) (A) (A) (A) (A) (A) (A) (A)
                 (A) (A) (A) (A) (A) (A) (A) (A) (A) (A) (A) (A)
                 (A) (A) (A) (A) (A) (A) (A) (A) (A) (A) (A) (A)
                 (A) (A) (A) (A) (A) (A) (A) (A) (A) (A) (A) (A)
                 (A) (A) (A) (A) (A) (A) (A) (A) (A) (A) (A) (A)
                 (A) (A) (A) (A) (A) (A) (A) (A) (A) (A) (A) (A)
                 (A) (A) (A) (A) (A) (A) (A) (A) (A) (A) (A) (A)
                 (A) (A) (A) (A) (A) (A) (A) (A) (A) (A) (A) (A)
                 (A) (A) (A) (A) (A) (A) (A) (A) (A) (A) (A) (A)
                 (A)
 The electronic state is 1-A.
 Alpha  occ. eigenvalues --  -10.23432 -10.22916 -10.21465 -10.20989 -10.20810
 Alpha  occ. eigenvalues --  -10.20514 -10.20077 -10.19957 -10.19752 -10.19379
 Alpha  occ. eigenvalues --  -10.19320 -10.19251 -10.19182 -10.19134 -10.19039
 Alpha  occ. eigenvalues --  -10.19029 -10.19015 -10.18864 -10.18835 -10.18606
 Alpha  occ. eigenvalues --  -10.18520 -10.18470 -10.18461 -10.18384 -10.18373
 Alpha  occ. eigenvalues --  -10.18263 -10.17849 -10.16747 -10.16465 -10.16411
 Alpha  occ. eigenvalues --   -0.92211  -0.89260  -0.88752  -0.85647  -0.84382
 Alpha  occ. eigenvalues --   -0.83562  -0.80456  -0.80126  -0.78562  -0.77656
 Alpha  occ. eigenvalues --   -0.75552  -0.74992  -0.72713  -0.71531  -0.71239
 Alpha  occ. eigenvalues --   -0.67057  -0.65528  -0.64854  -0.63621  -0.62355
 Alpha  occ. eigenvalues --   -0.60611  -0.59871  -0.58582  -0.57260  -0.55954
 Alpha  occ. eigenvalues --   -0.53393  -0.52834  -0.51473  -0.51396  -0.49915
 Alpha  occ. eigenvalues --   -0.49508  -0.47882  -0.47353  -0.46546  -0.45889
 Alpha  occ. eigenvalues --   -0.45681  -0.44768  -0.44711  -0.43662  -0.43437
 Alpha  occ. eigenvalues --   -0.42869  -0.42589  -0.41491  -0.40974  -0.40810
 Alpha  occ. eigenvalues --   -0.40434  -0.40149  -0.39196  -0.38135  -0.37455
 Alpha  occ. eigenvalues --   -0.36788  -0.35817  -0.35610  -0.34894  -0.34761
 Alpha  occ. eigenvalues --   -0.34009  -0.33491  -0.32879  -0.31963  -0.30413
 Alpha  occ. eigenvalues --   -0.29303  -0.29111  -0.26565  -0.25085  -0.24043
 Alpha  occ. eigenvalues --   -0.22723  -0.21114  -0.17994
 Alpha virt. eigenvalues --   -0.10224  -0.06675  -0.05021  -0.03720  -0.03291
 Alpha virt. eigenvalues --   -0.00947   0.00016   0.00550   0.00655   0.00897
 Alpha virt. eigenvalues --    0.01495   0.01522   0.01724   0.02490   0.02819
 Alpha virt. eigenvalues --    0.03002   0.03285   0.03583   0.04007   0.04492
 Alpha virt. eigenvalues --    0.04819   0.04895   0.05327   0.05621   0.06032
 Alpha virt. eigenvalues --    0.06408   0.06884   0.07171   0.07349   0.07786
 Alpha virt. eigenvalues --    0.08387   0.08490   0.08814   0.08945   0.09166
 Alpha virt. eigenvalues --    0.09787   0.10037   0.10152   0.10363   0.11169
 Alpha virt. eigenvalues --    0.11356   0.11694   0.11956   0.12293   0.12637
 Alpha virt. eigenvalues --    0.12773   0.13202   0.13750   0.13820   0.14269
 Alpha virt. eigenvalues --    0.14413   0.14732   0.15154   0.15305   0.15525
 Alpha virt. eigenvalues --    0.15868   0.16052   0.16177   0.16557   0.16676
 Alpha virt. eigenvalues --    0.16820   0.17106   0.17209   0.17667   0.17695
 Alpha virt. eigenvalues --    0.17932   0.18522   0.18595   0.18855   0.19106
 Alpha virt. eigenvalues --    0.19284   0.19398   0.19692   0.19846   0.20009
 Alpha virt. eigenvalues --    0.20174   0.20310   0.20564   0.20641   0.20824
 Alpha virt. eigenvalues --    0.21144   0.21263   0.21558   0.21690   0.22054
 Alpha virt. eigenvalues --    0.22347   0.22646   0.22754   0.22928   0.23271
 Alpha virt. eigenvalues --    0.23605   0.23725   0.23834   0.24155   0.24250
 Alpha virt. eigenvalues --    0.24721   0.25013   0.25129   0.25293   0.25498
 Alpha virt. eigenvalues --    0.25887   0.26125   0.26337   0.26412   0.26671
 Alpha virt. eigenvalues --    0.26869   0.27102   0.27414   0.27757   0.27800
 Alpha virt. eigenvalues --    0.28136   0.28769   0.28887   0.29361   0.29500
 Alpha virt. eigenvalues --    0.29749   0.30239   0.30390   0.30558   0.30859
 Alpha virt. eigenvalues --    0.31434   0.31693   0.31767   0.32289   0.32496
 Alpha virt. eigenvalues --    0.32815   0.33523   0.33827   0.33896   0.34073
 Alpha virt. eigenvalues --    0.34174   0.34965   0.35426   0.35667   0.35871
 Alpha virt. eigenvalues --    0.36302   0.37072   0.37269   0.37543   0.38093
 Alpha virt. eigenvalues --    0.38396   0.38713   0.38955   0.39127   0.39955
 Alpha virt. eigenvalues --    0.40507   0.40787   0.40911   0.41270   0.42556
 Alpha virt. eigenvalues --    0.43127   0.43619   0.43916   0.44676   0.45025
 Alpha virt. eigenvalues --    0.45333   0.46811   0.47245   0.47720   0.48260
 Alpha virt. eigenvalues --    0.48994   0.49154   0.49756   0.51043   0.51725
 Alpha virt. eigenvalues --    0.52131   0.52218   0.52848   0.53106   0.53686
 Alpha virt. eigenvalues --    0.53951   0.54503   0.54604   0.55145   0.55465
 Alpha virt. eigenvalues --    0.55901   0.56269   0.56671   0.56817   0.57304
 Alpha virt. eigenvalues --    0.57904   0.58252   0.58760   0.59101   0.59542
 Alpha virt. eigenvalues --    0.59681   0.60097   0.60564   0.60944   0.61029
 Alpha virt. eigenvalues --    0.61401   0.61839   0.62448   0.63254   0.63325
 Alpha virt. eigenvalues --    0.63771   0.64279   0.64735   0.65446   0.65782
 Alpha virt. eigenvalues --    0.66009   0.66723   0.67021   0.67237   0.67863
 Alpha virt. eigenvalues --    0.68024   0.68117   0.68754   0.69053   0.69394
 Alpha virt. eigenvalues --    0.69601   0.69901   0.70738   0.71347   0.71404
 Alpha virt. eigenvalues --    0.71617   0.71952   0.72323   0.72617   0.72821
 Alpha virt. eigenvalues --    0.73190   0.73531   0.73836   0.74201   0.74697
 Alpha virt. eigenvalues --    0.74928   0.75527   0.75600   0.76029   0.76384
 Alpha virt. eigenvalues --    0.76800   0.77587   0.78631   0.78693   0.79205
 Alpha virt. eigenvalues --    0.79471   0.80227   0.81971   0.82622   0.83094
 Alpha virt. eigenvalues --    0.83475   0.83645   0.84561   0.84933   0.85305
 Alpha virt. eigenvalues --    0.85799   0.86419   0.87598   0.87997   0.88672
 Alpha virt. eigenvalues --    0.88922   0.89390   0.89654   0.90081   0.90756
 Alpha virt. eigenvalues --    0.91123   0.91445   0.91978   0.92383   0.92539
 Alpha virt. eigenvalues --    0.92820   0.93496   0.94086   0.94261   0.94660
 Alpha virt. eigenvalues --    0.95073   0.95471   0.95739   0.95771   0.96168
 Alpha virt. eigenvalues --    0.96874   0.97102   0.98134   0.98332   0.98884
 Alpha virt. eigenvalues --    0.99406   0.99596   1.00390   1.00692   1.01255
 Alpha virt. eigenvalues --    1.02386   1.02670   1.02935   1.03529   1.03978
 Alpha virt. eigenvalues --    1.05307   1.05614   1.05668   1.06626   1.07531
 Alpha virt. eigenvalues --    1.07830   1.08618   1.08941   1.09830   1.10282
 Alpha virt. eigenvalues --    1.11653   1.12105   1.13541   1.14053   1.15582
 Alpha virt. eigenvalues --    1.15741   1.16129   1.17638   1.18076   1.18307
 Alpha virt. eigenvalues --    1.19742   1.20527   1.22235   1.23908   1.24548
 Alpha virt. eigenvalues --    1.24960   1.26310   1.27451   1.28970   1.30683
 Alpha virt. eigenvalues --    1.31823   1.32519   1.33433   1.35463   1.36014
 Alpha virt. eigenvalues --    1.37330   1.38555   1.38966   1.39578   1.40752
 Alpha virt. eigenvalues --    1.42276   1.42368   1.43123   1.44664   1.45217
 Alpha virt. eigenvalues --    1.46155   1.46614   1.46879   1.47355   1.48095
 Alpha virt. eigenvalues --    1.48326   1.49549   1.50163   1.50507   1.51186
 Alpha virt. eigenvalues --    1.51795   1.52385   1.52532   1.53334   1.53715
 Alpha virt. eigenvalues --    1.53797   1.54880   1.56025   1.56665   1.56845
 Alpha virt. eigenvalues --    1.57818   1.58187   1.58382   1.59291   1.59735
 Alpha virt. eigenvalues --    1.61263   1.61524   1.61868   1.62157   1.63227
 Alpha virt. eigenvalues --    1.64075   1.65945   1.66601   1.67129   1.67478
 Alpha virt. eigenvalues --    1.68751   1.69405   1.70052   1.70883   1.72219
 Alpha virt. eigenvalues --    1.72523   1.73235   1.73333   1.74041   1.74517
 Alpha virt. eigenvalues --    1.74657   1.75318   1.76121   1.77073   1.77431
 Alpha virt. eigenvalues --    1.77738   1.79336   1.80109   1.81378   1.81641
 Alpha virt. eigenvalues --    1.82211   1.82813   1.83093   1.84062   1.84571
 Alpha virt. eigenvalues --    1.85088   1.86505   1.86851   1.87441   1.87758
 Alpha virt. eigenvalues --    1.88217   1.89007   1.89261   1.89824   1.90343
 Alpha virt. eigenvalues --    1.91542   1.92089   1.92876   1.93486   1.93792
 Alpha virt. eigenvalues --    1.94499   1.94826   1.95595   1.96370   1.96660
 Alpha virt. eigenvalues --    1.98223   1.98287   1.99281   2.00320   2.00651
 Alpha virt. eigenvalues --    2.02038   2.02654   2.02699   2.03554   2.04307
 Alpha virt. eigenvalues --    2.04909   2.05592   2.06247   2.06684   2.07948
 Alpha virt. eigenvalues --    2.09085   2.09899   2.10717   2.11087   2.11793
 Alpha virt. eigenvalues --    2.12196   2.13309   2.14613   2.15087   2.15438
 Alpha virt. eigenvalues --    2.16240   2.17807   2.18697   2.19347   2.20347
 Alpha virt. eigenvalues --    2.21021   2.21990   2.23401   2.24581   2.25528
 Alpha virt. eigenvalues --    2.25738   2.26527   2.27375   2.28506   2.29260
 Alpha virt. eigenvalues --    2.30995   2.31654   2.33527   2.34375   2.36314
 Alpha virt. eigenvalues --    2.36947   2.38851   2.39163   2.39711   2.40546
 Alpha virt. eigenvalues --    2.41055   2.43061   2.43797   2.45239   2.46244
 Alpha virt. eigenvalues --    2.47297   2.48048   2.48411   2.52896   2.53278
 Alpha virt. eigenvalues --    2.54812   2.55279   2.55921   2.57180   2.58020
 Alpha virt. eigenvalues --    2.58667   2.60934   2.61710   2.63535   2.65041
 Alpha virt. eigenvalues --    2.66277   2.66976   2.69043   2.69358   2.70297
 Alpha virt. eigenvalues --    2.70930   2.71347   2.71561   2.72124   2.72356
 Alpha virt. eigenvalues --    2.72657   2.72973   2.74074   2.74401   2.75159
 Alpha virt. eigenvalues --    2.75661   2.75884   2.76129   2.76482   2.77149
 Alpha virt. eigenvalues --    2.77574   2.77980   2.78214   2.79247   2.79509
 Alpha virt. eigenvalues --    2.80944   2.81240   2.82567   2.83078   2.83478
 Alpha virt. eigenvalues --    2.84224   2.85043   2.86106   2.86534   2.87669
 Alpha virt. eigenvalues --    2.88491   2.88709   2.90219   2.90827   2.92076
 Alpha virt. eigenvalues --    2.92259   2.93086   2.94643   2.96068   2.97478
 Alpha virt. eigenvalues --    2.98918   2.99610   3.00962   3.02490   3.02995
 Alpha virt. eigenvalues --    3.05009   3.05269   3.06417   3.07640   3.08978
 Alpha virt. eigenvalues --    3.10265   3.10960   3.13083   3.13938   3.16551
 Alpha virt. eigenvalues --    3.17761   3.18728   3.20121   3.20641   3.21019
 Alpha virt. eigenvalues --    3.22418   3.24514   3.25438   3.25552   3.28323
 Alpha virt. eigenvalues --    3.29565   3.31861   3.34181   3.35394   3.36005
 Alpha virt. eigenvalues --    3.37704   3.38852   3.39513   3.40770   3.41042
 Alpha virt. eigenvalues --    3.41641   3.41997   3.44230   3.46050   3.48002
 Alpha virt. eigenvalues --    3.48984   3.51059   3.52593   3.53164   3.55874
 Alpha virt. eigenvalues --    3.57410   3.59669   3.60990   3.61250   3.63236
 Alpha virt. eigenvalues --    3.67001   3.69104   3.72016   3.73191   3.81924
 Alpha virt. eigenvalues --    3.83537   3.85481   3.92593   3.94913   4.01366
 Alpha virt. eigenvalues --    4.05187   4.05548   4.06452   4.07661   4.08603
 Alpha virt. eigenvalues --    4.10369   4.13279   4.19591   4.23485   4.27414
 Alpha virt. eigenvalues --    4.32718   4.40630   4.50187   4.56289   4.66895
 Alpha virt. eigenvalues --    4.72867   4.76421   4.78192   4.78874   4.81739
 Alpha virt. eigenvalues --    4.86087   4.88826  23.38660  23.62820  23.65302
 Alpha virt. eigenvalues --   23.73747  23.75163  23.79585  23.80391  23.82361
 Alpha virt. eigenvalues --   23.84519  23.85199  23.89165  23.91362  23.92015
 Alpha virt. eigenvalues --   23.92362  23.96585  23.99348  24.00372  24.06091
 Alpha virt. eigenvalues --   24.06698  24.08514  24.10415  24.12242  24.12492
 Alpha virt. eigenvalues --   24.14246  24.16043  24.18698  24.19086  24.20035
 Alpha virt. eigenvalues --   24.23229  24.28501
          Condensed to atoms (all electrons):
               1          2          3          4          5          6
     1  C   11.500358   0.628911   0.019895   0.739796  -0.412223  -1.876186
     2  C    0.628911   9.618342   0.799658  -0.847090  -0.880512   1.624177
     3  C    0.019895   0.799658  10.202043   2.071964   1.020129  -1.521512
     4  C    0.739796  -0.847090   2.071964  14.352769   0.451813  -3.492709
     5  C   -0.412223  -0.880512   1.020129   0.451813  10.952728   1.190137
     6  C   -1.876186   1.624177  -1.521512  -3.492709   1.190137  11.727411
     7  C    0.044938   0.490151   1.295412  -0.253596  -0.394499  -0.934399
     8  C   -0.088961   0.399859  -0.187811   0.181057  -0.073502   0.300911
     9  C    0.120868  -1.030927   3.049410   0.854275   0.402447  -2.219426
    10  C   -0.197119  -0.802129  -1.815149  -2.981733  -0.924358  -0.184740
    11  C   -0.989860   0.477114  -1.967492  -1.322340  -0.896130   0.910656
    12  C   -0.633072   0.009415  -1.155534  -0.269831  -0.457589   0.154568
    13  C   -0.677204  -0.370282   0.924826  -0.730226  -0.096612  -0.115729
    14  C   -0.263634  -0.357042  -1.999351  -0.878774  -0.214057   0.307103
    15  C    1.495252  -0.037878  -0.746002  -0.471999  -0.889135  -0.068381
    16  C   -0.489257  -1.127209  -0.617326   0.020898   0.072678  -0.377248
    17  C   -1.062005   0.289919  -0.790411  -0.747389  -1.000421   0.460992
    18  C    0.099714   0.084963  -1.385926  -0.605279  -1.558529  -0.013635
    19  C   -0.020090  -0.019885  -0.128327  -0.098124  -0.018791  -0.002565
    20  C    0.336179  -0.620174  -0.767816   0.127691   0.040225   0.093656
    21  C    0.131399  -0.010516  -0.175701   0.069040   0.012699   0.001998
    22  C   -0.024767  -0.052379   0.050337  -0.034868   0.001559  -0.004858
    23  C   -1.184447  -1.287245  -0.147003  -0.133790  -0.140881  -0.136084
    24  C   -0.171031  -0.350317  -0.038930  -0.044629  -0.222310  -0.008379
    25  C    0.143467  -0.376140   0.056472  -0.040917   0.034279   0.045314
    26  C   -0.981500  -0.211012  -0.394625   0.052153  -0.195966  -0.102245
    27  C   -0.276218   0.015767   0.025224  -0.068587  -0.113515  -0.000320
    28  C   -0.030729  -0.022393  -0.035558  -0.009098  -0.025651  -0.001965
    29  C    0.031571  -0.185191   0.015893  -0.003499   0.010413   0.005818
    30  C   -0.042147  -0.010937  -0.001758  -0.003316  -0.007014  -0.001562
    31  H    0.000031   0.000081  -0.000006   0.000002  -0.000000  -0.000000
    32  H   -0.000076   0.000025  -0.000009  -0.000004   0.000001  -0.000000
    33  H   -0.001353   0.002451  -0.009842   0.003435  -0.000458   0.000232
    34  H    0.000421  -0.000015   0.000027  -0.000001   0.000022   0.000002
    35  H    0.003352   0.000549   0.000116   0.000018   0.000407   0.000016
    36  H    0.053253   0.009446   0.001360   0.000279   0.005709   0.000526
    37  H   -0.039824   0.017905  -0.002288   0.006059   0.024492   0.005925
    38  H   -0.088193   0.037940  -0.009707  -0.061618   0.379293   0.011911
    39  H   -0.001929  -0.001269   0.013169  -0.099865  -0.030782   0.415057
    40  H    0.008409  -0.010229   0.026095  -0.055525   0.021730   0.025638
    41  H   -0.000602  -0.002976  -0.025894  -0.053355  -0.001796   0.005510
    42  H    0.000277   0.001629  -0.001869   0.007597   0.000181  -0.000778
    43  H    0.000054   0.000107   0.001018   0.000309   0.000011   0.000011
    44  H    0.000029   0.000209   0.000093   0.000014   0.000001  -0.000000
    45  H   -0.000332  -0.000943  -0.000638   0.000010  -0.000028   0.000010
    46  H   -0.001000   0.001471  -0.007231   0.001962  -0.000246   0.000166
               7          8          9         10         11         12
[...]
 -0.00006629,0.00019557,-0.00005990,0.00008463,-0.00000153,-0.00009102,
 -0.00003547,-0.00001511,0.00000202,0.00001646,0.00005826,-0.00000861,-
 0.00000590,-0.00000100,0.00000480,0.00004829,0.00000523,0.00005812,0.0
 0037798,-0.00009270,-0.00074395,-0.00000217,0.00000662,0.00000414,-0.0
 0000255,0.00000330,0.00000108,0.00000226,0.00000244,0.00000073,0.00000
 217,0.00000086,0.00000418,-0.00000299,0.00000076,0.00000684,0.00000101
 ,-0.00000256,-0.00000017,-0.00000057,0.00000798,0.00000246,-0.00000402
 ,-0.00000766,-0.00000774,-0.00018197,0.00026132,-0.00002936,0.13510191
 ,-0.00007062,0.00011745,-0.00000280,0.00007587,-0.00017106,-0.00007473
 ,-0.00009472,0.00015308,-0.00001432,-0.00010032,0.00006577,0.00000787,
 -0.00008325,0.00000146,-0.00000012,0.00002393,-0.00008433,-0.00001788,
 -0.00056105,0.00029101,-0.00010391,-0.00044637,-0.00085755,0.00039800,
 0.00019296,0.00007608,-0.00002937,0.00008566,-0.00021074,0.00000557,0.
 00100740,-0.00049966,0.00008036,-0.00316375,-0.00115243,-0.00214093,0.
 01160888,-0.01585738,-0.00709424,0.00251251,0.00151206,0.00108828,0.00
 010138,0.00004009,0.00000149,-0.00004572,-0.00005974,-0.00000886,0.000
 07454,0.00007594,0.00000861,-0.00014223,-0.00010794,0.00019848,0.11366
 141,-0.21681523,-0.09431702,0.00058699,0.00066585,0.00018795,-0.001091
 19,0.00070968,-0.00200274,-0.00475897,0.00598977,0.00140206,0.00002609
 ,-0.00001232,-0.00000497,-0.00001884,-0.00001158,0.00000970,0.00014674
 ,0.00002563,-0.00000545,-0.00009644,0.00005828,-0.00000944,0.00008987,
 0.00022263,0.00017811,0.00018798,-0.00014873,0.00004602,-0.00005350,-0
 .00014829,-0.00001715,-0.00008303,0.00013785,-0.00001580,0.00001095,-0
 .00000020,0.00000324,0.00000165,-0.00000236,-0.00000386,-0.00024746,-0
 .00032173,-0.00029664,0.00000012,-0.00000553,0.00000201,0.00000263,-0.
 00000057,-0.00000208,-0.00000049,-0.00000383,-0.00000241,0.00000166,-0
 .00000510,0.00000075,-0.00000503,-0.00000366,0.00000375,-0.00000337,-0
 .00000609,-0.00000185,-0.00001096,-0.00000410,0.00000466,-0.00001331,0
 .00000716,-0.00001331,-0.00071808,0.00013962,-0.00050964,-0.11891332,0
 .22609767,-0.00003195,-0.00001208,-0.00002337,0.00002433,-0.00002916,0
 .00002173,-0.00000542,0.00002821,-0.00004380,0.00004149,-0.00010620,0.
 00001052,0.00005416,-0.00004035,-0.00000757,-0.00001333,0.00007817,0.0
 0000819,0.00039531,-0.00008258,0.00000106,-0.00001334,0.00072754,-0.00
 012588,-0.00009962,-0.00008200,0.00004837,-0.00001456,0.00011749,-0.00
 001343,0.00024974,-0.00030579,0.00024443,-0.00109906,0.00003065,0.0001
 4632,0.00586023,-0.00081594,0.00277098,-0.00037625,-0.00019842,-0.0007
 6110,-0.00000285,-0.00001306,-0.00000091,0.00000479,-0.00001535,-0.000
 01416,-0.00000730,0.00000645,0.00000740,-0.00008648,0.00001442,0.00010
 770,0.05691081,-0.09409136,-0.07847467,-0.00024336,-0.00084715,-0.0004
 4328,0.00229890,-0.00075930,0.00782455,0.00454219,-0.00583496,0.002000
 66,-0.00001077,0.00000414,0.00000603,0.00000984,0.00000064,-0.00001455
 ,-0.00003985,-0.00001157,-0.00000854,0.00001319,-0.00010965,0.00005976
 ,-0.00016439,-0.00011163,-0.00004477,0.00002329,0.00006440,-0.00007003
 ,0.00000234,0.00002969,0.00000328,0.00001369,-0.00001653,0.00001633,-0
 .00000143,0.00000051,0.00000199,-0.00000941,0.00000146,0.00000759,0.00
 122186,-0.00020706,-0.00120922,0.00000201,-0.00000115,0.00000113,0.000
 00196,-0.00000199,0.00000029,0.00000069,-0.00000161,0.00000119,0.00000
 055,-0.00000180,0.00000174,-0.00000102,-0.00000260,0.00000303,-0.00000
 370,-0.00000246,0.00000011,-0.00000210,0.00000342,-0.00000362,-0.00001
 421,-0.00000378,0.00000793,-0.00046845,0.00005119,-0.00005395,-0.06661
 718,0.10069661,0.07324129,-0.00004280,-0.00005258,-0.00001033,-0.00006
 597,0.00004400,0.00000239,0.00003930,-0.00017780,0.00001320,0.00008844
 ,-0.00008701,0.00000038,0.00011935,-0.00000441,0.00001255,-0.00004659,
 0.00009887,0.00000512,0.00055360,0.00000540,-0.00002146,-0.00047065,0.
 00056778,-0.00018179,-0.00009649,-0.00017402,0.00009136,-0.00012669,0.
 00015876,-0.00000191,-0.00038323,-0.00048023,0.00022367,0.00083447,0.0
 0047353,-0.00061967,-0.00364485,0.00170211,0.00335667,-0.00053871,-0.0
 0168345,-0.00035234,0.00000411,-0.00002903,-0.00000978,-0.00000594,-0.
 00002962,0.00000716,0.00004597,0.00000075,0.00000620,-0.00005951,0.000
 09254,-0.00005684,-0.01167686,-0.02713930,-0.00465568,-0.00104555,0.00
 042345,0.00191617,0.00826264,0.01440000,0.00165163,-0.14026831,-0.1330
 5489,-0.01273966,-0.00000174,-0.00000941,-0.00000157,-0.00001777,0.000
 01189,-0.00000220,-0.00001920,0.00002180,0.00003063,-0.00007906,-0.000
 07335,-0.00003476,-0.00012770,0.00037899,-0.00037685,0.00011290,0.0001
 3155,0.00001394,0.00001830,-0.00002170,-0.00000242,-0.00004314,0.00000
 425,0.00000053,-0.00000838,0.00000981,0.00000062,-0.00003851,0.0000195
 5,-0.00000678,-0.00049916,-0.00010328,0.00031838,0.00000047,-0.0000070
 8,-0.00000341,0.00000205,0.00000087,0.00000233,-0.00000126,-0.00000210
 ,0.00000062,0.00000040,-0.00000083,-0.00000245,-0.00000075,-0.00000407
 ,0.00000018,-0.00000202,0.00000286,-0.00000348,-0.00000158,-0.00001333
 ,-0.00001794,-0.00000871,0.00000322,0.00000005,-0.00003976,0.00004500,
 0.00000484,0.00061796,0.00116683,-0.00166343,0.14800157,0.00010824,0.0
 0003565,0.00000930,0.00002590,-0.00011338,-0.00000395,-0.00003632,0.00
 014087,-0.00002144,-0.00012630,0.00017899,0.00001138,-0.00017219,0.000
 00579,-0.00001632,0.00008753,-0.00015388,-0.00000717,-0.00052141,0.000
 12633,-0.00006759,-0.00009378,-0.00053758,0.00020543,0.00018873,0.0000
 9347,0.00007350,0.00004706,-0.00021552,-0.00000831,0.00035759,0.000539
 11,-0.00010914,-0.00082691,0.00026658,0.00081627,-0.00084388,0.0008796
 3,-0.00196205,0.00076247,0.00020080,-0.00032391,-0.00005859,0.00001330
 ,0.00000982,0.00000882,0.00007449,-0.00000816,-0.00012994,-0.00005821,
 -0.00001869,0.00011306,-0.00009020,0.00003769,0.00351083,0.00416729,-0
 .00156858,0.00192608,0.00020516,-0.00315361,-0.01233293,-0.01635778,-0
 .00115590,-0.13773656,-0.24062586,-0.03655651,-0.00000892,0.00002160,0
 .00000663,0.00003440,-0.00000940,-0.00000444,0.00000484,-0.00003259,-0
 .00003210,0.00020896,0.00012464,0.00012933,-0.00007879,-0.00063655,0.0
 0030553,-0.00010229,-0.00023381,0.00005404,0.00002539,0.00003323,-0.00
 000355,0.00006153,-0.00001797,-0.00003153,0.00003028,-0.00001449,0.000
 00025,0.00006050,-0.00009521,-0.00001779,0.00063663,0.00056211,0.00035
 129,0.00000497,0.00000212,0.00001199,0.00000591,-0.00000649,-0.0000040
 8,0.00000075,-0.00000652,-0.00000144,-0.00000005,-0.00000760,0.0000000
 3,-0.00000016,-0.00000492,-0.00000010,-0.00000636,-0.00000718,0.000001
 43,-0.00000563,-0.00000769,-0.00000933,-0.00001165,0.00000785,-0.00000
 766,-0.00002162,-0.00000200,-0.00001543,0.00002562,-0.00022502,0.00213
 379,0.14384611,0.25141570,-0.00014883,0.00002149,0.00000228,-0.0000109
 7,0.00002521,-0.00001203,0.00001827,-0.00002522,0.00001582,0.00013258,
 -0.00026717,-0.00000779,0.00017044,-0.00004265,0.00001221,-0.00008040,
 0.00018959,0.00000374,0.00044122,-0.00030305,0.00014014,0.00044788,0.0
 0077854,-0.00039190,-0.00025936,-0.00016034,-0.00016260,-0.00001658,0.
 00029066,0.00001926,-0.00038910,-0.00035955,0.00025972,0.00084534,-0.0
 0003229,-0.00060151,0.00460846,-0.00083364,0.00752970,-0.00088022,0.00
 014597,0.00103771,0.00011404,0.00000172,-0.00001107,-0.00005887,-0.000
 08575,0.00000379,0.00012355,0.00010140,0.00001667,-0.00004964,0.000062
 14,-0.00009310,0.00117298,0.00472452,0.00716733,0.00117398,-0.00075358
 ,-0.00108233,-0.00639626,-0.00741528,0.00596123,-0.00930014,-0.0376753
 8,-0.04333518,0.00003290,-0.00002467,-0.00000780,-0.00000861,-0.000010
 65,-0.00000045,0.00004759,-0.00003576,-0.00004333,0.00006232,-0.000026
 49,0.00006860,-0.00045334,-0.00031878,0.00042070,0.00004803,0.00000652
 ,-0.00008494,-0.00006483,-0.00010561,0.00000487,-0.00006282,0.00010131
 ,0.00001452,0.00000323,-0.00000038,0.00000529,-0.00003781,0.00001354,0
 .00004727,0.00120415,-0.00054774,-0.00218625,0.00000075,-0.00000543,-0
 .00000106,-0.00000152,-0.00000736,-0.00000095,-0.00000219,0.00000067,0
 .00000188,0.00000014,0.00000069,0.00000014,-0.00000004,0.00000037,0.00
 000380,0.00000079,0.00000320,-0.00000366,-0.00000359,0.00000970,0.0000
 2325,0.00000643,-0.00000541,0.00001025,-0.00000865,-0.00000614,-0.0000
 0377,-0.00153074,0.00196264,-0.00514003,0.01338288,0.04056673,0.032650
 44,0.00007325,-0.00008960,-0.00000468,-0.00002278,-0.00003109,-0.00001
 447,-0.00004036,-0.00008950,0.00001869,0.00003339,0.00004194,-0.000000
 46,-0.00000357,-0.00001852,-0.00001263,0.00002043,-0.00001637,-0.00000
 134,0.00040161,-0.00008365,-0.00028638,-0.00028466,0.00023101,0.000094
 07,0.00010952,-0.00002891,-0.00004463,-0.00012398,0.00000856,-0.000020
 31,-0.00051007,0.00031853,0.00020321,0.00116960,0.00006200,0.00239831,
 -0.00110301,-0.00007349,-0.00090575,0.00006435,-0.00030511,0.00013929,
 -0.00011190,-0.00005804,-0.00000457,0.00002486,0.00010567,0.00001198,-
 0.00009592,-0.00009352,0.00001466,0.00001343,0.00004288,0.00000482,0.0
 0070176,0.00073599,0.00191472,-0.00449131,-0.00060194,0.00136182,-0.27
 523927,-0.02696157,0.11621941,-0.00612681,-0.00175781,0.00120548,-0.00
 004420,0.00005678,0.00000427,0.00007278,-0.00003039,0.00000225,-0.0002
 5499,0.00002504,0.00003475,0.00035957,-0.00042027,-0.00005289,-0.00108
 296,0.00029810,-0.00125503,-0.00142815,0.00131803,-0.00204264,0.000099
 24,0.00011921,0.00017698,0.00031363,0.00022245,-0.00010122,-0.00001107
 ,0.00000828,-0.00010710,-0.00084043,0.00284972,-0.00153794,-0.00074327
 ,-0.00000345,0.00101817,0.00000425,0.00004330,0.00003110,0.00000989,-0
 .00000925,0.00000752,0.00000370,-0.00001048,-0.00000195,-0.00000160,-0
 .00001010,-0.00000305,-0.00000160,-0.00000953,0.00000089,-0.00000830,-
 0.00000596,0.00000664,-0.00000631,-0.00000953,0.00001041,-0.00002310,0
 .00000670,-0.00000148,-0.00006455,0.00004880,0.00005106,-0.00016746,-0
 .00029230,0.00022559,0.00037762,0.00071298,-0.00079225,0.29410116,0.00
 008614,0.00002960,-0.00000084,0.00003724,-0.00014193,-0.00001700,-0.00
 015359,0.00016800,-0.00007117,-0.00008996,0.00007648,0.00002025,-0.000
 13073,-0.00004224,-0.00002049,0.00006731,-0.00009875,0.00000021,-0.000
 38932,-0.00042742,-0.00016161,0.00001002,-0.00033750,0.00004218,0.0001
 5000,0.00008667,0.00003204,0.00003930,-0.00017486,-0.00000241,-0.00109
 023,0.00107331,0.00014498,-0.00115529,-0.00555708,0.00317919,-0.000565
 71,-0.00108111,0.00005709,0.00029419,0.00042263,0.00011680,-0.00005859
 ,-0.00002260,-0.00000252,0.00006876,-0.00001728,-0.00000893,-0.0000433
 7,0.00006689,0.00002881,0.00005570,0.00005423,0.00003207,0.00159473,-0
 .00443166,-0.00314120,-0.02510851,0.00098603,0.00847841,-0.02463983,-0
 .05582723,0.01076926,0.02523745,0.00541816,-0.00861735,-0.00010989,0.0
 0009440,0.00001686,0.00009727,0.00000455,-0.00000810,-0.00032976,0.000
 04238,-0.00000379,-0.00008981,-0.00047887,-0.00007553,-0.00124721,0.00
 176268,-0.00023471,0.00073642,-0.00041899,0.00046427,0.00022172,0.0003
 9766,0.00002516,0.00054268,-0.00030545,-0.00023118,-0.00000280,-0.0000
 2071,0.00005553,0.00112422,-0.00044482,0.00148709,0.00021686,0.0001191
 3,-0.00007798,0.00000262,0.00003550,0.00004323,-0.00000005,0.00001050,
 0.00000055,0.00000914,0.00000005,-0.00000270,0.00000274,-0.00000285,0.
 00000384,-0.00000054,-0.00000141,0.00000434,-0.00000272,-0.00001325,0.
 00000062,-0.00000395,-0.00000457,-0.00000214,-0.00001146,0.00000187,-0
 .00000987,-0.00008279,0.00000361,-0.00002454,0.00133384,0.00005684,-0.
 00010349,-0.00055234,0.00086601,0.00057126,0.02433982,0.05876699,0.000
 26522,-0.00025942,-0.00002975,-0.00010949,0.00024310,0.00001043,0.0001
 7377,-0.00032062,-0.00006922,-0.00014758,0.00034307,-0.00000318,-0.000
 05610,0.00011438,0.00000411,0.00003271,-0.00014030,0.00001028,0.000313
 43,0.00072700,-0.00052848,-0.00086294,-0.00039333,0.00020373,0.0003920
 9,0.00017048,-0.00010818,-0.00011026,-0.00028224,-0.00000014,0.0007382
 6,-0.00019590,0.00070452,-0.00024650,0.00444370,0.00223509,-0.00401571
 ,-0.00065928,0.00049466,0.00110111,0.00000649,0.00049494,-0.00031917,-
 0.00005499,0.00000942,0.00014792,0.00007086,0.00000168,-0.00005373,-0.
 00018733,-0.00000436,-0.00004081,-0.00002642,-0.00001501,0.00014503,-0
 .00419616,0.00035758,0.01058360,-0.00212865,-0.00223259,0.10958841,0.0
 1118426,-0.09351765,0.01275993,0.00335314,-0.00422560,-0.00011081,-0.0
 0001593,-0.00000043,0.00000209,0.00014431,-0.00001414,-0.00046456,-0.0
 0005992,0.00007611,0.00029184,-0.00042342,-0.00001622,-0.00083685,-0.0
 0074064,-0.00142042,-0.00015753,0.00180273,-0.00009650,0.00040591,0.00
 040926,-0.00002347,0.00008637,-0.00093020,-0.00016539,-0.00000921,0.00
 003083,0.00003400,-0.00149799,0.00082824,-0.00093702,0.00190852,0.0001
 7758,0.00071708,0.00000977,-0.00005699,0.00002724,0.00001265,-0.000010
 13,0.00001092,-0.00000988,-0.00000847,0.00000612,-0.00000499,-0.000000
 44,-0.00000783,-0.00000132,-0.00000880,-0.00000170,-0.00000600,0.00000
 465,0.00001110,0.00000007,-0.00001098,0.00001867,-0.00002204,0.0000092
 6,-0.00001100,-0.00007435,0.00007222,0.00000630,0.00099974,0.00000793,
 0.00047530,-0.00071402,0.00075768,-0.00064695,-0.12132111,-0.01276878,
 0.09343299,0.00169841,0.00056741,0.00024294,-0.00011801,-0.00054204,-0
 .00031503,-0.00043721,0.00066247,0.00032741,-0.00197838,0.00386180,-0.
 00008303,-0.00246081,0.00088333,-0.00006542,0.00093898,-0.00276932,-0.
 00027134,-0.00956986,0.00482649,-0.00091346,-0.00332007,-0.01640231,-0
 .00038090,0.00369636,0.00232154,0.00002872,0.00071831,-0.00439692,0.00
 033178,0.00756832,0.00558099,-0.00161096,-0.02438825,0.00556768,0.0025
 6863,-0.03364797,-0.00084555,0.08349373,0.02334717,0.00934986,-0.00194
 953,-0.00067383,0.00006234,0.00007071,0.00044918,0.00071155,0.00009783
 ,-0.00083625,-0.00096588,-0.00016913,0.00075465,0.00003911,-0.00045227
 ,-0.02104956,-0.01151935,-0.00290208,0.01071814,0.03479536,-0.02938887
 ,0.02116861,-0.01113747,0.07355815,0.00930649,-0.02078685,-0.02641518,
 -0.00015890,0.00005893,-0.00000406,0.00015042,0.00005471,0.00001022,-0
 .00048928,-0.00044249,0.00011044,0.00043884,0.00156638,-0.00029692,0.0
 0535211,-0.00525776,-0.00228045,-0.00300976,0.00037242,0.00077847,0.00
 000235,0.00157219,0.00005023,0.00118119,-0.00177490,-0.00059695,-0.000
 03406,-0.00001941,-0.00004001,-0.00046900,-0.00002055,0.00044571,0.026
 83947,0.00322420,-0.04878143,0.00002373,-0.00002739,0.00012489,-0.0000
 0256,-0.00000660,0.00001327,0.00001379,0.00000709,-0.00000598,-0.00001
 254,0.00001212,-0.00001888,-0.00002286,0.00000938,-0.00000491,0.000022
 63,-0.00003192,0.00005949,0.00000808,-0.00007604,0.00000744,-0.0000072
 9,0.00005439,-0.00009793,0.00011921,0.00046734,0.00120134,-0.00063542,
 -0.00055174,-0.00090749,0.00028172,0.00031912,-0.00348117,-0.00512241,
 -0.00040970,-0.00876547,-0.00635392,-0.00013937,0.00008193,-0.00004651
 ,0.00041231,-0.00027790,0.00001405,0.00009240,0.00121707,-0.00008969,-
 0.00048874,-0.00017189,0.00000498,-0.00013048,-0.00028218,-0.00004981,
 0.00019652,0.00011930,0.00002987,-0.00193816,-0.00067791,0.00026307,0.
 00059393,-0.00047847,-0.00010022,0.00027416,0.00001166,0.00004156,0.00
 026060,-0.00035906,0.00002166,0.00135658,0.00208265,-0.00067933,0.0000
 1443,-0.00487426,0.00807446,-0.00212298,-0.00137022,0.00192579,0.00003
 390,0.00098800,0.00082666,0.00015158,0.00016441,0.00003523,-0.00005952
 ,-0.00018839,-0.00002635,0.00025436,0.00029945,0.00008415,0.00015387,-
 0.00052621,-0.00001217,-0.00159662,-0.00406571,-0.00741077,0.00454749,
 -0.00969429,0.01593145,-0.00128227,-0.01597966,0.00108144,-0.00029735,
 -0.00735596,-0.01717759,-0.00002217,0.00006938,0.00002337,0.00006998,-
 0.00003492,-0.00003926,0.00021885,-0.00004915,-0.00003684,-0.00038418,
 -0.00052099,-0.00010872,-0.00138365,0.00051034,0.00040367,0.00072290,-
 0.00008568,-0.00017702,-0.00021672,-0.00034555,-0.00003970,-0.00022185
 ,0.00057304,0.00018021,-0.00000146,0.00000785,0.00003373,0.00004447,0.
 00005860,-0.00008171,0.00066597,-0.01299120,-0.00055539,-0.00000187,0.
 00000744,-0.00003155,0.00000535,0.00000177,0.00000628,0.00000185,-0.00
 000488,0.00000249,0.00000610,-0.00001369,0.00000026,0.00001773,-0.0000
 0406,0.00001479,-0.00001889,-0.00002604,-0.00000961,-0.00003205,-0.000
 01222,0.00000093,-0.00001251,0.00001929,-0.00000884,-0.00001645,-0.000
 01942,-0.00011343,-0.00026849,0.00027123,-0.00017977,0.00008992,-0.000
 50088,-0.00052954,-0.00058545,-0.00069360,-0.00102183,0.00103599,0.055
 12102,0.00068661,-0.00016670,0.00010346,-0.00020692,0.00033392,-0.0000
 6003,-0.00006219,-0.00065014,0.00021192,-0.00040762,0.00129009,-0.0000
 9124,-0.00051316,0.00055024,0.00005037,0.00005871,-0.00081869,-0.00006
 365,-0.00160900,0.00201826,-0.00076348,-0.00201319,-0.00389648,0.00047
 936,0.00099493,0.00066060,-0.00021601,-0.00009940,-0.00104300,0.000056
 77,0.00200153,0.00123870,-0.00086487,-0.00584557,0.00687349,-0.0046168
 9,-0.00530318,0.00016416,0.01369813,0.00644512,0.00125342,-0.00067816,
 -0.00046342,-0.00010056,0.00001403,0.00018386,0.00045873,0.00005383,-0
 .00050724,-0.00058374,-0.00009707,0.00018410,0.00011884,-0.00022453,-0
 .00578045,-0.00806143,-0.00606757,-0.00011818,0.01835070,-0.01804376,0
 .01184220,-0.00308344,-0.00262452,-0.00001186,-0.01483362,-0.02264126,
 -0.00003196,-0.00005041,-0.00001231,-0.00003831,0.00008881,0.00002311,
 -0.00030024,-0.00004023,0.00011612,0.00058539,0.00083997,-0.00004291,0
 .00249183,-0.00154261,-0.00119581,-0.00096355,0.00000298,0.00051196,0.
 00031660,0.00063080,0.00001852,0.00039980,-0.00100386,-0.00041049,0.00
 000719,-0.00000926,-0.00002142,-0.00018902,-0.00023010,0.00024167,0.02
 839863,0.00154759,-0.02562268,0.00000719,-0.00002679,0.00006649,0.0000
 0081,-0.00000477,-0.00000098,-0.00000261,-0.00000027,-0.00000454,-0.00
 001449,0.00001377,-0.00001007,-0.00001664,0.00000621,-0.00003705,0.000
 02141,0.00002268,0.00001981,0.00002973,-0.00002145,0.00002837,-0.00000
 670,0.00000286,-0.00003466,-0.00016811,0.00014078,0.00029644,-0.000453
 11,0.00039544,-0.00056600,0.00043725,-0.00037333,-0.00160392,0.0033557
 7,0.00001228,0.00473296,-0.03332253,-0.00047444,0.06589258\\-0.0000002
 1,0.00000182,-0.00000732,-0.00000581,0.00000506,-0.00000756,0.00001144
 ,0.00000033,-0.00001855,-0.00000272,0.00000428,-0.00000364,-0.00000181
 ,0.00000159,0.00000807,-0.00000217,0.00000020,0.00000671,-0.00000809,0
 .00001103,-0.00003766,-0.00000050,0.00001025,-0.00000630,-0.00000062,0
 .00000193,0.00000834,-0.00000150,0.00000081,0.00001044,-0.00000729,-0.
 00000217,-0.00000393,0.00000458,-0.00000393,0.00003987,-0.00001842,0.0
 0002567,0.00000042,0.00000890,0.00000876,0.00000984,-0.00000080,-0.000
 00259,0.00000993,-0.00000055,-0.00000228,0.00001583,-0.00000495,-0.000
 00110,-0.00000590,0.00001056,-0.00000344,0.00002050,0.00001764,-0.0000
 2470,0.00000596,-0.00000530,-0.00003056,-0.00000041,0.00003234,0.00009
 581,0.00000014,-0.00001515,-0.00002991,-0.00001611,-0.00000323,-0.0000
 0027,0.00000140,-0.00000032,-0.00000100,0.00000721,-0.00000080,-0.0000
 0060,-0.00001066,0.00000127,0.00000037,0.00000127,0.00000748,-0.000007
 10,-0.00000141,0.00001341,-0.00000997,0.00000835,-0.00000171,-0.000002
 64,0.00001132,-0.00000151,-0.00000277,0.00000664,0.00000099,-0.0000035
 2,0.00000071,0.00000461,-0.00001503,0.00000338,0.00000297,-0.00003133,
 -0.00000737,-0.00000074,-0.00000229,-0.00000029,-0.00000203,-0.0000019
 0,-0.00000146,-0.00000215,-0.00000133,0.00000400,-0.00000223,0.0000000
 6,0.00000196,-0.00000212,0.00000181,-0.00000128,-0.00000082,0.00000229
 ,-0.00000345,0.00000084,0.00000342,-0.00000898,0.00000179,0.00000176,-
 0.00001239,0.00000098,0.00000051,-0.00000884,0.00000038,0.00000245,-0.
 00000870,0.00000349,-0.00000035,-0.00000398,-0.00001672,-0.00000716,0.
 00000905,-0.00001339,0.00000774,-0.00001518\\\@


 ALMOST ANYTHING IS EASIER TO GET INTO THAN OUT OF.

                         -- AGNES ALLEN'S LAW FROM
                PAUL DICKSON'S "THE OFFICIAL RULES"
 Job cpu time:       0 days 23 hours 42 minutes  5.7 seconds.
 Elapsed time:       0 days  1 hours 11 minutes 18.1 seconds.
 File lengths (MBytes):  RWF=   2279 Int=      0 D2E=      0 Chk=     57 Scr=      1
 Normal termination of Gaussian 16 at Thu Jul  4 03:17:01 2019.
