 Entering Gaussian System, Link 0=/share/apps/gaussian16/g16/g16
 Initial command:
 /share/apps/gaussian16/g16/l1.exe "/home/amen01//scratch/1009/Gau-2766.inp" -scrdir="/home/amen01//scratch/1009/"
 Entering Link 1 = /share/apps/gaussian16/g16/l1.exe PID=      2767.
  
 Copyright (c) 1988-2017, Gaussian, Inc.  All Rights Reserved.
  
 This is part of the Gaussian(R) 16 program.  It is based on
 the Gaussian(R) 09 system (copyright 2009, Gaussian, Inc.),
 the Gaussian(R) 03 system (copyright 2003, Gaussian, Inc.),
 the Gaussian(R) 98 system (copyright 1998, Gaussian, Inc.),
 the Gaussian(R) 94 system (copyright 1995, Gaussian, Inc.),
 the Gaussian 92(TM) system (copyright 1992, Gaussian, Inc.),
 the Gaussian 90(TM) system (copyright 1990, Gaussian, Inc.),
 the Gaussian 88(TM) system (copyright 1988, Gaussian, Inc.),
 the Gaussian 86(TM) system (copyright 1986, Carnegie Mellon
 University), and the Gaussian 82(TM) system (copyright 1983,
 Carnegie Mellon University). Gaussian is a federally registered
 trademark of Gaussian, Inc.
  
 This software contains proprietary and confidential information,
 including trade secrets, belonging to Gaussian, Inc.
  
 This software is provided under written license and may be
 used, copied, transmitted, or stored only in accord with that
 written license.
  
 The following legend is applicable only to US Government
 contracts under FAR:
  
                    RESTRICTED RIGHTS LEGEND
  
 Use, reproduction and disclosure by the US Government is
 subject to restrictions as set forth in subparagraphs (a)
 and (c) of the Commercial Computer Software - Restricted
 Rights clause in FAR 52.227-19.
  
 Gaussian, Inc.
 340 Quinnipiac St., Bldg. 40, Wallingford CT 06492
  
  
 ---------------------------------------------------------------
 Warning -- This program may not be used in any manner that
 competes with the business of Gaussian, Inc. or will provide
 assistance to any competitor of Gaussian, Inc.  The licensee
 of this program is prohibited from giving any competitor of
 Gaussian, Inc. access to this program.  By using this program,
 the user acknowledges that Gaussian, Inc. is engaged in the
 business of creating and licensing software in the field of
 computational chemistry and represents and warrants to the
 licensee that it is not a competitor of Gaussian, Inc. and that
 it will not use this program in any manner prohibited above.
 ---------------------------------------------------------------
  

 Cite this work as:
 Gaussian 16, Revision B.01,
 M. J. Frisch, G. W. Trucks, H. B. Schlegel, G. E. Scuseria, 
 M. A. Robb, J. R. Cheeseman, G. Scalmani, V. Barone, 
 G. A. Petersson, H. Nakatsuji, X. Li, M. Caricato, A. V. Marenich, 
 J. Bloino, B. G. Janesko, R. Gomperts, B. Mennucci, H. P. Hratchian, 
 J. V. Ortiz, A. F. Izmaylov, J. L. Sonnenberg, D. Williams-Young, 
 F. Ding, F. Lipparini, F. Egidi, J. Goings, B. Peng, A. Petrone, 
 T. Henderson, D. Ranasinghe, V. G. Zakrzewski, J. Gao, N. Rega, 
 G. Zheng, W. Liang, M. Hada, M. Ehara, K. Toyota, R. Fukuda, 
 J. Hasegawa, M. Ishida, T. Nakajima, Y. Honda, O. Kitao, H. Nakai, 
 T. Vreven, K. Throssell, J. A. Montgomery, Jr., J. E. Peralta, 
 F. Ogliaro, M. J. Bearpark, J. J. Heyd, E. N. Brothers, K. N. Kudin, 
 V. N. Staroverov, T. A. Keith, R. Kobayashi, J. Normand, 
 K. Raghavachari, A. P. Rendell, J. C. Burant, S. S. Iyengar, 
 J. Tomasi, M. Cossi, J. M. Millam, M. Klene, C. Adamo, R. Cammi, 
 J. W. Ochterski, R. L. Martin, K. Morokuma, O. Farkas, 
 J. B. Foresman, and D. J. Fox, Gaussian, Inc., Wallingford CT, 2016.
 
 ******************************************
 Gaussian 16:  ES64L-G16RevB.01 20-Dec-2017
                 7-Sep-2019 
 ******************************************
 %nprocshared=20
 Will use up to   20 processors via shared memory.
 %mem=180GB
 %chk=7-memb-dirTSguess-5bcis.chk
 ---------------------------------------------------------------
 # opt=(ts,calcfc,noeigen) freq b3lyp/6-311+g(d,p) int=grid=fine
 ---------------------------------------------------------------
 1/5=1,10=4,11=1,18=20,26=3,38=1/1,3;
 2/9=110,12=2,17=6,18=5,40=1/2;
 3/5=4,6=6,7=111,11=2,25=1,30=1,71=2,74=-5,75=-4,140=1/1,2,3;
 4//1;
 5/5=2,38=5/2;
 8/6=4,10=90,11=11/1;
 11/6=1,8=1,9=11,15=111,16=1/1,2,10;
 10/6=1,13=1/2;
 6/7=2,8=2,9=2,10=2,28=1/1;
 7/10=1,18=20,25=1/1,2,3,16;
 1/5=1,10=4,11=1,18=20,26=3/3(2);
 2/9=110/2;
 99//99;
 2/9=110/2;
 3/5=4,6=6,7=111,11=2,25=1,30=1,71=1,74=-5,75=-4/1,2,3;
 4/5=5,16=3,69=1/1;
 5/5=2,38=5/2;
 7//1,2,3,16;
 1/5=1,11=1,18=20,26=3/3(-5);
 2/9=110/2;
 6/7=2,8=2,9=2,10=2,19=2,28=1/1;
 99/9=1/99;
 -----------------------
 7-memb-dirTSguess-5bcis
 -----------------------
 Symbolic Z-matrix:
 Charge =  0 Multiplicity = 1
 C                    -1.57745  -2.82784   0.08413 
 C                    -1.42541  -1.48457  -0.23672 
 C                    -2.51865  -0.61261  -0.33563 
 C                    -3.82542  -0.95114  -0.05734 
 C                    -2.95645  -3.2511    0.25781 
 C                    -4.01695  -2.36686   0.20091 
 C                    -2.02645   0.68954  -0.4322 
 C                    -2.83206   1.78718  -0.20381 
 C                    -4.225     1.48671  -0.0118 
 C                    -4.70674   0.18116   0.05184 
 C                    -0.60382   0.6534   -0.414 
 C                     0.09517   1.83342  -0.12144 
 C                    -0.72986   3.05313  -0.04092 
 C                    -2.10738   3.02216  -0.0713 
 C                    -0.35625  -3.50999   0.26757 
 C                     0.87923  -2.83139   0.19175 
 C                     0.9772   -1.39149  -0.01818 
 C                    -0.22748  -0.74621  -0.26469 
 C                    -0.01354   4.37423   0.11099 
 C                     1.46995   1.83746   0.17832 
 C                     2.00362   3.06799   0.74827 
 C                     1.33505   4.23586   0.74186 
 C                     2.10126  -3.57264   0.30524 
 C                     3.2981   -2.95851   0.16267 
 C                     3.41722  -1.53643  -0.03497 
 C                     2.25429  -0.70192  -0.03548 
 C                     2.44128   0.74047  -0.07104 
 C                     3.7512    1.19856  -0.32348 
 C                     4.69878  -0.99541  -0.23104 
 C                     4.85586   0.36041  -0.42806 
 H                     5.83202   0.78132  -0.63939 
 H                     3.90959   2.25907  -0.45791 
 H                    -0.51919   1.36693  -3.12578 
 H                     5.55371  -1.66228  -0.2475 
 H                     4.21614  -3.53479   0.20075 
 H                     2.04744  -4.64321   0.47075 
 H                    -0.33842  -4.57444   0.48016 
 H                    -3.1616   -4.29284   0.48184 
 H                    -5.01668  -2.74527   0.38866 
 H                    -5.76435   0.02798   0.24021 
 H                    -4.92672   2.30204   0.1318 
 H                    -2.64915   3.9556    0.05154 
 H                    -0.62989   5.08062   0.67602 
 H                     1.7833    5.11674   1.18933 
 H                     2.97351   3.02736   1.22652 
 H                     0.11461   4.83375  -0.88249 
 
 Add virtual bond connecting atoms H33        and C11        Dist= 5.30D+00.

 GradGradGradGradGradGradGradGradGradGradGradGradGradGradGradGradGradGrad
 Berny optimization.
 Initialization pass.
                           ----------------------------
                           !    Initial Parameters    !
                           ! (Angstroms and Degrees)  !
 --------------------------                            --------------------------
 ! Name  Definition              Value          Derivative Info.                !
 --------------------------------------------------------------------------------
 ! R1    R(1,2)                  1.3894         calculate D2E/DX2 analytically  !
 ! R2    R(1,5)                  1.4529         calculate D2E/DX2 analytically  !
 ! R3    R(1,15)                 1.4108         calculate D2E/DX2 analytically  !
 ! R4    R(2,3)                  1.4019         calculate D2E/DX2 analytically  !
 ! R5    R(2,18)                 1.4075         calculate D2E/DX2 analytically  !
 ! R6    R(3,4)                  1.3783         calculate D2E/DX2 analytically  !
 ! R7    R(3,7)                  1.3954         calculate D2E/DX2 analytically  !
 ! R8    R(4,6)                  1.4518         calculate D2E/DX2 analytically  !
 ! R9    R(4,10)                 1.439          calculate D2E/DX2 analytically  !
 ! R10   R(5,6)                  1.382          calculate D2E/DX2 analytically  !
 ! R11   R(5,38)                 1.0851         calculate D2E/DX2 analytically  !
 ! R12   R(6,39)                 1.0853         calculate D2E/DX2 analytically  !
 ! R13   R(7,8)                  1.3806         calculate D2E/DX2 analytically  !
 ! R14   R(7,11)                 1.4232         calculate D2E/DX2 analytically  !
 ! R15   R(8,9)                  1.4379         calculate D2E/DX2 analytically  !
 ! R16   R(8,14)                 1.438          calculate D2E/DX2 analytically  !
 ! R17   R(9,10)                 1.393          calculate D2E/DX2 analytically  !
 ! R18   R(9,41)                 1.0853         calculate D2E/DX2 analytically  !
 ! R19   R(10,40)                1.0851         calculate D2E/DX2 analytically  !
 ! R20   R(11,12)                1.4024         calculate D2E/DX2 analytically  !
 ! R21   R(11,18)                1.457          calculate D2E/DX2 analytically  !
 ! R22   R(11,33)                2.8054         calculate D2E/DX2 analytically  !
 ! R23   R(12,13)                1.4747         calculate D2E/DX2 analytically  !
 ! R24   R(12,20)                1.4071         calculate D2E/DX2 analytically  !
 ! R25   R(13,14)                1.3782         calculate D2E/DX2 analytically  !
 ! R26   R(13,19)                1.5105         calculate D2E/DX2 analytically  !
 ! R27   R(14,42)                1.0862         calculate D2E/DX2 analytically  !
 ! R28   R(15,16)                1.4116         calculate D2E/DX2 analytically  !
 ! R29   R(15,37)                1.0856         calculate D2E/DX2 analytically  !
 ! R30   R(16,17)                1.4584         calculate D2E/DX2 analytically  !
 ! R31   R(16,23)                1.4338         calculate D2E/DX2 analytically  !
 ! R32   R(17,18)                1.3887         calculate D2E/DX2 analytically  !
 ! R33   R(17,26)                1.4515         calculate D2E/DX2 analytically  !
 ! R34   R(19,22)                1.4953         calculate D2E/DX2 analytically  !
 ! R35   R(19,43)                1.0946         calculate D2E/DX2 analytically  !
 ! R36   R(19,46)                1.1021         calculate D2E/DX2 analytically  !
 ! R37   R(20,21)                1.4573         calculate D2E/DX2 analytically  !
 ! R38   R(20,27)                1.4863         calculate D2E/DX2 analytically  !
 ! R39   R(21,22)                1.3457         calculate D2E/DX2 analytically  !
 ! R40   R(21,45)                1.0822         calculate D2E/DX2 analytically  !
 ! R41   R(22,44)                1.0849         calculate D2E/DX2 analytically  !
 ! R42   R(23,24)                1.3527         calculate D2E/DX2 analytically  !
 ! R43   R(23,36)                1.0846         calculate D2E/DX2 analytically  !
 ! R44   R(24,25)                1.4407         calculate D2E/DX2 analytically  !
 ! R45   R(24,35)                1.0846         calculate D2E/DX2 analytically  !
 ! R46   R(25,26)                1.4314         calculate D2E/DX2 analytically  !
 ! R47   R(25,29)                1.4048         calculate D2E/DX2 analytically  !
 ! R48   R(26,27)                1.4549         calculate D2E/DX2 analytically  !
 ! R49   R(27,28)                1.4105         calculate D2E/DX2 analytically  !
 ! R50   R(28,30)                1.3906         calculate D2E/DX2 analytically  !
 ! R51   R(28,32)                1.0807         calculate D2E/DX2 analytically  !
 ! R52   R(29,30)                1.379          calculate D2E/DX2 analytically  !
 ! R53   R(29,34)                1.0844         calculate D2E/DX2 analytically  !
 ! R54   R(30,31)                1.0838         calculate D2E/DX2 analytically  !
 ! A1    A(2,1,5)              114.4005         calculate D2E/DX2 analytically  !
 ! A2    A(2,1,15)             113.7523         calculate D2E/DX2 analytically  !
 ! A3    A(5,1,15)             131.6956         calculate D2E/DX2 analytically  !
 ! A4    A(1,2,3)              122.1608         calculate D2E/DX2 analytically  !
 ! A5    A(1,2,18)             127.2215         calculate D2E/DX2 analytically  !
 ! A6    A(3,2,18)             109.6361         calculate D2E/DX2 analytically  !
 ! A7    A(2,3,4)              124.9144         calculate D2E/DX2 analytically  !
 ! A8    A(2,3,7)              108.073          calculate D2E/DX2 analytically  !
 ! A9    A(4,3,7)              125.2822         calculate D2E/DX2 analytically  !
 ! A10   A(3,4,6)              113.6108         calculate D2E/DX2 analytically  !
 ! A11   A(3,4,10)             113.7479         calculate D2E/DX2 analytically  !
 ! A12   A(6,4,10)             132.301          calculate D2E/DX2 analytically  !
 ! A13   A(1,5,6)              122.4817         calculate D2E/DX2 analytically  !
 ! A14   A(1,5,38)             118.9333         calculate D2E/DX2 analytically  !
 ! A15   A(6,5,38)             118.5346         calculate D2E/DX2 analytically  !
 ! A16   A(4,6,5)              122.0085         calculate D2E/DX2 analytically  !
 ! A17   A(4,6,39)             119.4927         calculate D2E/DX2 analytically  !
 ! A18   A(5,6,39)             118.4673         calculate D2E/DX2 analytically  !
 ! A19   A(3,7,8)              121.6441         calculate D2E/DX2 analytically  !
 ! A20   A(3,7,11)             109.1477         calculate D2E/DX2 analytically  !
 ! A21   A(8,7,11)             126.9681         calculate D2E/DX2 analytically  !
 ! A22   A(7,8,9)              114.9138         calculate D2E/DX2 analytically  !
 ! A23   A(7,8,14)             113.8273         calculate D2E/DX2 analytically  !
 ! A24   A(9,8,14)             130.9467         calculate D2E/DX2 analytically  !
 ! A25   A(8,9,10)             122.4766         calculate D2E/DX2 analytically  !
 ! A26   A(8,9,41)             119.148          calculate D2E/DX2 analytically  !
 ! A27   A(10,9,41)            118.3231         calculate D2E/DX2 analytically  !
 ! A28   A(4,10,9)             121.4785         calculate D2E/DX2 analytically  !
 ! A29   A(4,10,40)            119.9348         calculate D2E/DX2 analytically  !
 ! A30   A(9,10,40)            118.5076         calculate D2E/DX2 analytically  !
 ! A31   A(7,11,12)            118.6552         calculate D2E/DX2 analytically  !
 ! A32   A(7,11,18)            106.4934         calculate D2E/DX2 analytically  !
 ! A33   A(7,11,33)             90.6492         calculate D2E/DX2 analytically  !
 ! A34   A(12,11,18)           131.1612         calculate D2E/DX2 analytically  !
 ! A35   A(12,11,33)            88.4302         calculate D2E/DX2 analytically  !
 ! A36   A(18,11,33)           109.6085         calculate D2E/DX2 analytically  !
 ! A37   A(11,12,13)           115.3711         calculate D2E/DX2 analytically  !
 ! A38   A(11,12,20)           122.2663         calculate D2E/DX2 analytically  !
 ! A39   A(13,12,20)           122.1807         calculate D2E/DX2 analytically  !
 ! A40   A(12,13,14)           122.6413         calculate D2E/DX2 analytically  !
 ! A41   A(12,13,19)           117.6174         calculate D2E/DX2 analytically  !
 ! A42   A(14,13,19)           119.7273         calculate D2E/DX2 analytically  !
 ! A43   A(8,14,13)            121.6696         calculate D2E/DX2 analytically  !
 ! A44   A(8,14,42)            119.8067         calculate D2E/DX2 analytically  !
 ! A45   A(13,14,42)           118.4709         calculate D2E/DX2 analytically  !
 ! A46   A(1,15,16)            121.2103         calculate D2E/DX2 analytically  !
 ! A47   A(1,15,37)            120.9164         calculate D2E/DX2 analytically  !
 ! A48   A(16,15,37)           117.8714         calculate D2E/DX2 analytically  !
 ! A49   A(15,16,17)           122.7614         calculate D2E/DX2 analytically  !
 ! A50   A(15,16,23)           119.5507         calculate D2E/DX2 analytically  !
 ! A51   A(17,16,23)           117.6823         calculate D2E/DX2 analytically  !
 ! A52   A(16,17,18)           115.2172         calculate D2E/DX2 analytically  !
 ! A53   A(16,17,26)           121.9965         calculate D2E/DX2 analytically  !
 ! A54   A(18,17,26)           122.7118         calculate D2E/DX2 analytically  !
 ! A55   A(2,18,11)            106.6256         calculate D2E/DX2 analytically  !
 ! A56   A(2,18,17)            119.4106         calculate D2E/DX2 analytically  !
 ! A57   A(11,18,17)           133.5226         calculate D2E/DX2 analytically  !
 ! A58   A(13,19,22)           112.9054         calculate D2E/DX2 analytically  !
 ! A59   A(13,19,43)           110.4455         calculate D2E/DX2 analytically  !
 ! A60   A(13,19,46)           109.2185         calculate D2E/DX2 analytically  !
 ! A61   A(22,19,43)           110.4735         calculate D2E/DX2 analytically  !
 ! A62   A(22,19,46)           108.3032         calculate D2E/DX2 analytically  !
 ! A63   A(43,19,46)           105.1729         calculate D2E/DX2 analytically  !
 ! A64   A(12,20,21)           116.3293         calculate D2E/DX2 analytically  !
 ! A65   A(12,20,27)           126.9174         calculate D2E/DX2 analytically  !
 ! A66   A(21,20,27)           116.7113         calculate D2E/DX2 analytically  !
 ! A67   A(20,21,22)           123.2969         calculate D2E/DX2 analytically  !
 ! A68   A(20,21,45)           117.9918         calculate D2E/DX2 analytically  !
 ! A69   A(22,21,45)           118.683          calculate D2E/DX2 analytically  !
 ! A70   A(19,22,21)           122.0324         calculate D2E/DX2 analytically  !
 ! A71   A(19,22,44)           118.132          calculate D2E/DX2 analytically  !
 ! A72   A(21,22,44)           119.827          calculate D2E/DX2 analytically  !
 ! A73   A(16,23,24)           120.7335         calculate D2E/DX2 analytically  !
 ! A74   A(16,23,36)           118.6905         calculate D2E/DX2 analytically  !
 ! A75   A(24,23,36)           120.5367         calculate D2E/DX2 analytically  !
 ! A76   A(23,24,25)           122.3936         calculate D2E/DX2 analytically  !
 ! A77   A(23,24,35)           120.2628         calculate D2E/DX2 analytically  !
 ! A78   A(25,24,35)           117.3425         calculate D2E/DX2 analytically  !
 ! A79   A(24,25,26)           120.555          calculate D2E/DX2 analytically  !
 ! A80   A(24,25,29)           118.3402         calculate D2E/DX2 analytically  !
 ! A81   A(26,25,29)           121.1043         calculate D2E/DX2 analytically  !
 ! A82   A(17,26,25)           115.968          calculate D2E/DX2 analytically  !
 ! A83   A(17,26,27)           125.7587         calculate D2E/DX2 analytically  !
 ! A84   A(25,26,27)           118.2677         calculate D2E/DX2 analytically  !
 ! A85   A(20,27,26)           130.0636         calculate D2E/DX2 analytically  !
 ! A86   A(20,27,28)           113.4065         calculate D2E/DX2 analytically  !
 ! A87   A(26,27,28)           116.4693         calculate D2E/DX2 analytically  !
 ! A88   A(27,28,30)           123.7427         calculate D2E/DX2 analytically  !
 ! A89   A(27,28,32)           118.496          calculate D2E/DX2 analytically  !
 ! A90   A(30,28,32)           117.7556         calculate D2E/DX2 analytically  !
 ! A91   A(25,29,30)           120.1642         calculate D2E/DX2 analytically  !
 ! A92   A(25,29,34)           118.9804         calculate D2E/DX2 analytically  !
 ! A93   A(30,29,34)           120.8402         calculate D2E/DX2 analytically  !
 ! A94   A(28,30,29)           119.4294         calculate D2E/DX2 analytically  !
 ! A95   A(28,30,31)           119.7399         calculate D2E/DX2 analytically  !
 ! A96   A(29,30,31)           120.8144         calculate D2E/DX2 analytically  !
 ! D1    D(5,1,2,3)              2.0843         calculate D2E/DX2 analytically  !
 ! D2    D(5,1,2,18)           169.5425         calculate D2E/DX2 analytically  !
 ! D3    D(15,1,2,3)          -173.9722         calculate D2E/DX2 analytically  !
 ! D4    D(15,1,2,18)           -6.514          calculate D2E/DX2 analytically  !
 ! D5    D(2,1,5,6)             -4.3553         calculate D2E/DX2 analytically  !
 ! D6    D(2,1,5,38)           178.265          calculate D2E/DX2 analytically  !
 ! D7    D(15,1,5,6)           170.8088         calculate D2E/DX2 analytically  !
 ! D8    D(15,1,5,38)           -6.5709         calculate D2E/DX2 analytically  !
 ! D9    D(2,1,15,16)            3.1372         calculate D2E/DX2 analytically  !
 ! D10   D(2,1,15,37)         -177.377          calculate D2E/DX2 analytically  !
 ! D11   D(5,1,15,16)         -172.0514         calculate D2E/DX2 analytically  !
 ! D12   D(5,1,15,37)            7.4345         calculate D2E/DX2 analytically  !
 ! D13   D(1,2,3,4)              3.9918         calculate D2E/DX2 analytically  !
 ! D14   D(1,2,3,7)            169.6226         calculate D2E/DX2 analytically  !
 ! D15   D(18,2,3,4)          -165.429          calculate D2E/DX2 analytically  !
 ! D16   D(18,2,3,7)             0.2019         calculate D2E/DX2 analytically  !
 ! D17   D(1,2,18,11)         -169.839          calculate D2E/DX2 analytically  !
 ! D18   D(1,2,18,17)            3.5426         calculate D2E/DX2 analytically  !
 ! D19   D(3,2,18,11)           -1.0943         calculate D2E/DX2 analytically  !
 ! D20   D(3,2,18,17)          172.2872         calculate D2E/DX2 analytically  !
 ! D21   D(2,3,4,6)             -7.1927         calculate D2E/DX2 analytically  !
 ! D22   D(2,3,4,10)           166.9485         calculate D2E/DX2 analytically  !
 ! D23   D(7,3,4,6)           -170.394          calculate D2E/DX2 analytically  !
 ! D24   D(7,3,4,10)             3.7472         calculate D2E/DX2 analytically  !
 ! D25   D(2,3,7,8)           -163.292          calculate D2E/DX2 analytically  !
 ! D26   D(2,3,7,11)             0.8078         calculate D2E/DX2 analytically  !
 ! D27   D(4,3,7,8)              2.2726         calculate D2E/DX2 analytically  !
 ! D28   D(4,3,7,11)           166.3724         calculate D2E/DX2 analytically  !
 ! D29   D(3,4,6,5)              4.6823         calculate D2E/DX2 analytically  !
 ! D30   D(3,4,6,39)          -177.3914         calculate D2E/DX2 analytically  !
 ! D31   D(10,4,6,5)          -168.0603         calculate D2E/DX2 analytically  !
 ! D32   D(10,4,6,39)            9.866          calculate D2E/DX2 analytically  !
 ! D33   D(3,4,10,9)            -5.0643         calculate D2E/DX2 analytically  !
 ! D34   D(3,4,10,40)          178.2168         calculate D2E/DX2 analytically  !
 ! D35   D(6,4,10,9)           167.6707         calculate D2E/DX2 analytically  !
 ! D36   D(6,4,10,40)           -9.0482         calculate D2E/DX2 analytically  !
 ! D37   D(1,5,6,4)              0.9392         calculate D2E/DX2 analytically  !
 ! D38   D(1,5,6,39)          -177.0076         calculate D2E/DX2 analytically  !
 ! D39   D(38,5,6,4)           178.3288         calculate D2E/DX2 analytically  !
 ! D40   D(38,5,6,39)            0.3821         calculate D2E/DX2 analytically  !
 ! D41   D(3,7,8,9)             -6.6146         calculate D2E/DX2 analytically  !
 ! D42   D(3,7,8,14)           167.6834         calculate D2E/DX2 analytically  !
 ! D43   D(11,7,8,9)          -167.7142         calculate D2E/DX2 analytically  !
 ! D44   D(11,7,8,14)            6.5838         calculate D2E/DX2 analytically  !
 ! D45   D(3,7,11,12)         -162.2007         calculate D2E/DX2 analytically  !
 ! D46   D(3,7,11,18)           -1.4601         calculate D2E/DX2 analytically  !
 ! D47   D(3,7,11,33)          109.2334         calculate D2E/DX2 analytically  !
 ! D48   D(8,7,11,12)            0.8267         calculate D2E/DX2 analytically  !
 ! D49   D(8,7,11,18)          161.5673         calculate D2E/DX2 analytically  !
 ! D50   D(8,7,11,33)          -87.7392         calculate D2E/DX2 analytically  !
 ! D51   D(7,8,9,10)             5.1929         calculate D2E/DX2 analytically  !
 ! D52   D(7,8,9,41)          -177.481          calculate D2E/DX2 analytically  !
 ! D53   D(14,8,9,10)         -167.896          calculate D2E/DX2 analytically  !
 ! D54   D(14,8,9,41)            9.4301         calculate D2E/DX2 analytically  !
 ! D55   D(7,8,14,13)           -6.3098         calculate D2E/DX2 analytically  !
 ! D56   D(7,8,14,42)          176.3744         calculate D2E/DX2 analytically  !
 ! D57   D(9,8,14,13)          166.8385         calculate D2E/DX2 analytically  !
 ! D58   D(9,8,14,42)          -10.4773         calculate D2E/DX2 analytically  !
 ! D59   D(8,9,10,4)             0.7104         calculate D2E/DX2 analytically  !
 ! D60   D(8,9,10,40)          177.4748         calculate D2E/DX2 analytically  !
 ! D61   D(41,9,10,4)         -176.6367         calculate D2E/DX2 analytically  !
 ! D62   D(41,9,10,40)           0.1276         calculate D2E/DX2 analytically  !
 ! D63   D(7,11,12,13)          -8.0915         calculate D2E/DX2 analytically  !
 ! D64   D(7,11,12,20)         167.1039         calculate D2E/DX2 analytically  !
 ! D65   D(18,11,12,13)       -163.2509         calculate D2E/DX2 analytically  !
 ! D66   D(18,11,12,20)         11.9445         calculate D2E/DX2 analytically  !
 ! D67   D(33,11,12,13)         81.7905         calculate D2E/DX2 analytically  !
 ! D68   D(33,11,12,20)       -103.0141         calculate D2E/DX2 analytically  !
 ! D69   D(7,11,18,2)            1.5471         calculate D2E/DX2 analytically  !
 ! D70   D(7,11,18,17)        -170.4937         calculate D2E/DX2 analytically  !
 ! D71   D(12,11,18,2)         158.9367         calculate D2E/DX2 analytically  !
 ! D72   D(12,11,18,17)        -13.1041         calculate D2E/DX2 analytically  !
 ! D73   D(33,11,18,2)         -95.2311         calculate D2E/DX2 analytically  !
 ! D74   D(33,11,18,17)         92.7281         calculate D2E/DX2 analytically  !
 ! D75   D(11,12,13,14)          8.3367         calculate D2E/DX2 analytically  !
 ! D76   D(11,12,13,19)       -173.0325         calculate D2E/DX2 analytically  !
 ! D77   D(20,12,13,14)       -166.8632         calculate D2E/DX2 analytically  !
 ! D78   D(20,12,13,19)         11.7675         calculate D2E/DX2 analytically  !
 ! D79   D(11,12,20,21)       -166.7971         calculate D2E/DX2 analytically  !
 ! D80   D(11,12,20,27)         15.6503         calculate D2E/DX2 analytically  !
 ! D81   D(13,12,20,21)          8.0729         calculate D2E/DX2 analytically  !
 ! D82   D(13,12,20,27)       -169.4797         calculate D2E/DX2 analytically  !
 ! D83   D(12,13,14,8)          -0.9049         calculate D2E/DX2 analytically  !
 ! D84   D(12,13,14,42)        176.4455         calculate D2E/DX2 analytically  !
 ! D85   D(19,13,14,8)        -179.5077         calculate D2E/DX2 analytically  !
 ! D86   D(19,13,14,42)         -2.1573         calculate D2E/DX2 analytically  !
 ! D87   D(12,13,19,22)        -25.2048         calculate D2E/DX2 analytically  !
 ! D88   D(12,13,19,43)       -149.4518         calculate D2E/DX2 analytically  !
 ! D89   D(12,13,19,46)         95.3486         calculate D2E/DX2 analytically  !
 ! D90   D(14,13,19,22)        153.4675         calculate D2E/DX2 analytically  !
 ! D91   D(14,13,19,43)         29.2205         calculate D2E/DX2 analytically  !
 ! D92   D(14,13,19,46)        -85.9791         calculate D2E/DX2 analytically  !
 ! D93   D(1,15,16,17)           2.7891         calculate D2E/DX2 analytically  !
 ! D94   D(1,15,16,23)        -176.3337         calculate D2E/DX2 analytically  !
 ! D95   D(37,15,16,17)       -176.7119         calculate D2E/DX2 analytically  !
 ! D96   D(37,15,16,23)          4.1653         calculate D2E/DX2 analytically  !
 ! D97   D(15,16,17,18)         -5.7919         calculate D2E/DX2 analytically  !
 ! D98   D(15,16,17,26)        177.2673         calculate D2E/DX2 analytically  !
 ! D99   D(23,16,17,18)        173.3464         calculate D2E/DX2 analytically  !
 ! D100  D(23,16,17,26)         -3.5944         calculate D2E/DX2 analytically  !
 ! D101  D(15,16,23,24)        176.3401         calculate D2E/DX2 analytically  !
 ! D102  D(15,16,23,36)         -1.3899         calculate D2E/DX2 analytically  !
 ! D103  D(17,16,23,24)         -2.8268         calculate D2E/DX2 analytically  !
 ! D104  D(17,16,23,36)        179.4431         calculate D2E/DX2 analytically  !
 ! D105  D(16,17,18,2)           2.7725         calculate D2E/DX2 analytically  !
 ! D106  D(16,17,18,11)        174.0118         calculate D2E/DX2 analytically  !
 ! D107  D(26,17,18,2)         179.6889         calculate D2E/DX2 analytically  !
 ! D108  D(26,17,18,11)         -9.0717         calculate D2E/DX2 analytically  !
 ! D109  D(16,17,26,25)          8.9846         calculate D2E/DX2 analytically  !
 ! D110  D(16,17,26,27)       -171.8938         calculate D2E/DX2 analytically  !
 ! D111  D(18,17,26,25)       -167.7258         calculate D2E/DX2 analytically  !
 ! D112  D(18,17,26,27)         11.3958         calculate D2E/DX2 analytically  !
 ! D113  D(13,19,22,21)         20.927          calculate D2E/DX2 analytically  !
 ! D114  D(13,19,22,44)       -160.1418         calculate D2E/DX2 analytically  !
 ! D115  D(43,19,22,21)        145.1587         calculate D2E/DX2 analytically  !
 ! D116  D(43,19,22,44)        -35.9102         calculate D2E/DX2 analytically  !
 ! D117  D(46,19,22,21)       -100.1477         calculate D2E/DX2 analytically  !
 ! D118  D(46,19,22,44)         78.7835         calculate D2E/DX2 analytically  !
 ! D119  D(12,20,21,22)        -13.8264         calculate D2E/DX2 analytically  !
 ! D120  D(12,20,21,45)        164.2111         calculate D2E/DX2 analytically  !
 ! D121  D(27,20,21,22)        163.9833         calculate D2E/DX2 analytically  !
 ! D122  D(27,20,21,45)        -17.9793         calculate D2E/DX2 analytically  !
 ! D123  D(12,20,27,26)        -33.5704         calculate D2E/DX2 analytically  !
 ! D124  D(12,20,27,28)        149.4054         calculate D2E/DX2 analytically  !
 ! D125  D(21,20,27,26)        148.8852         calculate D2E/DX2 analytically  !
 ! D126  D(21,20,27,28)        -28.139          calculate D2E/DX2 analytically  !
 ! D127  D(20,21,22,19)         -1.5494         calculate D2E/DX2 analytically  !
 ! D128  D(20,21,22,44)        179.5371         calculate D2E/DX2 analytically  !
 ! D129  D(45,21,22,19)       -179.574          calculate D2E/DX2 analytically  !
 ! D130  D(45,21,22,44)          1.5124         calculate D2E/DX2 analytically  !
 ! D131  D(16,23,24,25)          3.4359         calculate D2E/DX2 analytically  !
 ! D132  D(16,23,24,35)       -176.9424         calculate D2E/DX2 analytically  !
 ! D133  D(36,23,24,25)       -178.8761         calculate D2E/DX2 analytically  !
 ! D134  D(36,23,24,35)          0.7456         calculate D2E/DX2 analytically  !
 ! D135  D(23,24,25,26)          2.48           calculate D2E/DX2 analytically  !
 ! D136  D(23,24,25,29)       -177.2871         calculate D2E/DX2 analytically  !
 ! D137  D(35,24,25,26)       -177.1521         calculate D2E/DX2 analytically  !
 ! D138  D(35,24,25,29)          3.0808         calculate D2E/DX2 analytically  !
 ! D139  D(24,25,26,17)         -8.3848         calculate D2E/DX2 analytically  !
 ! D140  D(24,25,26,27)        172.4245         calculate D2E/DX2 analytically  !
 ! D141  D(29,25,26,17)        171.3758         calculate D2E/DX2 analytically  !
 ! D142  D(29,25,26,27)         -7.8149         calculate D2E/DX2 analytically  !
 ! D143  D(24,25,29,30)        179.7943         calculate D2E/DX2 analytically  !
 ! D144  D(24,25,29,34)          1.1979         calculate D2E/DX2 analytically  !
 ! D145  D(26,25,29,30)          0.0285         calculate D2E/DX2 analytically  !
 ! D146  D(26,25,29,34)       -178.5679         calculate D2E/DX2 analytically  !
 ! D147  D(17,26,27,20)         14.0436         calculate D2E/DX2 analytically  !
 ! D148  D(17,26,27,28)       -169.0072         calculate D2E/DX2 analytically  !
 ! D149  D(25,26,27,20)       -166.8531         calculate D2E/DX2 analytically  !
 ! D150  D(25,26,27,28)         10.0962         calculate D2E/DX2 analytically  !
 ! D151  D(20,27,28,30)        172.1581         calculate D2E/DX2 analytically  !
 ! D152  D(20,27,28,32)         -8.7314         calculate D2E/DX2 analytically  !
 ! D153  D(26,27,28,30)         -5.2981         calculate D2E/DX2 analytically  !
 ! D154  D(26,27,28,32)        173.8124         calculate D2E/DX2 analytically  !
 ! D155  D(27,28,30,29)         -2.4252         calculate D2E/DX2 analytically  !
 ! D156  D(27,28,30,31)        179.0322         calculate D2E/DX2 analytically  !
 ! D157  D(32,28,30,29)        178.4581         calculate D2E/DX2 analytically  !
 ! D158  D(32,28,30,31)         -0.0844         calculate D2E/DX2 analytically  !
 ! D159  D(25,29,30,28)          5.1682         calculate D2E/DX2 analytically  !
 ! D160  D(25,29,30,31)       -176.3053         calculate D2E/DX2 analytically  !
 ! D161  D(34,29,30,28)       -176.2618         calculate D2E/DX2 analytically  !
 ! D162  D(34,29,30,31)          2.2647         calculate D2E/DX2 analytically  !
 --------------------------------------------------------------------------------
 Trust Radius=3.00D-01 FncErr=1.00D-07 GrdErr=1.00D-06 EigMax=2.50D+02 EigMin=1.00D-04
 Number of steps in this run=    276 maximum allowed number of steps=    276.
 Search for a saddle point of order  1.
 GradGradGradGradGradGradGradGradGradGradGradGradGradGradGradGradGradGrad

                          Input orientation:                          
 ---------------------------------------------------------------------
 Center     Atomic      Atomic             Coordinates (Angstroms)
 Number     Number       Type             X           Y           Z
 ---------------------------------------------------------------------
      1          6           0       -1.577449   -2.827837    0.084128
      2          6           0       -1.425412   -1.484565   -0.236724
      3          6           0       -2.518654   -0.612607   -0.335625
      4          6           0       -3.825420   -0.951144   -0.057341
      5          6           0       -2.956449   -3.251100    0.257811
      6          6           0       -4.016951   -2.366855    0.200910
      7          6           0       -2.026450    0.689540   -0.432204
      8          6           0       -2.832059    1.787178   -0.203813
      9          6           0       -4.225003    1.486712   -0.011798
     10          6           0       -4.706741    0.181163    0.051837
     11          6           0       -0.603824    0.653399   -0.413998
     12          6           0        0.095168    1.833416   -0.121437
     13          6           0       -0.729862    3.053127   -0.040923
     14          6           0       -2.107380    3.022160   -0.071296
     15          6           0       -0.356254   -3.509993    0.267572
     16          6           0        0.879233   -2.831394    0.191748
     17          6           0        0.977199   -1.391485   -0.018183
     18          6           0       -0.227475   -0.746214   -0.264694
     19          6           0       -0.013541    4.374230    0.110986
     20          6           0        1.469948    1.837459    0.178316
     21          6           0        2.003624    3.067988    0.748270
     22          6           0        1.335047    4.235859    0.741862
     23          6           0        2.101260   -3.572636    0.305241
     24          6           0        3.298104   -2.958507    0.162674
     25          6           0        3.417215   -1.536426   -0.034968
     26          6           0        2.254289   -0.701920   -0.035482
     27          6           0        2.441279    0.740466   -0.071036
     28          6           0        3.751200    1.198555   -0.323483
     29          6           0        4.698777   -0.995414   -0.231036
     30          6           0        4.855862    0.360414   -0.428063
     31          1           0        5.832023    0.781322   -0.639387
     32          1           0        3.909592    2.259072   -0.457910
     33          1           0       -0.519194    1.366929   -3.125779
     34          1           0        5.553707   -1.662283   -0.247502
     35          1           0        4.216136   -3.534785    0.200746
     36          1           0        2.047439   -4.643213    0.470752
     37          1           0       -0.338418   -4.574435    0.480162
     38          1           0       -3.161600   -4.292845    0.481835
     39          1           0       -5.016680   -2.745274    0.388661
     40          1           0       -5.764351    0.027984    0.240213
     41          1           0       -4.926719    2.302042    0.131801
     42          1           0       -2.649154    3.955604    0.051536
     43          1           0       -0.629889    5.080616    0.676018
     44          1           0        1.783300    5.116738    1.189330
     45          1           0        2.973512    3.027360    1.226521
     46          1           0        0.114613    4.833750   -0.882488
 ---------------------------------------------------------------------
                    Distance matrix (angstroms):
                    1          2          3          4          5
     1  C    0.000000
     2  C    1.389403   0.000000
     3  C    2.443216   1.401881   0.000000
     4  C    2.931785   2.465107   1.378291   0.000000
     5  C    1.452914   2.389411   2.739612   2.478756   0.000000
     6  C    2.485420   2.772370   2.368575   1.451763   1.381952
     7  C    3.583314   2.264109   1.395414   2.463465   4.107269
     8  C    4.791171   3.561466   2.423750   2.916612   5.060910
     9  C    5.063011   4.088617   2.724634   2.470806   4.912106
    10  C    4.341381   3.691211   2.359645   1.439016   3.858287
    11  C    3.648983   2.297242   2.296843   3.616690   4.607742
    12  C    4.956529   3.651637   3.586220   4.809251   5.942095
    13  C    5.943045   4.594864   4.089527   5.061318   6.692549
    14  C    5.876006   4.561032   3.667499   4.328857   6.339008
    15  C    1.410782   2.345159   3.665333   4.323007   2.613070
    16  C    2.459041   2.703502   4.092282   5.072588   3.859142
    17  C    2.932542   2.414325   3.595610   4.822923   4.359808
    18  C    2.505446   1.407479   2.296167   3.609737   3.740958
    19  C    7.369959   6.036535   5.598535   6.551211   8.174835
    20  C    5.573194   4.426196   4.709130   5.989388   6.744831
    21  C    6.930074   5.783964   5.930650   7.126022   8.048214
    22  C    7.668836   6.426587   6.286463   7.360309   8.643252
    23  C    3.759856   4.134148   5.524137   6.490703   5.068141
    24  C    4.877936   4.964235   6.291758   7.404222   6.262116
    25  C    5.160290   4.847105   6.014846   7.266279   6.606771
    26  C    4.383611   3.767390   4.783205   6.084854   5.808281
    27  C    5.376526   4.464249   5.147985   6.491013   6.721325
    28  C    6.691224   5.831292   6.526218   7.880178   8.070309
    29  C    6.545847   6.143695   7.228332   8.526081   7.995597
    30  C    7.198248   6.549424   7.439005   8.787621   8.633983
    31  H    8.273438   7.613589   8.471665   9.828857   9.710954
    32  H    7.501871   6.521197   7.041579   8.384292   8.832710
    33  H    5.386972   4.159193   3.962494   5.071480   6.222145
    34  H    7.233387   6.981390   8.140798   9.407970   8.671934
    35  H    5.837722   6.018459   7.360993   8.450351   7.178420
    36  H    4.072454   4.747449   6.143715   6.957063   5.198290
    37  H    2.177762   3.353025   4.595108   5.057305   2.941894
    38  H    2.194072   3.378922   3.824366   3.449396   1.085130
    39  H    3.453674   3.857162   3.363479   2.199300   2.125449
    40  H    5.070525   4.619704   3.358049   2.192415   4.317061
    41  H    6.126626   5.170431   3.809520   3.439746   5.893660
    42  H    6.867655   5.583554   4.586445   5.046943   7.216201
    43  H    7.986979   6.675894   6.083062   6.865229   8.660558
    44  H    8.696688   7.477076   7.325141   8.356502   9.661970
    45  H    7.503309   6.469087   6.771525   7.981370   8.690334
    46  H    7.905526   6.535273   6.074204   7.047675   8.723331
                    6          7          8          9         10
     6  C    0.000000
     7  C    3.701956   0.000000
     8  C    4.338636   1.380571   0.000000
     9  C    3.865037   2.376102   1.437860   0.000000
    10  C    2.643942   2.770686   2.481748   1.393047   0.000000
    11  C    4.598857   1.423201   2.508917   3.737528   4.156193
    12  C    5.886910   2.430286   2.928751   4.335447   5.081171
    13  C    6.343472   2.724112   2.459348   3.830211   4.906358
    14  C    5.723813   2.361762   1.438020   2.616384   3.852675
    15  C    3.835611   4.573327   5.866160   6.325530   5.709458
    16  C    4.918180   4.607525   5.938128   6.688849   6.348085
    17  C    5.093219   3.677497   4.964756   5.945331   5.897906
    18  C    4.147697   2.307761   3.633956   4.585864   4.585198
    19  C    7.840766   4.233651   3.838747   5.107764   6.293762
    20  C    6.912512   3.730315   4.319238   5.708908   6.396155
    21  C    8.129234   4.826182   5.092226   6.471007   7.338104
    22  C    8.516592   5.025383   4.924948   6.248197   7.308892
    23  C    6.236770   5.978960   7.302354   8.106733   7.778438
    24  C    7.339042   6.481744   7.761104   8.739997   8.599265
    25  C    7.484122   5.894592   7.080133   8.218479   8.303994
    26  C    6.492791   4.518659   5.665234   6.838998   7.017364
    27  C    7.172038   4.482593   5.377855   6.708182   7.170921
    28  C    8.563370   5.801048   6.610605   7.987490   8.527175
    29  C    8.833535   6.936009   8.028515   9.265142   9.483044
    30  C    9.303785   6.890178   7.822408   9.159909   9.576315
    31  H   10.373977   7.861739   8.733143  10.101248  10.578446
    32  H    9.201268   6.140088   6.762922   8.183348   8.877992
    33  H    6.102648   3.160067   3.750179   4.841926   5.388769
    34  H    9.607028   7.938764   9.067622  10.275938  10.429031
    35  H    8.315515   7.564088   8.841041   9.824125   9.666860
    36  H    6.483166   6.771274   8.100276   8.783642   8.310779
    37  H    4.299186   5.602794   6.867036   7.216999   6.471586
    38  H    2.126025   5.191165   6.127429   5.897269   4.752800
    39  H    1.085315   4.627444   5.066233   4.323983   2.962017
    40  H    2.964828   3.855088   3.448225   2.135647   1.085121
    41  H    4.757211   3.365980   2.182962   1.085260   2.133755
    42  H    6.470446   3.359902   2.191057   2.929631   4.298845
    43  H    8.195288   4.739207   4.058373   5.129725   6.404293
    44  H    9.519666   6.061654   5.859041   7.121763   8.232522
    45  H    8.889095   5.763366   6.106436   7.464961   8.274479
    46  H    8.372114   4.686297   4.292444   5.549147   6.764982
                   11         12         13         14         15
    11  C    0.000000
    12  C    1.402363   0.000000
    13  C    2.431823   1.474738   0.000000
    14  C    2.826509   2.503367   1.378201   0.000000
    15  C    4.226069   5.376535   6.580980   6.771285   0.000000
    16  C    3.835384   4.740601   6.104991   6.576712   1.411621
    17  C    2.614929   3.344940   4.761213   5.384952   2.519490
    18  C    1.456999   2.603673   3.838940   4.215695   2.817511
    19  C    3.803765   2.553737   1.510465   2.499096   7.893221
    20  C    2.460359   1.407085   2.522911   3.776652   5.651391
    21  C    3.738969   2.433673   2.845170   4.192152   7.004993
    22  C    4.234295   2.838013   2.505086   3.739598   7.942523
    23  C    5.068940   5.782029   7.213586   7.832354   2.458601
    24  C    5.348220   5.770792   7.239178   8.064885   3.697225
    25  C    4.594317   4.732791   6.185651   7.162624   4.269141
    26  C    3.185745   3.331234   4.796412   5.735348   3.846043
    27  C    3.065592   2.588690   3.924977   5.088853   5.099730
    28  C    4.389946   3.716240   4.857900   6.141017   6.276221
    29  C    5.556045   5.404397   6.774729   7.905074   5.667897
    30  C    5.467560   4.992791   6.212962   7.463170   6.529174
    31  H    6.441063   5.855483   6.969763   8.269111   7.585033
    32  H    4.790724   3.852821   4.725350   6.077477   7.211510
    33  H    2.805360   3.101793   3.521929   3.819946   5.943547
    34  H    6.580676   6.483167   7.858817   8.981498   6.213451
    35  H    6.414890   6.775231   8.241473   9.113418   4.572946
    36  H    5.988829   6.790344   8.198101   8.735804   2.665185
    37  H    5.310387   6.450618   7.655355   7.819309   1.085610
    38  H    5.640041   6.964305   7.755639   7.411250   2.920399
    39  H    5.627481   6.881540   7.223767   6.476024   4.724302
    40  H    5.239291   6.142014   5.880188   4.736620   6.462627
    41  H    4.658685   5.050058   4.267033   2.916932   7.395089
    42  H    3.912116   3.473457   2.122898   1.086243   7.812759
    43  H    4.559503   3.421396   2.152838   2.641723   8.604665
    44  H    5.309465   3.917666   3.476780   4.594978   8.935761
    45  H    4.596121   3.395196   3.914340   5.244027   7.398913
    46  H    4.267431   3.095413   2.142892   2.979454   8.435781
                   16         17         18         19         20
    16  C    0.000000
    17  C    1.458426   0.000000
    18  C    2.404395   1.388662   0.000000
    19  C    7.261170   5.851642   5.138662   0.000000
    20  C    4.706093   3.272231   3.122958   2.939469   0.000000
    21  C    6.031308   4.639817   4.533435   2.486233   1.457347
    22  C    7.103271   5.689703   5.317488   1.495273   2.467409
    23  C    1.433761   2.474982   3.706278   8.225740   5.448283
    24  C    2.422383   2.806219   4.184088   8.046036   5.132610
    25  C    2.858268   2.444375   3.736439   6.835733   3.901338
    26  C    2.545009   1.451468   2.492720   5.561637   2.666336
    27  C    3.907330   2.586801   3.061040   4.389022   1.486289
    28  C    4.975354   3.807440   4.428932   4.944386   2.421593
    29  C    4.258930   3.748643   4.932666   7.152342   4.314867
    30  C    5.136670   4.275649   5.204962   6.333433   3.743497
    31  H    6.186488   5.355026   6.260294   6.902367   4.561991
    32  H    5.959696   4.703069   5.117069   4.493162   2.556248
    33  H    5.530597   4.416468   3.568793   4.447043   3.885245
    34  H    4.838437   4.590244   5.853336   8.219626   5.395054
    35  H    3.410244   3.890036   5.266730   8.969434   6.033495
    36  H    2.173761   3.458064   4.571949   9.256962   6.512920
    37  H    2.145705   3.479995   3.901589   8.962167   6.668859
    38  H    4.306776   5.079130   4.663152   9.228542   7.689212
    39  H    5.899829   6.158316   5.230640   8.706081   7.944937
    40  H    7.232952   6.894212   5.613494   7.209603   7.457420
    41  H    7.750151   6.965693   5.615333   5.332327   6.413685
    42  H    7.650655   6.461165   5.298266   2.669314   4.633531
    43  H    8.069193   6.704680   5.915980   1.094590   3.895522
    44  H    8.061347   6.668197   6.366444   2.223237   3.445868
    45  H    6.307278   5.006071   5.168162   3.461353   2.185247
    46  H    7.777728   6.343865   5.624473   1.102077   3.455430
                   21         22         23         24         25
    21  C    0.000000
    22  C    1.345719   0.000000
    23  C    6.656102   7.858137   0.000000
    24  C    6.191708   7.479836   1.352744   0.000000
    25  C    4.879788   6.185318   2.448189   1.440682   0.000000
    26  C    3.858666   5.082414   2.894913   2.494193   1.431362
    27  C    2.506025   3.755306   4.342815   3.804099   2.477497
    28  C    2.774429   4.024670   5.087422   4.209847   2.770362
    29  C    4.973342   6.295032   3.698210   2.443487   1.404827
    30  C    4.104872   5.365066   4.857412   3.713599   2.412930
    31  H    4.670233   5.836477   5.811012   4.588068   3.401261
    32  H    2.396232   3.460552   6.153152   5.289818   3.850600
    33  H    4.926101   5.160195   6.560334   6.640413   5.786009
    34  H    5.997509   7.318744   3.984265   2.633664   2.150723
    35  H    6.985099   8.305202   2.117794   1.084587   2.165011
    36  H    7.716318   8.911729   1.084632   2.120686   3.432807
    37  H    7.997729   8.971636   2.643147   3.992031   4.857946
    38  H    8.996243   9.645011   5.314845   6.603794   7.151625
    39  H    9.121842   9.444861   7.166349   8.320587   8.530613
    40  H    8.357104   8.267969   8.650811   9.542182   9.317954
    41  H    6.999740   6.581910   9.161573   9.763301   9.186016
    42  H    4.787655   4.053264   8.905347   9.120700   8.183563
    43  H    3.315310   2.139842   9.081598   8.962151   7.789082
    44  H    2.107238   1.084945   8.740019   8.279990   6.959395
    45  H    1.082154   2.092829   6.720828   6.088328   4.755667
    46  H    3.057066   2.117887   8.719220   8.482113   7.225276
                   26         27         28         29         30
    26  C    0.000000
    27  C    1.454891   0.000000
    28  C    2.436287   1.410485   0.000000
    29  C    2.469798   2.852223   2.391641   0.000000
    30  C    2.837403   2.470247   1.390574   1.379045   0.000000
    31  H    3.919807   3.438290   2.145624   2.146576   1.083841
    32  H    3.418471   2.147505   1.080673   3.356481   2.121608
    33  H    4.639211   4.299804   5.110526   6.417743   6.097702
    34  H    3.442878   3.935931   3.382188   1.084385   2.147299
    35  H    3.453950   4.636998   4.784923   2.620646   3.997152
    36  H    3.979051   5.425186   6.136763   4.563829   5.807873
    37  H    4.688752   6.023181   7.120269   6.220010   7.222060
    38  H    6.518759   7.551963   8.865146   8.553757   9.314528
    39  H    7.564535   8.245172   9.640366   9.891215  10.381687
    40  H    8.056510   8.242383   9.603838  10.523615  10.646409
    41  H    7.785798   7.534392   8.759637  10.181112   9.989107
    42  H    6.763420   6.022013   6.979003   8.864791   8.335507
    43  H    6.500957   5.369084   5.938294   8.132378   7.320708
    44  H    5.964795   4.601436   4.638253   6.919238   5.888906
    45  H    4.002182   2.682687   2.520285   4.613428   3.659712
    46  H    5.994937   4.777740   5.172223   7.444334   6.534270
                   31         32         33         34         35
    31  H    0.000000
    32  H    2.431547   0.000000
    33  H    6.845658   5.246674   0.000000
    34  H    2.490429   4.257277   7.371617   0.000000
    35  H    4.684623   5.839227   7.583925   2.344416   0.000000
    36  H    6.706792   7.209131   7.459521   4.657869   2.450462
    37  H    8.246931   8.100765   6.952359   6.612659   4.680054
    38  H   10.386990   9.685685   7.213198   9.132818   7.421904
    39  H   11.453738  10.268325   7.034833  10.644748   9.268416
    40  H   11.654060   9.952402   6.374508  11.453965  10.597405
    41  H   10.893018   8.856071   5.559905  11.211560  10.847355
    42  H    9.082059   6.793740   4.618798   9.946708  10.161712
    43  H    7.872136   5.463862   5.315768   9.195457   9.896210
    44  H    6.207431   3.924382   6.163012   7.888953   9.041285
    45  H    4.086243   2.074565   5.822245   5.551838   6.757076
    46  H    7.012136   4.605551   4.177668   8.496199   9.382338
                   36         37         38         39         40
    36  H    0.000000
    37  H    2.386867   0.000000
    38  H    5.220821   2.837191   0.000000
    39  H    7.315100   5.023976   2.417639   0.000000
    40  H    9.104795   7.119030   5.049976   2.876110   0.000000
    41  H    9.848367   8.274044   6.835986   5.054648   2.425844
    42  H    9.806803   8.847869   8.275546   7.114815   5.016597
    43  H   10.087768   9.661435   9.711284   8.976139   7.216766
    44  H    9.789932   9.946026  10.653302  10.425547   9.152228
    45  H    7.763149   8.325456   9.580165   9.892850   9.290819
    46  H    9.766263   9.517142   9.792328   9.240541   7.675810
                   41         42         43         44         45
    41  H    0.000000
    42  H    2.815673   0.000000
    43  H    5.145813   2.394381   0.000000
    44  H    7.352907   4.721171   2.467443   0.000000
    45  H    8.008630   5.818642   4.183708   2.404888   0.000000
    46  H    5.731785   3.046629   1.744754   2.675262   3.985507
                   46
    46  H    0.000000
 Stoichiometry    C30H16
 Framework group  C1[X(C30H16)]
 Deg. of freedom   132
 Full point group                 C1      NOp   1
 Largest Abelian subgroup         C1      NOp   1
 Largest concise Abelian subgroup C1      NOp   1
                         Standard orientation:                         
 ---------------------------------------------------------------------
 Center     Atomic      Atomic             Coordinates (Angstroms)
 Number     Number       Type             X           Y           Z
 ---------------------------------------------------------------------
      1          6           0        1.577449   -2.827837   -0.084128
      2          6           0        1.425412   -1.484565    0.236724
      3          6           0        2.518654   -0.612607    0.335625
      4          6           0        3.825420   -0.951144    0.057341
      5          6           0        2.956449   -3.251100   -0.257811
      6          6           0        4.016951   -2.366855   -0.200910
      7          6           0        2.026450    0.689540    0.432204
      8          6           0        2.832059    1.787178    0.203813
      9          6           0        4.225003    1.486712    0.011798
     10          6           0        4.706741    0.181163   -0.051837
     11          6           0        0.603824    0.653399    0.413998
     12          6           0       -0.095168    1.833416    0.121437
     13          6           0        0.729862    3.053127    0.040923
     14          6           0        2.107380    3.022160    0.071296
     15          6           0        0.356254   -3.509993   -0.267572
     16          6           0       -0.879233   -2.831394   -0.191748
     17          6           0       -0.977199   -1.391485    0.018183
     18          6           0        0.227475   -0.746214    0.264694
     19          6           0        0.013541    4.374230   -0.110986
     20          6           0       -1.469948    1.837459   -0.178316
     21          6           0       -2.003624    3.067988   -0.748270
     22          6           0       -1.335047    4.235859   -0.741862
     23          6           0       -2.101260   -3.572636   -0.305241
     24          6           0       -3.298104   -2.958507   -0.162674
     25          6           0       -3.417215   -1.536426    0.034968
     26          6           0       -2.254289   -0.701920    0.035482
     27          6           0       -2.441279    0.740466    0.071036
     28          6           0       -3.751200    1.198555    0.323483
     29          6           0       -4.698777   -0.995414    0.231036
     30          6           0       -4.855862    0.360414    0.428063
     31          1           0       -5.832023    0.781321    0.639387
     32          1           0       -3.909592    2.259072    0.457910
     33          1           0        0.519194    1.366929    3.125779
     34          1           0       -5.553707   -1.662283    0.247502
     35          1           0       -4.216136   -3.534785   -0.200746
     36          1           0       -2.047439   -4.643213   -0.470752
     37          1           0        0.338418   -4.574435   -0.480162
     38          1           0        3.161600   -4.292845   -0.481835
     39          1           0        5.016680   -2.745274   -0.388661
     40          1           0        5.764351    0.027985   -0.240213
     41          1           0        4.926719    2.302042   -0.131801
     42          1           0        2.649154    3.955604   -0.051536
     43          1           0        0.629889    5.080616   -0.676018
     44          1           0       -1.783300    5.116738   -1.189330
     45          1           0       -2.973512    3.027360   -1.226521
     46          1           0       -0.114613    4.833750    0.882488
 ---------------------------------------------------------------------
 Rotational constants (GHZ):           0.2388692           0.1774775           0.1037383
 Standard basis: 6-311+G(d,p) (5D, 7F)
 There are   786 symmetry adapted cartesian basis functions of A   symmetry.
 There are   756 symmetry adapted basis functions of A   symmetry.
   756 basis functions,  1208 primitive gaussians,   786 cartesian basis functions
    98 alpha electrons       98 beta electrons
       nuclear repulsion energy      2628.9165950350 Hartrees.
 NAtoms=   46 NActive=   46 NUniq=   46 SFac= 1.00D+00 NAtFMM=   60 NAOKFM=F Big=F
 Integral buffers will be    131072 words long.
 Raffenetti 2 integral format.
 Two-electron integral symmetry is turned on.
 One-electron integrals computed using PRISM.
 NBasis=   756 RedAO= T EigKep=  1.55D-06  NBF=   756
 NBsUse=   733 1.00D-06 EigRej=  9.99D-07 NBFU=   733
 ExpMin= 4.38D-02 ExpMax= 4.56D+03 ExpMxC= 6.82D+02 IAcc=2 IRadAn=         4 AccDes= 0.00D+00
 Harris functional with IExCor=  402 and IRadAn=       4 diagonalized for initial guess.
 HarFok:  IExCor=  402 AccDes= 0.00D+00 IRadAn=         4 IDoV= 1 UseB2=F ITyADJ=14
 ICtDFT=  3500011 ScaDFX=  1.000000  1.000000  1.000000  1.000000
 FoFCou: FMM=F IPFlag=           0 FMFlag=      100000 FMFlg1=           0
         NFxFlg=           0 DoJE=T BraDBF=F KetDBF=T FulRan=T
         wScrn=  0.000000 ICntrl=       500 IOpCl=  0 I1Cent=   200000004 NGrid=           0
         NMat0=    1 NMatS0=      1 NMatT0=    0 NMatD0=    1 NMtDS0=    0 NMtDT0=    0
 Petite list used in FoFCou.
 Requested convergence on RMS density matrix=1.00D-08 within 128 cycles.
 Requested convergence on MAX density matrix=1.00D-06.
 Requested convergence on             energy=1.00D-06.
 No special actions if energy rises.
 EnCoef did     2 forward-backward iterations
 EnCoef did     2 forward-backward iterations
 Rare condition: small coef for last iteration: -0.222D-15
 EnCoef did   100 forward-backward iterations
 EnCoef did     6 forward-backward iterations
 EnCoef did     9 forward-backward iterations
 Restarting incremental Fock formation.
 SCF Done:  E(RB3LYP) =  -1152.96718564     A.U. after   24 cycles
            NFock= 24  Conv=0.67D-08     -V/T= 2.0045
 DoSCS=F DFT=T ScalE2(SS,OS)=  1.000000  1.000000
 Range of M.O.s used for correlation:     1   733
 NBasis=   756 NAE=    98 NBE=    98 NFC=     0 NFV=     0
 NROrb=    733 NOA=    98 NOB=    98 NVA=   635 NVB=   635

 **** Warning!!: The largest alpha MO coefficient is  0.11295788D+03


 **** Warning!!: The smallest alpha delta epsilon is  0.41760935D-01

 Symmetrizing basis deriv contribution to polar:
 IMax=3 JMax=2 DiffMx= 0.00D+00
 G2DrvN: will do    47 centers at a time, making    1 passes.
 Calling FoFCou, ICntrl=  3107 FMM=F I1Cent=   0 AccDes= 0.00D+00.
 End of G2Drv F.D. properties file   721 does not exist.
 End of G2Drv F.D. properties file   722 does not exist.
 End of G2Drv F.D. properties file   788 does not exist.
          IDoAtm=1111111111111111111111111111111111111111111111
          Differentiating once with respect to nuclear coordinates.
 CalDSu exits because no D1Ps are significant.
          There are   141 degrees of freedom in the 1st order CPHF.  IDoFFX=6 NUNeed=     0.
    135 vectors produced by pass  0 Test12= 6.22D-14 1.00D-09 XBig12= 2.87D-01 1.77D-01.
 AX will form   135 AO Fock derivatives at one time.
    135 vectors produced by pass  1 Test12= 6.22D-14 1.00D-09 XBig12= 1.15D-01 9.41D-02.
    135 vectors produced by pass  2 Test12= 6.22D-14 1.00D-09 XBig12= 1.40D-03 4.68D-03.
    135 vectors produced by pass  3 Test12= 6.22D-14 1.00D-09 XBig12= 5.83D-06 2.24D-04.
    135 vectors produced by pass  4 Test12= 6.22D-14 1.00D-09 XBig12= 1.89D-08 1.10D-05.
    135 vectors produced by pass  5 Test12= 6.22D-14 1.00D-09 XBig12= 5.82D-11 6.35D-07.
    103 vectors produced by pass  6 Test12= 6.22D-14 1.00D-09 XBig12= 7.91D-12 1.93D-07.
     83 vectors produced by pass  7 Test12= 6.22D-14 1.00D-09 XBig12= 1.14D-12 5.20D-08.
     30 vectors produced by pass  8 Test12= 6.22D-14 1.00D-09 XBig12= 2.60D-14 9.25D-09.
      2 vectors produced by pass  9 Test12= 6.22D-14 1.00D-09 XBig12= 1.92D-16 1.02D-09.
 InvSVY:  IOpt=1 It=  1 EMax= 1.11D-15
 Solved reduced A of dimension  1028 with   141 vectors.
 End of Minotr F.D. properties file   721 does not exist.
 End of Minotr F.D. properties file   722 does not exist.
 End of Minotr F.D. properties file   788 does not exist.

 **********************************************************************

            Population analysis using the SCF Density.

 **********************************************************************

 Orbital symmetries:
       Occupied  (A) (A) (A) (A) (A) (A) (A) (A) (A) (A) (A) (A)
                 (A) (A) (A) (A) (A) (A) (A) (A) (A) (A) (A) (A)
                 (A) (A) (A) (A) (A) (A) (A) (A) (A) (A) (A) (A)
                 (A) (A) (A) (A) (A) (A) (A) (A) (A) (A) (A) (A)
                 (A) (A) (A) (A) (A) (A) (A) (A) (A) (A) (A) (A)
                 (A) (A) (A) (A) (A) (A) (A) (A) (A) (A) (A) (A)
                 (A) (A) (A) (A) (A) (A) (A) (A) (A) (A) (A) (A)
                 (A) (A) (A) (A) (A) (A) (A) (A) (A) (A) (A) (A)
                 (A) (A)
       Virtual   (A) (A) (A) (A) (A) (A) (A) (A) (A) (A) (A) (A)
                 (A) (A) (A) (A) (A) (A) (A) (A) (A) (A) (A) (A)
                 (A) (A) (A) (A) (A) (A) (A) (A) (A) (A) (A) (A)
                 (A) (A) (A) (A) (A) (A) (A) (A) (A) (A) (A) (A)
                 (A) (A) (A) (A) (A) (A) (A) (A) (A) (A) (A) (A)
                 (A) (A) (A) (A) (A) (A) (A) (A) (A) (A) (A) (A)
                 (A) (A) (A) (A) (A) (A) (A) (A) (A) (A) (A) (A)
                 (A) (A) (A) (A) (A) (A) (A) (A) (A) (A) (A) (A)
                 (A) (A) (A) (A) (A) (A) (A) (A) (A) (A) (A) (A)
                 (A) (A) (A) (A) (A) (A) (A) (A) (A) (A) (A) (A)
                 (A) (A) (A) (A) (A) (A) (A) (A) (A) (A) (A) (A)
                 (A) (A) (A) (A) (A) (A) (A) (A) (A) (A) (A) (A)
                 (A) (A) (A) (A) (A) (A) (A) (A) (A) (A) (A) (A)
                 (A) (A) (A) (A) (A) (A) (A) (A) (A) (A) (A) (A)
                 (A) (A) (A) (A) (A) (A) (A) (A) (A) (A) (A) (A)
                 (A) (A) (A) (A) (A) (A) (A) (A) (A) (A) (A) (A)
                 (A) (A) (A) (A) (A) (A) (A) (A) (A) (A) (A) (A)
                 (A) (A) (A) (A) (A) (A) (A) (A) (A) (A) (A) (A)
                 (A) (A) (A) (A) (A) (A) (A) (A) (A) (A) (A) (A)
                 (A) (A) (A) (A) (A) (A) (A) (A) (A) (A) (A) (A)
                 (A) (A) (A) (A) (A) (A) (A) (A) (A) (A) (A) (A)
                 (A) (A) (A) (A) (A) (A) (A) (A) (A) (A) (A) (A)
                 (A) (A) (A) (A) (A) (A) (A) (A) (A) (A) (A) (A)
                 (A) (A) (A) (A) (A) (A) (A) (A) (A) (A) (A) (A)
                 (A) (A) (A) (A) (A) (A) (A) (A) (A) (A) (A) (A)
                 (A) (A) (A) (A) (A) (A) (A) (A) (A) (A) (A) (A)
                 (A) (A) (A) (A) (A) (A) (A) (A) (A) (A) (A) (A)
                 (A) (A) (A) (A) (A) (A) (A) (A) (A) (A) (A) (A)
                 (A) (A) (A) (A) (A) (A) (A) (A) (A) (A) (A) (A)
                 (A) (A) (A) (A) (A) (A) (A) (A) (A) (A) (A) (A)
                 (A) (A) (A) (A) (A) (A) (A) (A) (A) (A) (A) (A)
                 (A) (A) (A) (A) (A) (A) (A) (A) (A) (A) (A) (A)
                 (A) (A) (A) (A) (A) (A) (A) (A) (A) (A) (A) (A)
                 (A) (A) (A) (A) (A) (A) (A) (A) (A) (A) (A) (A)
                 (A) (A) (A) (A) (A) (A) (A) (A) (A) (A) (A) (A)
                 (A) (A) (A) (A) (A) (A) (A) (A) (A) (A) (A) (A)
                 (A) (A) (A) (A) (A) (A) (A) (A) (A) (A) (A) (A)
                 (A) (A) (A) (A) (A) (A) (A) (A) (A) (A) (A) (A)
                 (A) (A) (A) (A) (A) (A) (A) (A) (A) (A) (A) (A)
                 (A) (A) (A) (A) (A) (A) (A) (A) (A) (A) (A) (A)
                 (A) (A) (A) (A) (A) (A) (A) (A) (A) (A) (A) (A)
                 (A) (A) (A) (A) (A) (A) (A) (A) (A) (A) (A) (A)
                 (A) (A) (A) (A) (A) (A) (A) (A) (A) (A) (A) (A)
                 (A) (A) (A) (A) (A) (A) (A) (A) (A) (A) (A) (A)
                 (A) (A) (A) (A) (A) (A) (A) (A) (A) (A) (A) (A)
                 (A) (A) (A) (A) (A) (A) (A) (A) (A) (A) (A) (A)
                 (A) (A) (A) (A) (A) (A) (A) (A) (A) (A) (A) (A)
                 (A) (A) (A) (A) (A) (A) (A) (A) (A) (A) (A) (A)
                 (A) (A) (A) (A) (A) (A) (A) (A) (A) (A) (A) (A)
                 (A) (A) (A) (A) (A) (A) (A) (A) (A) (A) (A) (A)
                 (A) (A) (A) (A) (A) (A) (A) (A) (A) (A) (A) (A)
                 (A) (A) (A) (A) (A) (A) (A) (A) (A) (A) (A) (A)
                 (A) (A) (A) (A) (A) (A) (A) (A) (A) (A) (A)
 The electronic state is 1-A.
 Alpha  occ. eigenvalues --  -10.21926 -10.21764 -10.21521 -10.21021 -10.20965
 Alpha  occ. eigenvalues --  -10.20691 -10.20670 -10.20337 -10.20208 -10.19746
 Alpha  occ. eigenvalues --  -10.19744 -10.19687 -10.19598 -10.19572 -10.19555
 Alpha  occ. eigenvalues --  -10.19513 -10.19402 -10.19307 -10.19293 -10.19201
 Alpha  occ. eigenvalues --  -10.19183 -10.19180 -10.19077 -10.19006 -10.18980
 Alpha  occ. eigenvalues --  -10.18794 -10.18672 -10.17468 -10.17345 -10.17060
 Alpha  occ. eigenvalues --   -0.92977  -0.89669  -0.88734  -0.86018  -0.84810
 Alpha  occ. eigenvalues --   -0.83988  -0.81216  -0.80412  -0.79274  -0.78256
 Alpha  occ. eigenvalues --   -0.76009  -0.75464  -0.73552  -0.72053  -0.71415
 Alpha  occ. eigenvalues --   -0.67645  -0.66894  -0.64870  -0.63796  -0.63086
 Alpha  occ. eigenvalues --   -0.60807  -0.59805  -0.59407  -0.57322  -0.56871
 Alpha  occ. eigenvalues --   -0.53239  -0.52634  -0.51977  -0.51689  -0.50623
 Alpha  occ. eigenvalues --   -0.50111  -0.48258  -0.47779  -0.46589  -0.46006
 Alpha  occ. eigenvalues --   -0.45667  -0.45207  -0.44596  -0.44387  -0.43979
 Alpha  occ. eigenvalues --   -0.43276  -0.42918  -0.41954  -0.41410  -0.41190
 Alpha  occ. eigenvalues --   -0.40696  -0.40282  -0.39836  -0.39027  -0.38103
 Alpha  occ. eigenvalues --   -0.36997  -0.36635  -0.36371  -0.35476  -0.35117
 Alpha  occ. eigenvalues --   -0.34652  -0.33701  -0.33506  -0.32710  -0.31302
 Alpha  occ. eigenvalues --   -0.30302  -0.28859  -0.26965  -0.25422  -0.23851
 Alpha  occ. eigenvalues --   -0.23371  -0.21481  -0.16966
 Alpha virt. eigenvalues --   -0.12790  -0.09249  -0.05735  -0.04861  -0.03386
 Alpha virt. eigenvalues --   -0.01311  -0.00543  -0.00332   0.00189   0.00484
 Alpha virt. eigenvalues --    0.00918   0.01274   0.01394   0.02413   0.02643
 Alpha virt. eigenvalues --    0.02900   0.02963   0.03573   0.03713   0.04223
 Alpha virt. eigenvalues --    0.04628   0.04979   0.05260   0.05290   0.05496
 Alpha virt. eigenvalues --    0.06440   0.06728   0.06871   0.07138   0.07859
 Alpha virt. eigenvalues --    0.08167   0.08535   0.08825   0.09163   0.09227
 Alpha virt. eigenvalues --    0.09451   0.09897   0.10052   0.10566   0.10978
 Alpha virt. eigenvalues --    0.11498   0.11609   0.12100   0.12239   0.12583
 Alpha virt. eigenvalues --    0.12899   0.13093   0.13645   0.14062   0.14410
 Alpha virt. eigenvalues --    0.14716   0.15044   0.15408   0.15544   0.15702
 Alpha virt. eigenvalues --    0.16018   0.16115   0.16350   0.16529   0.16697
 Alpha virt. eigenvalues --    0.16927   0.17137   0.17453   0.17572   0.17679
 Alpha virt. eigenvalues --    0.18238   0.18349   0.18745   0.18888   0.18982
 Alpha virt. eigenvalues --    0.19177   0.19443   0.19784   0.19917   0.20145
 Alpha virt. eigenvalues --    0.20347   0.20509   0.20665   0.20972   0.21043
 Alpha virt. eigenvalues --    0.21204   0.21474   0.21847   0.21896   0.22064
 Alpha virt. eigenvalues --    0.22453   0.22577   0.22801   0.22994   0.23121
 Alpha virt. eigenvalues --    0.23146   0.23726   0.24239   0.24331   0.24399
 Alpha virt. eigenvalues --    0.24652   0.24771   0.25151   0.25351   0.25475
 Alpha virt. eigenvalues --    0.25889   0.26004   0.26223   0.26274   0.26542
 Alpha virt. eigenvalues --    0.26797   0.27255   0.27522   0.27981   0.28118
 Alpha virt. eigenvalues --    0.28284   0.28443   0.28809   0.29020   0.29289
 Alpha virt. eigenvalues --    0.29590   0.29786   0.30171   0.30581   0.30755
 Alpha virt. eigenvalues --    0.31010   0.31351   0.31650   0.31872   0.32335
 Alpha virt. eigenvalues --    0.32613   0.32929   0.32977   0.33775   0.34035
 Alpha virt. eigenvalues --    0.34794   0.35083   0.35417   0.35725   0.35868
 Alpha virt. eigenvalues --    0.36727   0.36752   0.37089   0.37959   0.38174
 Alpha virt. eigenvalues --    0.38982   0.39091   0.39340   0.39645   0.40652
 Alpha virt. eigenvalues --    0.41137   0.41747   0.41935   0.42406   0.42889
 Alpha virt. eigenvalues --    0.44447   0.44700   0.44893   0.46200   0.46752
 Alpha virt. eigenvalues --    0.47117   0.47329   0.47951   0.48896   0.49726
 Alpha virt. eigenvalues --    0.49886   0.50513   0.51233   0.51654   0.52365
 Alpha virt. eigenvalues --    0.52517   0.53006   0.53088   0.53758   0.54383
 Alpha virt. eigenvalues --    0.54910   0.55441   0.55679   0.56154   0.56725
 Alpha virt. eigenvalues --    0.56830   0.57191   0.57329   0.57669   0.58035
 Alpha virt. eigenvalues --    0.58186   0.58870   0.59134   0.59470   0.59578
 Alpha virt. eigenvalues --    0.60397   0.60571   0.61248   0.61405   0.61562
 Alpha virt. eigenvalues --    0.61822   0.62099   0.62644   0.63693   0.63912
 Alpha virt. eigenvalues --    0.64332   0.65039   0.65257   0.65860   0.66014
 Alpha virt. eigenvalues --    0.66179   0.67100   0.67239   0.67920   0.68328
 Alpha virt. eigenvalues --    0.68797   0.69184   0.69430   0.69959   0.70020
 Alpha virt. eigenvalues --    0.70492   0.70580   0.71169   0.71332   0.71524
 Alpha virt. eigenvalues --    0.71986   0.72079   0.72644   0.72826   0.73134
 Alpha virt. eigenvalues --    0.73574   0.73827   0.73945   0.74186   0.74846
 Alpha virt. eigenvalues --    0.74922   0.75634   0.75803   0.75906   0.76181
 Alpha virt. eigenvalues --    0.76701   0.77717   0.78400   0.79025   0.80146
 Alpha virt. eigenvalues --    0.81133   0.81440   0.81735   0.82520   0.82572
 Alpha virt. eigenvalues --    0.83381   0.84603   0.85467   0.85705   0.86426
 Alpha virt. eigenvalues --    0.86661   0.87499   0.87810   0.88599   0.88821
 Alpha virt. eigenvalues --    0.89255   0.89830   0.90330   0.91013   0.91590
 Alpha virt. eigenvalues --    0.91877   0.92075   0.92606   0.92786   0.93403
 Alpha virt. eigenvalues --    0.93714   0.93955   0.94506   0.94547   0.95061
 Alpha virt. eigenvalues --    0.95565   0.95676   0.95848   0.96488   0.96954
 Alpha virt. eigenvalues --    0.97971   0.98321   0.98347   0.98892   0.99404
 Alpha virt. eigenvalues --    1.00404   1.00523   1.01140   1.01574   1.01783
 Alpha virt. eigenvalues --    1.02523   1.03477   1.04218   1.04857   1.05437
 Alpha virt. eigenvalues --    1.05613   1.05978   1.07558   1.08197   1.08934
 Alpha virt. eigenvalues --    1.09120   1.10116   1.10692   1.12124   1.12661
 Alpha virt. eigenvalues --    1.13303   1.14334   1.15912   1.16188   1.17293
 Alpha virt. eigenvalues --    1.17521   1.18397   1.19408   1.19793   1.21506
 Alpha virt. eigenvalues --    1.22379   1.22461   1.23984   1.25036   1.25927
 Alpha virt. eigenvalues --    1.27658   1.30390   1.31122   1.31394   1.32571
 Alpha virt. eigenvalues --    1.33615   1.34784   1.36985   1.37241   1.38642
 Alpha virt. eigenvalues --    1.38945   1.40139   1.41440   1.42577   1.42915
 Alpha virt. eigenvalues --    1.43479   1.44341   1.44572   1.45131   1.45307
 Alpha virt. eigenvalues --    1.46217   1.47398   1.48179   1.48583   1.49344
 Alpha virt. eigenvalues --    1.49508   1.50113   1.50787   1.51246   1.51679
 Alpha virt. eigenvalues --    1.52533   1.53021   1.53466   1.54528   1.55290
 Alpha virt. eigenvalues --    1.55330   1.55916   1.56207   1.57290   1.57745
 Alpha virt. eigenvalues --    1.58313   1.58678   1.58948   1.59893   1.60069
 Alpha virt. eigenvalues --    1.61463   1.61793   1.62193   1.62505   1.63788
 Alpha virt. eigenvalues --    1.65196   1.66611   1.66994   1.67788   1.68394
 Alpha virt. eigenvalues --    1.69085   1.70152   1.70874   1.71653   1.72177
 Alpha virt. eigenvalues --    1.72686   1.72838   1.73064   1.73850   1.74575
 Alpha virt. eigenvalues --    1.74903   1.75445   1.75623   1.76703   1.78038
 Alpha virt. eigenvalues --    1.78161   1.79510   1.79893   1.81209   1.81739
 Alpha virt. eigenvalues --    1.82083   1.82839   1.83946   1.84296   1.84490
 Alpha virt. eigenvalues --    1.85033   1.86371   1.86585   1.87148   1.87535
 Alpha virt. eigenvalues --    1.88286   1.89440   1.89707   1.91119   1.91550
 Alpha virt. eigenvalues --    1.91686   1.92120   1.92323   1.93110   1.93278
 Alpha virt. eigenvalues --    1.93871   1.94459   1.95593   1.96220   1.97026
 Alpha virt. eigenvalues --    1.97302   1.97977   1.98624   2.00420   2.01139
 Alpha virt. eigenvalues --    2.02168   2.02622   2.02798   2.03749   2.04388
 Alpha virt. eigenvalues --    2.04608   2.05315   2.06233   2.06687   2.07223
 Alpha virt. eigenvalues --    2.08346   2.09337   2.11279   2.11417   2.12287
 Alpha virt. eigenvalues --    2.12913   2.12953   2.14436   2.15051   2.16641
 Alpha virt. eigenvalues --    2.17089   2.18336   2.18711   2.19651   2.20885
 Alpha virt. eigenvalues --    2.21261   2.22693   2.24131   2.24702   2.25331
 Alpha virt. eigenvalues --    2.25423   2.27841   2.28468   2.29539   2.30764
 Alpha virt. eigenvalues --    2.32334   2.33222   2.35633   2.36620   2.37584
 Alpha virt. eigenvalues --    2.38565   2.38956   2.40167   2.40476   2.41478
 Alpha virt. eigenvalues --    2.44561   2.44804   2.45829   2.46656   2.47114
 Alpha virt. eigenvalues --    2.48140   2.50428   2.52132   2.53949   2.55197
 Alpha virt. eigenvalues --    2.55635   2.56248   2.57416   2.57809   2.58987
 Alpha virt. eigenvalues --    2.59724   2.61008   2.62376   2.63303   2.65192
 Alpha virt. eigenvalues --    2.66061   2.67962   2.68287   2.69119   2.69986
 Alpha virt. eigenvalues --    2.70918   2.71149   2.71613   2.72268   2.72435
 Alpha virt. eigenvalues --    2.72446   2.73007   2.73912   2.74383   2.75114
 Alpha virt. eigenvalues --    2.75210   2.75751   2.76061   2.76282   2.77141
 Alpha virt. eigenvalues --    2.77906   2.78205   2.78883   2.79333   2.79750
 Alpha virt. eigenvalues --    2.80449   2.81380   2.82066   2.82595   2.83776
 Alpha virt. eigenvalues --    2.84549   2.86569   2.86850   2.87483   2.87536
 Alpha virt. eigenvalues --    2.87949   2.89172   2.89975   2.90745   2.92118
 Alpha virt. eigenvalues --    2.92707   2.93422   2.93731   2.96291   2.97986
 Alpha virt. eigenvalues --    2.98640   2.99958   3.00851   3.03239   3.04004
 Alpha virt. eigenvalues --    3.05402   3.06786   3.07879   3.09429   3.10628
 Alpha virt. eigenvalues --    3.12077   3.12839   3.13790   3.15778   3.18621
 Alpha virt. eigenvalues --    3.18973   3.19962   3.21254   3.21607   3.22458
 Alpha virt. eigenvalues --    3.24392   3.25140   3.28006   3.30329   3.30972
 Alpha virt. eigenvalues --    3.33279   3.34787   3.35494   3.36623   3.37305
 Alpha virt. eigenvalues --    3.39181   3.39541   3.40144   3.42351   3.42913
 Alpha virt. eigenvalues --    3.43641   3.46500   3.46994   3.48378   3.49698
 Alpha virt. eigenvalues --    3.52500   3.55225   3.55682   3.57661   3.60455
 Alpha virt. eigenvalues --    3.60890   3.62434   3.64409   3.68396   3.69693
 Alpha virt. eigenvalues --    3.71497   3.79516   3.82445   3.83810   3.86065
 Alpha virt. eigenvalues --    3.92088   3.94411   4.00673   4.04533   4.05521
 Alpha virt. eigenvalues --    4.06080   4.07370   4.09478   4.09976   4.15800
 Alpha virt. eigenvalues --    4.19805   4.23325   4.27180   4.32618   4.41408
 Alpha virt. eigenvalues --    4.49435   4.63301   4.71524   4.74369   4.75182
 Alpha virt. eigenvalues --    4.75519   4.78661   4.81061   4.85386   4.89263
 Alpha virt. eigenvalues --   23.38324  23.61492  23.66132  23.77401  23.78325
 Alpha virt. eigenvalues --   23.81249  23.82587  23.85488  23.88927  23.91269
 Alpha virt. eigenvalues --   23.92094  23.92381  23.92904  23.96643  23.97975
 Alpha virt. eigenvalues --   23.99273  24.00727  24.03786  24.05713  24.05955
 Alpha virt. eigenvalues --   24.08769  24.09623  24.10097  24.11609  24.12200
 Alpha virt. eigenvalues --   24.15652  24.17937  24.20247  24.21752  24.22003
          Condensed to atoms (all electrons):
               1          2          3          4          5          6
     1  C    9.240880   0.759937   0.273060   0.175223  -0.006184  -1.381742
     2  C    0.759937   8.004856   0.295388   0.011088   0.296182   0.669581
     3  C    0.273060   0.295388   8.964743   0.406236   0.658691  -1.313989
     4  C    0.175223   0.011088   0.406236  11.304024  -1.188159  -1.428557
     5  C   -0.006184   0.296182   0.658691  -1.188159   9.361387   2.328825
     6  C   -1.381742   0.669581  -1.313989  -1.428557   2.328825  10.978893
     7  C    0.151129   0.140279   1.750155   0.421995  -0.519078  -1.763161
     8  C   -0.132249   0.073091  -0.320392   0.809523  -0.057783   0.812580
     9  C   -0.243943  -0.795878   1.882133  -1.846633  -0.123289  -1.411113
    10  C   -0.103802  -0.912331   0.188451  -0.243052  -0.455536  -1.793877
    11  C   -0.549106   0.233174  -1.184306  -0.230751  -0.445503   0.482922
    12  C   -0.177215  -0.112535  -0.382339   0.192899  -0.097111  -0.074134
    13  C    0.044021  -0.340921  -0.939043   0.080958  -0.054926   0.138840
    14  C   -0.041117  -0.146871  -0.608259  -0.581942  -0.062236   0.018039
    15  C    0.970406   0.377338  -0.449149  -0.681373  -0.866602  -0.023050
    16  C   -0.443519  -0.252011  -0.591418  -0.604642  -0.720514   0.005386
    17  C   -0.986734   0.077536  -0.463281  -0.361187  -0.621782   0.210065
    18  C    0.052014   0.050726  -0.579601   0.084017  -0.775424  -0.842380
    19  C    0.017764  -0.156514  -0.315158   0.056875  -0.014320   0.026286
    20  C    0.265356  -0.428200  -0.610832   0.207654   0.033544   0.179504
    21  C    0.082418  -0.231776  -0.054002   0.166053   0.008256   0.038589
    22  C   -0.012342   0.016958  -0.039090  -0.028334  -0.000258  -0.001103
    23  C   -1.153666  -0.926087  -0.093650  -0.252790  -0.454826  -0.069391
    24  C   -0.090576  -0.249728   0.008490  -0.039257  -0.119834  -0.022216
    25  C    0.249326  -0.359329   0.102696  -0.060742  -0.024456   0.048627
    26  C   -1.074841   0.075578  -0.383522  -0.014382  -0.218343  -0.112171
    27  C   -0.205706  -0.127851  -0.084098  -0.106059  -0.092508   0.005541
    28  C    0.051388  -0.031777  -0.045609   0.008467  -0.008658   0.007911
    29  C    0.015031  -0.212439   0.010306  -0.003281  -0.005668   0.005830
    30  C   -0.032608  -0.057568   0.000813  -0.000237  -0.006380  -0.000471
    31  H    0.000054   0.000075   0.000006   0.000002   0.000001   0.000000
    32  H   -0.000265  -0.000235  -0.000235   0.000039  -0.000022   0.000002
    33  H   -0.018690   0.019188   0.083515  -0.009446  -0.003877  -0.006599
    34  H    0.000502   0.000072   0.000040  -0.000002   0.000034   0.000001
    35  H    0.002879   0.000700   0.000116   0.000021   0.000215   0.000011
    36  H    0.039600   0.005694   0.001346   0.000030   0.006932   0.000390
    37  H   -0.002444   0.026494   0.000224   0.003807   0.024918   0.010102
    38  H   -0.105283   0.020879  -0.014234  -0.057998   0.397231   0.001446
    39  H    0.000746  -0.001489   0.011877  -0.091962  -0.040798   0.417496
    40  H    0.003856  -0.009859   0.030393  -0.097104   0.012722   0.019980
    41  H    0.000773  -0.001318  -0.010699  -0.018225  -0.000592   0.002452
    42  H    0.000054   0.002241  -0.004819   0.012891   0.000162   0.000686
[...]
 .00000033,0.00010233,-0.00002670,-0.00005000,0.00006094,-0.00010251,0.
 00046257,-0.00000307,0.00001261,-0.00000711,-0.00000394,0.00000515,-0.
 00000129,0.00000361,0.00000348,-0.00000054,0.00000060,0.00000159,-0.00
 000544,0.00000072,0.00000501,0.00000568,0.00000324,-0.00000203,-0.0000
 0144,0.00000221,0.00001003,-0.00001082,0.00000416,-0.00000979,-0.00001
 829,0.00001379,0.00020419,0.00034323,0.15266820,-0.00007394,0.00002832
 ,-0.00000659,0.00019560,-0.00021793,-0.00003021,-0.00014338,0.00024966
 ,0.00012663,-0.00008411,0.00001098,0.00001731,-0.00005014,-0.00002774,
 0.00001810,0.00002087,-0.00004171,-0.00001389,-0.00018458,0.00020369,-
 0.00006751,-0.00038163,-0.00020174,0.00026405,0.00017191,0.00009652,0.
 00000912,0.00007552,-0.00016274,-0.00002395,0.00154001,-0.00130928,0.0
 0084874,-0.00419066,-0.00334736,-0.00181558,0.01495996,-0.02276800,-0.
 00515604,0.00309378,0.00147396,-0.00010239,0.00002833,0.00003271,-0.00
 001065,-0.00000614,-0.00002435,0.00002096,-0.00000576,0.00004565,-0.00
 000314,-0.00035704,-0.00035868,-0.00014572,0.11429514,-0.19644154,-0.0
 5042558,0.00009133,0.00027926,0.00010559,-0.00038911,0.00088309,-0.000
 61648,-0.00071458,0.00098980,0.00191032,0.00000587,-0.00000839,-0.0000
 0045,-0.00000694,0.00000004,0.00000069,0.00004486,0.00002475,-0.000003
 41,0.00001686,-0.00001112,-0.00002639,-0.00008097,0.00019395,0.0000192
 9,0.00011850,-0.00008504,-0.00004870,0.00000686,-0.00007011,0.00000461
 ,-0.00003189,0.00006455,0.00003482,0.00001209,-0.00000095,-0.00000295,
 0.00002614,-0.00000331,-0.00002397,0.00008596,0.00031053,0.00092517,0.
 00000267,-0.00000348,-0.00000597,0.00000483,-0.00000274,0.00000044,0.0
 0000013,-0.00000679,0.00000196,0.00000053,-0.00000759,-0.00000517,-0.0
 0000309,-0.00000311,0.00001298,-0.00000676,-0.00000949,-0.00000127,-0.
 00001064,0.00000583,-0.00000796,-0.00003092,-0.00000138,0.00001116,-0.
 00137750,0.00051092,-0.00034455,-0.12444704,0.21552895,0.00011128,-0.0
 0003905,0.00000153,0.00002022,0.00005815,-0.00000761,0.00004787,0.0001
 4187,0.00004709,-0.00016738,0.00015378,0.00001137,-0.00010492,0.000006
 24,0.00001568,0.00005914,-0.00008746,-0.00001443,-0.00034829,0.0000125
 7,0.00032548,-0.00039958,-0.00038148,-0.00015012,0.00022070,0.00011244
 ,-0.00014391,0.00001845,-0.00025190,0.00000754,-0.00036508,0.00062986,
 -0.00035266,0.00009571,0.00149712,0.00015148,-0.00132508,0.00493995,0.
 00064897,0.00017594,0.00036750,0.00013686,-0.00009122,0.00001462,-0.00
 001151,0.00003635,0.00005878,0.00001440,-0.00004957,-0.00004633,0.0000
 0642,0.00010821,-0.00003713,-0.00014555,0.03927869,-0.05314679,-0.0614
 6780,-0.00011161,0.00004546,0.00013657,-0.00232094,-0.00107653,-0.0017
 6479,-0.01373582,0.01746846,0.00440533,-0.00001665,0.00001894,-0.00000
 199,0.00001163,0.00000893,0.00000127,-0.00004949,0.00000026,-0.0000052
 6,0.00005251,0.00000515,0.00000452,0.00010058,-0.00000819,0.00005747,-
 0.00004491,0.00000913,0.00002149,0.00004049,0.00005988,-0.00000564,0.0
 0002644,-0.00006418,0.00000084,-0.00000038,0.00000034,0.00000117,0.000
 01228,-0.00002391,-0.00003033,0.00007789,-0.00109997,0.00000382,0.0000
 0080,0.00000038,0.00000016,0.00000168,0.00000091,-0.00000022,-0.000000
 86,-0.00000106,-0.00000058,-0.00000109,-0.00000113,0.00000140,0.000003
 69,-0.00000012,0.00000234,-0.00000248,-0.00000379,0.00000015,0.0000017
 6,-0.00000865,0.00001880,-0.00000256,0.00000595,0.00001615,-0.00012319
 ,-0.00006390,0.00020072,-0.04112067,0.05437586,0.06658298,0.00003604,0
 .00005772,-0.00002626,0.00001592,-0.00011835,-0.00002608,0.00006365,0.
 00017224,0.00004854,-0.00005848,0.00003060,-0.00000879,-0.00008969,-0.
 00003915,0.00001910,0.00005769,-0.00005251,0.00000263,-0.00041441,-0.0
 0013322,0.00006192,-0.00013011,-0.00007961,0.00029822,0.00003645,-0.00
 012284,-0.00002793,0.00002812,-0.00006358,-0.00001575,-0.00011212,-0.0
 0033558,0.00085786,-0.00140083,0.00112640,-0.00093368,-0.00243623,0.00
 208771,-0.00300724,-0.00021933,-0.00116186,0.00007818,-0.00001188,0.00
 001217,-0.00000136,0.00001069,0.00001851,0.00000159,-0.00003745,-0.000
 02799,-0.00002132,0.00003267,-0.00007661,0.00005618,-0.00620371,-0.019
 62536,-0.00873310,0.00338909,0.00302796,-0.00496205,0.00772486,0.01506
 727,0.00437747,-0.07395809,-0.07639518,-0.04448162,-0.00000072,0.00001
 040,0.00000029,0.00000444,-0.00000188,-0.00000952,0.00001365,0.0000155
 4,0.00003245,-0.00003934,0.00010286,0.00018503,0.00039502,0.00012063,-
 0.00027502,-0.00016974,-0.00005625,0.00002473,-0.00001889,0.00003265,-
 0.00001349,0.00003776,-0.00003568,0.00005383,-0.00001537,0.00000722,0.
 00000684,-0.00002875,0.00012980,-0.00004894,0.00065428,0.00009960,0.00
 073498,-0.00000074,0.00000502,-0.00001195,-0.00000099,0.00000320,-0.00
 000083,-0.00000012,-0.00000029,0.00000083,0.00000197,-0.00000223,-0.00
 000082,0.00000253,-0.00000079,-0.00000153,-0.00000367,-0.00000599,-0.0
 0000100,-0.00001077,-0.00001519,0.00000753,-0.00000570,0.00000840,-0.0
 0000307,0.00001017,-0.00002062,-0.00020162,0.00089783,-0.00013317,0.00
 074252,0.07429669,-0.00002934,-0.00000035,0.00000370,-0.00000544,-0.00
 001174,-0.00000240,-0.00003007,-0.00001017,0.00000560,-0.00000477,-0.0
 0002195,-0.00000282,0.00002664,0.00000004,-0.00000563,-0.00001043,0.00
 002056,0.00000462,0.00003178,-0.00001444,-0.00006650,-0.00001859,-0.00
 001287,-0.00000182,0.00003039,0.00000925,-0.00000448,-0.00000458,-0.00
 000574,0.00000387,-0.00015543,0.00005319,0.00006670,0.00055300,0.00052
 953,0.00026342,0.00046132,0.00045029,0.00026051,0.00013510,0.00010259,
 -0.00010636,0.00002882,-0.00000108,0.00000295,-0.00003920,-0.00003326,
 -0.00000246,0.00006105,0.00004754,-0.00000100,0.00000534,0.00002640,0.
 00000448,0.00280603,0.00403918,0.00174256,0.00481248,-0.00083560,0.000
 45019,-0.01011972,-0.02124798,-0.01185700,-0.07383043,-0.26337503,-0.0
 9366307,0.00000663,-0.00001280,0.00000017,0.00003501,0.00000301,0.0000
 0584,-0.00003722,-0.00012316,0.00000378,0.00040875,-0.00007615,-0.0000
 5091,-0.00108646,-0.00104811,-0.00008140,-0.00003749,-0.00005798,-0.00
 000077,-0.00000098,-0.00005750,-0.00000363,-0.00000374,0.00006070,0.00
 001905,0.00003156,-0.00000986,-0.00000335,-0.00003871,0.00001693,-0.00
 002068,-0.00004850,0.00011244,-0.00004649,0.00000848,-0.00000827,-0.00
 000574,0.00000566,-0.00002114,0.00000033,-0.00000399,-0.00000754,-0.00
 000077,-0.00000115,-0.00000653,0.00000036,-0.00000123,-0.00000584,-0.0
 0000017,-0.00000600,-0.00000253,0.00000100,-0.00000587,-0.00000184,0.0
 0000191,-0.00000920,0.00000541,-0.00000186,-0.00001931,0.00000156,0.00
 000602,-0.00034541,0.00087292,-0.00017885,0.07754060,0.28020661,0.0001
 4036,-0.00005163,-0.00001426,-0.00000041,-0.00001737,0.00002318,0.0000
 4108,0.00005025,0.00004884,-0.00017576,0.00022482,0.00002980,-0.000113
 98,0.00002054,0.00002074,0.00005830,-0.00011762,-0.00001679,-0.0000181
 4,0.00003838,0.00028366,-0.00052817,-0.00050931,0.00014552,0.00037794,
 0.00014727,0.00004627,-0.00005249,-0.00033085,-0.00000197,0.00026810,0
 .00040015,-0.00087989,0.00052175,-0.00061867,-0.00000311,-0.00139399,0
 .00105327,-0.00108327,0.00067987,-0.00021113,-0.00088277,-0.00011871,-
 0.00001657,0.00000343,0.00006391,0.00007444,0.00000018,-0.00017070,-0.
 00012423,0.00003631,0.00001608,-0.00001105,0.00000120,-0.00393206,-0.0
 1468832,-0.00143903,-0.00604778,-0.00012243,0.00644595,0.00108501,0.00
 795628,0.00677474,-0.04581473,-0.09777384,-0.08134658,-0.00003467,0.00
 003589,-0.00000342,-0.00000949,0.00000312,0.00000804,-0.00003169,0.000
 10504,-0.00007865,-0.00018406,0.00002852,-0.00019732,0.00036520,0.0007
 7364,0.00085598,0.00019866,0.00000154,-0.00013031,0.00009425,0.0000488
 4,0.00002186,-0.00001342,-0.00002377,-0.00003736,0.00001426,-0.0000032
 3,-0.00000491,0.00008266,-0.00017146,0.00007458,-0.00108563,-0.0001583
 5,-0.00046005,0.00000022,-0.00000254,0.00001287,0.00000747,0.00001225,
 -0.00000046,0.00000322,-0.00000533,-0.00000103,0.00000100,-0.00000531,
 0.00000289,-0.00000139,-0.00000642,0.00000257,-0.00000553,-0.00000651,
 -0.00000028,-0.00000850,-0.00001336,-0.00001439,-0.00000654,0.00001007
 ,0.00000949,-0.00002442,0.00004972,-0.00007820,-0.00010832,0.00049006,
 0.00095878,0.05188496,0.10203351,0.07621862,0.00001216,-0.00004653,0.0
 0000641,0.00002761,-0.00003391,0.00001250,-0.00013436,0.00001961,0.000
 05547,-0.00001462,0.00000828,-0.00001369,-0.00002154,-0.00002313,0.000
 01043,0.00002385,-0.00001449,0.00000438,0.00022736,-0.00028980,0.00003
 440,-0.00006219,-0.00001339,-0.00001704,0.00008103,0.00002059,-0.00002
 829,-0.00002227,-0.00005901,0.00000624,-0.00097574,0.00018797,-0.00030
 199,0.00149133,-0.00027996,-0.00098722,0.00075865,-0.00035402,0.000242
 63,0.00015489,0.00015121,0.00005028,-0.00002321,-0.00001043,0.00000138
 ,-0.00001438,0.00000305,0.00000934,-0.00002215,0.00003143,0.00000466,0
 .00000351,0.00002074,-0.00000537,0.00393375,0.00239604,-0.00397583,-0.
 00667354,-0.00161195,-0.00568123,-0.22216584,-0.00636845,-0.14203403,-
 0.00890352,-0.00188278,-0.01062650,-0.00001755,0.00005548,0.00000293,0
 .00005535,-0.00004060,-0.00000112,-0.00009487,0.00002052,0.00003521,0.
 00020187,-0.00045115,-0.00018892,-0.00096605,0.00073931,0.00069448,-0.
 00092645,0.00048640,0.00180954,-0.00005852,-0.00004521,-0.00011425,0.0
 0021026,0.00046603,0.00007910,-0.00000940,0.00000121,0.00007885,-0.000
 94313,0.00294957,0.00174674,-0.00009509,-0.00030766,0.00000065,0.00000
 439,0.00003817,-0.00001652,0.00000560,-0.00000764,-0.00000533,0.000002
 97,-0.00000778,-0.00000326,-0.00000017,-0.00000807,-0.00000086,-0.0000
 0080,-0.00000671,-0.00000207,-0.00000738,-0.00000995,-0.00000164,-0.00
 000723,-0.00000507,0.00000213,-0.00001312,0.00000732,-0.00000141,-0.00
 002867,0.00003249,0.00001192,0.00029926,0.00011915,-0.00000291,-0.0016
 1853,-0.00045886,0.00385274,0.23756658,0.00003453,-0.00003045,-0.00000
 023,0.00000983,-0.00002949,0.00002945,-0.00022097,-0.00000050,0.000040
 74,0.00001589,-0.00000735,-0.00001195,-0.00003304,-0.00001701,0.000009
 84,0.00000690,-0.00003043,0.00000467,0.00011650,-0.00048108,-0.0001870
 7,-0.00005035,0.00000393,-0.00002478,0.00005524,0.00006075,-0.00001244
 ,-0.00000815,-0.00004876,0.00000525,-0.00190243,0.00041223,0.00037814,
 0.00024016,-0.00421494,-0.00193365,0.00011937,-0.00057670,-0.00011893,
 0.00013268,0.00028525,-0.00001281,-0.00004547,-0.00002365,0.00000760,0
 .00005577,-0.00002531,-0.00000854,-0.00002168,0.00006681,-0.00003727,0
 .00002708,0.00011944,-0.00000785,0.00223572,-0.00355923,-0.00114626,-0
 .02092640,0.00091416,-0.01529269,-0.00947491,-0.05423313,-0.00932117,0
 .02416690,0.00299727,0.01759932,-0.00007489,0.00005930,-0.00000254,0.0
 0005878,-0.00000793,-0.00001772,-0.00032630,0.00004554,-0.00001283,0.0
 0005181,-0.00052409,0.00024245,-0.00132325,0.00165677,0.00039358,0.000
 65126,-0.00033011,-0.00061154,0.00023550,0.00028939,0.00002246,0.00039
 869,-0.00028065,0.00017044,0.00001093,-0.00001669,-0.00005702,0.001033
 59,-0.00061154,-0.00152313,0.00002567,-0.00046514,0.00010565,0.0000052
 2,0.00002471,-0.00003357,0.00000201,0.00000234,-0.00000143,0.00000611,
 -0.00000184,0.00000567,0.00000072,-0.00000326,-0.00000325,-0.00000200,
 -0.00000231,-0.00000165,-0.00000210,-0.00000996,0.00000126,-0.00000145
 ,0.00000015,0.00000220,-0.00001154,0.00000003,0.00000471,-0.00009656,0
 .00002303,0.00003802,0.00110872,-0.00004686,0.00075997,-0.00075446,0.0
 0071473,0.00098255,0.00463513,0.05792141,0.00005390,-0.00001372,0.0000
 0540,0.00001181,-0.00007037,0.00001496,-0.00006495,0.00003365,-0.00006
 041,-0.00000715,0.00005055,0.00001679,-0.00006461,-0.00003606,0.000014
 13,0.00005086,-0.00004436,0.00000119,0.00001654,-0.00019890,-0.0002029
 0,-0.00006088,0.00000470,0.00013158,0.00009738,0.00001827,-0.00002439,
 -0.00002332,-0.00007829,-0.00000228,-0.00021773,0.00052142,0.00056029,
 -0.00081091,-0.00310262,-0.00049982,0.00012192,0.00077340,-0.00018549,
 -0.00013543,-0.00017603,-0.00004775,-0.00005497,-0.00001845,-0.0000008
 8,0.00004607,0.00003378,0.00000905,-0.00012179,0.00003386,-0.00003008,
 0.00002600,0.00001177,0.00004535,-0.00469505,0.00047188,0.00822744,-0.
 00557863,0.00318718,-0.00131170,-0.14327869,-0.01047989,-0.14483907,-0
 .00730361,-0.00077131,-0.00055359,-0.00006194,0.00008829,-0.00001480,0
 .00008474,-0.00002773,0.00000467,-0.00016583,0.00004467,0.00002535,0.0
 0017155,-0.00018789,-0.00007814,-0.00045743,0.00076881,0.00032206,-0.0
 0001872,-0.00073292,0.00021943,0.00007099,0.00015673,-0.00008563,0.000
 28607,0.00023981,0.00011744,0.00001209,-0.00003823,0.00003792,0.001573
 83,-0.00114292,-0.00137223,-0.00005247,0.00006314,0.00000532,-0.000004
 80,0.00006639,-0.00002875,-0.00000160,0.00000393,0.00000160,0.00000830
 ,-0.00000058,0.00000354,0.00000154,-0.00000247,0.00000035,0.00000021,-
 0.00000141,-0.00000119,-0.00000185,-0.00000639,0.00000008,-0.00000211,
 -0.00000704,0.00000285,-0.00000139,0.00000289,0.00000387,0.00003245,-0
 .00003128,-0.00004867,-0.00136207,-0.00022318,-0.00086530,0.00408518,0
 .00112173,-0.00443597,0.15598418,0.00960278,0.14398768,-0.00001615,0.0
 0013037,-0.00002970,-0.00009533,-0.00018496,-0.00002705,-0.00000634,-0
 .00010200,0.00011359,0.00011993,-0.00002251,-0.00005519,-0.00006378,-0
 .00003930,0.00001759,0.00003988,-0.00005450,-0.00000256,0.00024578,-0.
 00009390,0.00000663,-0.00036019,0.00016104,-0.00122486,-0.00009050,-0.
 00019855,-0.00010481,0.00001736,0.00008281,0.00008670,-0.00034439,-0.0
 0069439,0.00089851,-0.00118346,0.00080113,-0.00007602,-0.00643401,-0.0
 0411235,0.01456236,-0.00078732,-0.00257199,0.00020715,0.00006256,-0.00
 000984,0.00000973,-0.00002201,-0.00005647,0.00000904,0.00001674,0.0000
 3969,-0.00002356,0.00002244,0.00010988,0.00009491,-0.06013371,-0.00822
 528,0.06316564,0.00138207,-0.00077188,-0.00056458,-0.00162827,-0.00162
 724,-0.00149269,0.00594813,0.00631932,-0.02846484,-0.00000896,0.000020
 16,0.00000077,0.00000865,-0.00000891,-0.00000464,0.00000326,0.00002146
 ,0.00000796,-0.00006715,-0.00007655,-0.00000171,-0.00016931,0.00023200
 ,0.00000995,-0.00010511,0.00005010,0.00011260,-0.00002491,0.00002801,-
 0.00000529,0.00007187,0.00005550,0.00006214,-0.00000681,-0.00000019,0.
 00000129,0.00009183,0.00009845,-0.00013329,0.00087360,0.00100696,-0.00
 007400,0.00000018,0.00001264,-0.00001688,0.00000182,0.00000259,-0.0000
 0072,0.00000077,-0.00000112,0.00000021,0.00000387,-0.00000377,-0.00000
 130,-0.00000056,-0.00000285,-0.00000390,-0.00000467,-0.00000653,0.0000
 0194,-0.00000992,-0.00001850,0.00002455,-0.00000668,0.00001072,-0.0000
 0905,0.00024265,-0.00000795,0.00069956,-0.00591051,-0.00220686,0.01913
 986,-0.00072388,-0.00063653,0.00012357,-0.00124009,-0.00016478,0.00181
 232,0.07029061,0.00012414,0.00012451,-0.00000497,-0.00007652,-0.000172
 27,0.00001160,0.00002959,0.00014691,0.00004067,-0.00016327,0.00029097,
 -0.00003259,-0.00023245,-0.00000369,0.00003851,0.00011885,-0.00022583,
 0.00000613,-0.00043428,0.00013235,0.00044328,-0.00113650,-0.00089179,-
 0.00082804,0.00036428,0.00007976,-0.00037643,0.00000759,-0.00040847,0.
 00009585,-0.00081352,-0.00035114,-0.00039115,-0.00107820,0.00138900,-0
 .00023157,-0.01115646,-0.00607534,0.02722562,0.00118417,-0.00187352,0.
 00027011,-0.00006463,0.00001193,-0.00000173,0.00005910,0.00005743,0.00
 000302,-0.00003999,-0.00009280,0.00002203,0.00001691,0.00022166,-0.000
 04038,-0.01004115,-0.05011098,0.03109806,0.00054280,-0.00039653,-0.001
 10428,0.00029554,0.00126725,0.00031793,0.00302262,0.00066663,0.0029436
 6,-0.00002174,0.00003153,-0.00000150,0.00002291,-0.00000647,-0.0000001
 7,-0.00006541,0.00000051,-0.00000081,0.00005624,-0.00003355,-0.0000032
 0,0.00010785,-0.00004666,-0.00000793,-0.00004087,-0.00001737,0.0000125
 8,0.00005906,0.00006410,-0.00000473,0.00004454,-0.00003822,-0.00003859
 ,0.00000119,0.00000045,0.00000339,0.00005091,0.00002196,0.00005113,-0.
 00007038,-0.00065406,-0.00071131,0.00000022,0.00000619,0.00001002,0.00
 000148,0.00000293,0.00000090,0.00000120,-0.00000128,0.00000002,0.00000
 235,-0.00000427,0.00000272,-0.00000235,-0.00000445,-0.00001557,-0.0000
 0339,-0.00000820,-0.00000122,0.00000220,-0.00002856,0.00005203,-0.0000
 1288,0.00001468,-0.00000790,-0.00010038,0.00002916,0.00021669,0.007193
 03,0.00335537,-0.02423209,-0.00041807,-0.00026344,0.00044915,-0.000053
 16,-0.00001884,0.00009241,0.01271685,0.05381246,0.00009492,-0.00003178
 ,0.00001597,0.00003830,0.00005085,0.00002560,0.00006737,0.00022044,-0.
 00002394,-0.00017481,0.00011721,0.00001635,-0.00009680,0.00000868,0.00
 001299,0.00004044,-0.00006927,-0.00000426,-0.00054261,-0.00019449,0.00
 024553,-0.00011040,-0.00018366,-0.00026707,0.00011202,0.00011827,-0.00
 002902,0.00004983,-0.00020397,0.00001519,-0.00030961,0.00008152,-0.000
 88236,-0.00009339,0.00132224,-0.00148946,0.00201629,0.00269804,0.00217
 213,0.00003494,0.00047313,-0.00002875,-0.00010364,0.00002800,-0.000012
 16,0.00007181,0.00009050,-0.00000977,-0.00002409,-0.00007418,0.0000292
 4,0.00001085,-0.00001946,-0.00009965,0.06838852,0.03182522,-0.26658694
 ,0.00118236,0.00089566,-0.00081196,-0.00072429,-0.00299864,0.00039050,
 -0.00332867,0.00359153,-0.01848303,-0.00001258,0.00000786,0.00000268,0
 .00000810,0.00001097,0.00000206,-0.00006832,-0.00000359,-0.00000779,0.
 00008527,0.00008107,0.00005002,0.00032199,-0.00020243,0.00003984,-0.00
 027035,-0.00003803,0.00007384,0.00004305,0.00010522,-0.00001342,0.0000
 8857,-0.00008548,0.00005531,-0.00001150,-0.00000285,0.00000532,0.00003
 923,0.00008435,-0.00009948,0.00011763,-0.00237160,0.00185212,-0.000003
 02,0.00001305,-0.00001388,-0.00000478,0.00000391,-0.00000214,0.0000004
 0,0.00000498,-0.00000008,-0.00000208,0.00000481,0.00000008,0.00000206,
 0.00000499,-0.00000511,0.00000506,0.00000188,-0.00000253,0.00000812,0.
 00000183,0.00000284,0.00000906,-0.00000162,-0.00000717,-0.00006303,0.0
 0001288,-0.00008588,0.00343468,-0.00008618,-0.00881310,-0.00074790,0.0
 0010589,-0.00091548,-0.00072708,-0.00002641,0.00093069,-0.06885192,-0.
 03537134,0.29275615\\0.00000221,-0.00000400,0.00000429,-0.00000615,0.0
 0000151,0.00000090,0.00000265,0.00000201,0.00000527,-0.00000482,-0.000
 00054,0.00000213,-0.00000286,0.00000071,0.00000074,0.00000289,-0.00000
 087,-0.00000221,-0.00001694,-0.00000406,0.00001509,0.00000193,-0.00000
 330,-0.00000703,0.00000179,-0.00000042,-0.00000142,-0.00000040,-0.0000
 0051,-0.00000341,0.00003455,-0.00000141,-0.00006298,-0.00001521,0.0000
 1142,0.00002029,0.00000886,0.00000583,0.00002072,0.00001052,0.00000212
 ,-0.00001114,-0.00000007,0.00000436,0.00000316,-0.00000112,-0.00000253
 ,0.00000353,0.00001106,-0.00000280,-0.00000492,-0.00000571,0.00000611,
 0.00001264,-0.00000758,0.00000579,0.00001429,-0.00000892,-0.00001092,-
 0.00000452,0.00001030,0.00001517,-0.00002526,0.00000218,-0.00000936,0.
 00000251,0.00000039,0.00000099,0.00000248,-0.00000229,0.00000106,0.000
 00319,0.00000234,-0.00000236,-0.00000021,-0.00000764,0.00000006,-0.000
 00137,-0.00000419,0.00000161,0.00001087,0.00000325,-0.00000194,0.00000
 236,-0.00000179,0.00000008,0.00000314,-0.00000150,0.00000211,0.0000010
 8,-0.00000006,-0.00000019,0.00000136,-0.00000054,0.00000078,-0.0000003
 0,-0.00000487,-0.00001535,0.00000062,0.00000009,0.00000002,0.00000131,
 -0.00000012,0.00000002,0.00000129,0.00000030,-0.00000005,0.00000199,0.
 00000015,0.00000004,0.00000114,-0.00000041,0.00000042,0.00000188,0.000
 00030,0.00000014,0.00000164,-0.00000030,0.00000061,-0.00000145,-0.0000
 0005,-0.00000007,-0.00000090,-0.00000040,0.00000014,-0.00000452,0.0000
 0163,0.00000085,-0.00000471,-0.00000265,0.00000021,-0.00000006,-0.0000
 0171,0.00000076,-0.00000047,0.00000088,-0.00000428,-0.00000300\\\@


 ALL OUR THINKING ABOUT NATURE MUST NECESSARILY MOVE IN CIRCLES OR SPIRALS;
 FOR WE CAN ONLY UNDERSTAND NATURE IF WE THINK ABOUT HER, AND WE CAN ONLY
 THINK BECAUSE OUR BRAIN IS BUILT IN ACCORDANCE WITH NATURE'S LAWS.

                                             -- TIMOTHY FERRIS, "GALAXIES"
 Job cpu time:       1 days  0 hours 14 minutes 33.8 seconds.
 Elapsed time:       0 days  1 hours 12 minutes 56.0 seconds.
 File lengths (MBytes):  RWF=   2272 Int=      0 D2E=      0 Chk=     62 Scr=      1
 Normal termination of Gaussian 16 at Sat Sep  7 22:15:00 2019.
