 Entering Gaussian System, Link 0=/share/apps/gaussian16/g16/g16
 Initial command:
 /share/apps/gaussian16/g16/l1.exe "/home/amen01//scratch/707/Gau-36243.inp" -scrdir="/home/amen01//scratch/707/"
 Entering Link 1 = /share/apps/gaussian16/g16/l1.exe PID=     36244.
  
 Copyright (c) 1988-2017, Gaussian, Inc.  All Rights Reserved.
  
 This is part of the Gaussian(R) 16 program.  It is based on
 the Gaussian(R) 09 system (copyright 2009, Gaussian, Inc.),
 the Gaussian(R) 03 system (copyright 2003, Gaussian, Inc.),
 the Gaussian(R) 98 system (copyright 1998, Gaussian, Inc.),
 the Gaussian(R) 94 system (copyright 1995, Gaussian, Inc.),
 the Gaussian 92(TM) system (copyright 1992, Gaussian, Inc.),
 the Gaussian 90(TM) system (copyright 1990, Gaussian, Inc.),
 the Gaussian 88(TM) system (copyright 1988, Gaussian, Inc.),
 the Gaussian 86(TM) system (copyright 1986, Carnegie Mellon
 University), and the Gaussian 82(TM) system (copyright 1983,
 Carnegie Mellon University). Gaussian is a federally registered
 trademark of Gaussian, Inc.
  
 This software contains proprietary and confidential information,
 including trade secrets, belonging to Gaussian, Inc.
  
 This software is provided under written license and may be
 used, copied, transmitted, or stored only in accord with that
 written license.
  
 The following legend is applicable only to US Government
 contracts under FAR:
  
                    RESTRICTED RIGHTS LEGEND
  
 Use, reproduction and disclosure by the US Government is
 subject to restrictions as set forth in subparagraphs (a)
 and (c) of the Commercial Computer Software - Restricted
 Rights clause in FAR 52.227-19.
  
 Gaussian, Inc.
 340 Quinnipiac St., Bldg. 40, Wallingford CT 06492
  
  
 ---------------------------------------------------------------
 Warning -- This program may not be used in any manner that
 competes with the business of Gaussian, Inc. or will provide
 assistance to any competitor of Gaussian, Inc.  The licensee
 of this program is prohibited from giving any competitor of
 Gaussian, Inc. access to this program.  By using this program,
 the user acknowledges that Gaussian, Inc. is engaged in the
 business of creating and licensing software in the field of
 computational chemistry and represents and warrants to the
 licensee that it is not a competitor of Gaussian, Inc. and that
 it will not use this program in any manner prohibited above.
 ---------------------------------------------------------------
  

 Cite this work as:
 Gaussian 16, Revision B.01,
 M. J. Frisch, G. W. Trucks, H. B. Schlegel, G. E. Scuseria, 
 M. A. Robb, J. R. Cheeseman, G. Scalmani, V. Barone, 
 G. A. Petersson, H. Nakatsuji, X. Li, M. Caricato, A. V. Marenich, 
 J. Bloino, B. G. Janesko, R. Gomperts, B. Mennucci, H. P. Hratchian, 
 J. V. Ortiz, A. F. Izmaylov, J. L. Sonnenberg, D. Williams-Young, 
 F. Ding, F. Lipparini, F. Egidi, J. Goings, B. Peng, A. Petrone, 
 T. Henderson, D. Ranasinghe, V. G. Zakrzewski, J. Gao, N. Rega, 
 G. Zheng, W. Liang, M. Hada, M. Ehara, K. Toyota, R. Fukuda, 
 J. Hasegawa, M. Ishida, T. Nakajima, Y. Honda, O. Kitao, H. Nakai, 
 T. Vreven, K. Throssell, J. A. Montgomery, Jr., J. E. Peralta, 
 F. Ogliaro, M. J. Bearpark, J. J. Heyd, E. N. Brothers, K. N. Kudin, 
 V. N. Staroverov, T. A. Keith, R. Kobayashi, J. Normand, 
 K. Raghavachari, A. P. Rendell, J. C. Burant, S. S. Iyengar, 
 J. Tomasi, M. Cossi, J. M. Millam, M. Klene, C. Adamo, R. Cammi, 
 J. W. Ochterski, R. L. Martin, K. Morokuma, O. Farkas, 
 J. B. Foresman, and D. J. Fox, Gaussian, Inc., Wallingford CT, 2016.
 
 ******************************************
 Gaussian 16:  ES64L-G16RevB.01 20-Dec-2017
                24-Jul-2019 
 ******************************************
 %nprocshared=20
 Will use up to   20 processors via shared memory.
 %mem=180GB
 %chk=7-memb-carbTguess-5b.chk
 ----------------------------------------------------------------------
 # opt=(tight,ts,modredundant,calcfc,noeigen) freq b3lyp/6-311+g(d,p) i
 nt=grid=fine
 ----------------------------------------------------------------------
 1/5=1,7=10,10=4,11=1,18=120,26=3,38=1/1,3;
 2/9=110,12=2,17=6,18=5,40=1/2;
 3/5=4,6=6,7=111,11=2,25=1,30=1,71=2,74=-5,75=-4,140=1/1,2,3;
 4//1;
 5/5=2,38=5/2;
 8/6=4,10=90,11=11/1;
 11/6=1,8=1,9=11,15=111,16=1/1,2,10;
 10/6=1,13=1/2;
 6/7=2,8=2,9=2,10=2,28=1/1;
 7/10=1,18=20,25=1/1,2,3,16;
 1/5=1,7=10,10=4,11=1,18=20,26=3/3(2);
 2/9=110/2;
 99//99;
 2/9=110/2;
 3/5=4,6=6,7=111,11=2,25=1,30=1,71=1,74=-5,75=-4/1,2,3;
 4/5=5,16=3,69=1/1;
 5/5=2,38=5/2;
 7//1,2,3,16;
 1/5=1,7=10,11=1,18=20,26=3/3(-5);
 2/9=110/2;
 6/7=2,8=2,9=2,10=2,19=2,28=1/1;
 99/9=1/99;
 ---------------------
 7-memb-carbTSguess-5b
 ---------------------
 Symbolic Z-matrix:
 Charge =  0 Multiplicity = 1
 C                    -1.59245  -2.80534  -0.03385 
 C                    -1.44196  -1.46385   0.3061 
 C                    -2.53994  -0.60225   0.43344 
 C                    -3.84926  -0.96211   0.20262 
 C                    -2.96168  -3.24261  -0.163 
 C                    -4.03714  -2.36865  -0.05564 
 C                    -2.05556   0.71447   0.47064 
 C                    -2.89373   1.81118   0.25075 
 C                    -4.30576   1.47237   0.14681 
 C                    -4.75856   0.16819   0.12246 
 C                    -0.65424   0.69136   0.38097 
 C                     0.02789   1.86592   0.07755 
 C                    -0.80375   3.05261  -0.11583 
 C                    -2.22256   3.01469  -0.00732 
 C                    -0.36685  -3.45458  -0.32753 
 C                     0.85212  -2.7548   -0.30421 
 C                     0.95108  -1.3275   -0.00386 
 C                    -0.25628  -0.70825   0.285 
 C                    -0.15748   4.24772  -0.54084 
 C                     1.44894   1.91145  -0.14256 
 C                     1.97337   3.09994  -0.62999 
 C                     1.18147   4.25164  -0.82278 
 C                     2.07735  -3.43871  -0.63766 
 C                     3.27524  -2.81722  -0.57717 
 C                     3.41738  -1.44255  -0.13947 
 C                     2.2172   -0.63816   0.03232 
 C                     2.40814   0.79056   0.18606 
 C                     3.6705    1.24016   0.58616 
 C                     4.67595  -0.96157   0.13784 
 C                     4.78439   0.26498   0.88416 
 H                     5.55657  -1.58019   0.00961 
 H                     4.1845   -3.36625  -0.79902 
 H                     2.02017  -4.48424  -0.92416 
 H                    -0.34722  -4.50265  -0.61102 
 H                    -3.16398  -4.28202  -0.40142 
 H                    -5.03754  -2.75676  -0.21776 
 H                    -5.82116  -0.00882  -0.01072 
 H                    -5.02854   2.27379   0.03128 
 H                    -2.77129   3.92652  -0.22447 
 H                    -0.7521    5.1438   -0.68368 
 H                     1.65575   5.15179  -1.20094 
 H                     3.02186   3.16212  -0.88737 
 H                     3.931     0.5808    1.77147 
 H                     3.89866   2.28849   0.70967 
 H                     4.63043  -0.05902   2.26957 
 H                     5.74826   0.74623   1.0272 
 
 Add virtual bond connecting atoms H45        and H43        Dist= 2.02D+00.
 The following ModRedundant input section has been read:
 B      28      43 F                                                           
 

 GradGradGradGradGradGradGradGradGradGradGradGradGradGradGradGradGradGrad
 Berny optimization.
 Initialization pass.
                           ----------------------------
                           !    Initial Parameters    !
                           ! (Angstroms and Degrees)  !
 --------------------------                            --------------------------
 ! Name  Definition              Value          Derivative Info.                !
 --------------------------------------------------------------------------------
 ! R1    R(1,2)                  1.3921         calculate D2E/DX2 analytically  !
 ! R2    R(1,5)                  1.4431         calculate D2E/DX2 analytically  !
 ! R3    R(1,15)                 1.4177         calculate D2E/DX2 analytically  !
 ! R4    R(2,3)                  1.4015         calculate D2E/DX2 analytically  !
 ! R5    R(2,18)                 1.4061         calculate D2E/DX2 analytically  !
 ! R6    R(3,4)                  1.3774         calculate D2E/DX2 analytically  !
 ! R7    R(3,7)                  1.4035         calculate D2E/DX2 analytically  !
 ! R8    R(4,6)                  1.4423         calculate D2E/DX2 analytically  !
 ! R9    R(4,10)                 1.4529         calculate D2E/DX2 analytically  !
 ! R10   R(5,6)                  1.3899         calculate D2E/DX2 analytically  !
 ! R11   R(5,35)                 1.0854         calculate D2E/DX2 analytically  !
 ! R12   R(6,36)                 1.0852         calculate D2E/DX2 analytically  !
 ! R13   R(7,8)                  1.3977         calculate D2E/DX2 analytically  !
 ! R14   R(7,11)                 1.4044         calculate D2E/DX2 analytically  !
 ! R15   R(8,9)                  1.4558         calculate D2E/DX2 analytically  !
 ! R16   R(8,14)                 1.402          calculate D2E/DX2 analytically  !
 ! R17   R(9,10)                 1.3808         calculate D2E/DX2 analytically  !
 ! R18   R(9,38)                 1.0854         calculate D2E/DX2 analytically  !
 ! R19   R(10,37)                1.0854         calculate D2E/DX2 analytically  !
 ! R20   R(11,12)                1.3917         calculate D2E/DX2 analytically  !
 ! R21   R(11,18)                1.4582         calculate D2E/DX2 analytically  !
 ! R22   R(12,13)                1.4619         calculate D2E/DX2 analytically  !
 ! R23   R(12,20)                1.4387         calculate D2E/DX2 analytically  !
 ! R24   R(13,14)                1.4235         calculate D2E/DX2 analytically  !
 ! R25   R(13,19)                1.4236         calculate D2E/DX2 analytically  !
 ! R26   R(14,39)                1.0861         calculate D2E/DX2 analytically  !
 ! R27   R(15,16)                1.4057         calculate D2E/DX2 analytically  !
 ! R28   R(15,34)                1.0859         calculate D2E/DX2 analytically  !
 ! R29   R(16,17)                1.4619         calculate D2E/DX2 analytically  !
 ! R30   R(16,23)                1.4423         calculate D2E/DX2 analytically  !
 ! R31   R(17,18)                1.3873         calculate D2E/DX2 analytically  !
 ! R32   R(17,26)                1.4421         calculate D2E/DX2 analytically  !
 ! R33   R(19,22)                1.3683         calculate D2E/DX2 analytically  !
 ! R34   R(19,40)                1.0849         calculate D2E/DX2 analytically  !
 ! R35   R(20,21)                1.3875         calculate D2E/DX2 analytically  !
 ! R36   R(20,27)                1.5114         calculate D2E/DX2 analytically  !
 ! R37   R(21,22)                1.4109         calculate D2E/DX2 analytically  !
 ! R38   R(21,42)                1.0814         calculate D2E/DX2 analytically  !
 ! R39   R(22,41)                1.0855         calculate D2E/DX2 analytically  !
 ! R40   R(23,24)                1.3509         calculate D2E/DX2 analytically  !
 ! R41   R(23,33)                1.0856         calculate D2E/DX2 analytically  !
 ! R42   R(24,25)                1.4497         calculate D2E/DX2 analytically  !
 ! R43   R(24,32)                1.0851         calculate D2E/DX2 analytically  !
 ! R44   R(25,26)                1.455          calculate D2E/DX2 analytically  !
 ! R45   R(25,29)                1.3756         calculate D2E/DX2 analytically  !
 ! R46   R(26,27)                1.4496         calculate D2E/DX2 analytically  !
 ! R47   R(27,28)                1.3985         calculate D2E/DX2 analytically  !
 ! R48   R(28,30)                1.5101         calculate D2E/DX2 analytically  !
 ! R49   R(28,43)                1.3812         frozen, calculate D2E/DX2 analyt!
 ! R50   R(28,44)                1.08           calculate D2E/DX2 analytically  !
 ! R51   R(29,30)                1.4399         calculate D2E/DX2 analytically  !
 ! R52   R(29,31)                1.0838         calculate D2E/DX2 analytically  !
 ! R53   R(30,43)                1.271          calculate D2E/DX2 analytically  !
 ! R54   R(30,46)                1.0868         calculate D2E/DX2 analytically  !
 ! R55   R(43,45)                1.0708         calculate D2E/DX2 analytically  !
 ! A1    A(2,1,5)              114.6085         calculate D2E/DX2 analytically  !
 ! A2    A(2,1,15)             113.4814         calculate D2E/DX2 analytically  !
 ! A3    A(5,1,15)             131.5233         calculate D2E/DX2 analytically  !
 ! A4    A(1,2,3)              122.0017         calculate D2E/DX2 analytically  !
 ! A5    A(1,2,18)             127.2529         calculate D2E/DX2 analytically  !
 ! A6    A(3,2,18)             109.3673         calculate D2E/DX2 analytically  !
 ! A7    A(2,3,4)              124.6735         calculate D2E/DX2 analytically  !
 ! A8    A(2,3,7)              107.9867         calculate D2E/DX2 analytically  !
 ! A9    A(4,3,7)              125.2848         calculate D2E/DX2 analytically  !
 ! A10   A(3,4,6)              114.118          calculate D2E/DX2 analytically  !
 ! A11   A(3,4,10)             113.6367         calculate D2E/DX2 analytically  !
 ! A12   A(6,4,10)             131.8561         calculate D2E/DX2 analytically  !
 ! A13   A(1,5,6)              122.4581         calculate D2E/DX2 analytically  !
 ! A14   A(1,5,35)             119.1202         calculate D2E/DX2 analytically  !
 ! A15   A(6,5,35)             118.3512         calculate D2E/DX2 analytically  !
 ! A16   A(4,6,5)              121.7496         calculate D2E/DX2 analytically  !
 ! A17   A(4,6,36)             119.7081         calculate D2E/DX2 analytically  !
 ! A18   A(5,6,36)             118.4803         calculate D2E/DX2 analytically  !
 ! A19   A(3,7,8)              121.6682         calculate D2E/DX2 analytically  !
 ! A20   A(3,7,11)             109.1017         calculate D2E/DX2 analytically  !
 ! A21   A(8,7,11)             126.9578         calculate D2E/DX2 analytically  !
 ! A22   A(7,8,9)              114.2206         calculate D2E/DX2 analytically  !
 ! A23   A(7,8,14)             114.5473         calculate D2E/DX2 analytically  !
 ! A24   A(9,8,14)             130.6152         calculate D2E/DX2 analytically  !
 ! A25   A(8,9,10)             122.6257         calculate D2E/DX2 analytically  !
 ! A26   A(8,9,38)             118.7935         calculate D2E/DX2 analytically  !
 ! A27   A(10,9,38)            118.5008         calculate D2E/DX2 analytically  !
 ! A28   A(4,10,9)             121.9117         calculate D2E/DX2 analytically  !
 ! A29   A(4,10,37)            119.5112         calculate D2E/DX2 analytically  !
 ! A30   A(9,10,37)            118.5045         calculate D2E/DX2 analytically  !
 ! A31   A(7,11,12)            119.2809         calculate D2E/DX2 analytically  !
 ! A32   A(7,11,18)            106.996          calculate D2E/DX2 analytically  !
 ! A33   A(12,11,18)           131.4454         calculate D2E/DX2 analytically  !
 ! A34   A(11,12,13)           115.7902         calculate D2E/DX2 analytically  !
 ! A35   A(11,12,20)           122.9679         calculate D2E/DX2 analytically  !
 ! A36   A(13,12,20)           121.0611         calculate D2E/DX2 analytically  !
 ! A37   A(12,13,14)           122.3641         calculate D2E/DX2 analytically  !
 ! A38   A(12,13,19)           117.561          calculate D2E/DX2 analytically  !
 ! A39   A(14,13,19)           119.8423         calculate D2E/DX2 analytically  !
 ! A40   A(8,14,13)            120.9355         calculate D2E/DX2 analytically  !
 ! A41   A(8,14,39)            121.0388         calculate D2E/DX2 analytically  !
 ! A42   A(13,14,39)           117.7722         calculate D2E/DX2 analytically  !
 ! A43   A(1,15,16)            121.2138         calculate D2E/DX2 analytically  !
 ! A44   A(1,15,34)            120.7774         calculate D2E/DX2 analytically  !
 ! A45   A(16,15,34)           117.9764         calculate D2E/DX2 analytically  !
 ! A46   A(15,16,17)           123.2381         calculate D2E/DX2 analytically  !
 ! A47   A(15,16,23)           119.7859         calculate D2E/DX2 analytically  !
 ! A48   A(17,16,23)           116.9338         calculate D2E/DX2 analytically  !
 ! A49   A(16,17,18)           114.8135         calculate D2E/DX2 analytically  !
 ! A50   A(16,17,26)           122.0928         calculate D2E/DX2 analytically  !
 ! A51   A(18,17,26)           123.0593         calculate D2E/DX2 analytically  !
 ! A52   A(2,18,11)            106.5378         calculate D2E/DX2 analytically  !
 ! A53   A(2,18,17)            119.8089         calculate D2E/DX2 analytically  !
 ! A54   A(11,18,17)           132.8144         calculate D2E/DX2 analytically  !
 ! A55   A(13,19,22)           120.5408         calculate D2E/DX2 analytically  !
 ! A56   A(13,19,40)           118.9406         calculate D2E/DX2 analytically  !
 ! A57   A(22,19,40)           120.4539         calculate D2E/DX2 analytically  !
 ! A58   A(12,20,21)           117.0124         calculate D2E/DX2 analytically  !
 ! A59   A(12,20,27)           124.7573         calculate D2E/DX2 analytically  !
 ! A60   A(21,20,27)           118.1481         calculate D2E/DX2 analytically  !
 ! A61   A(20,21,22)           122.3483         calculate D2E/DX2 analytically  !
 ! A62   A(20,21,42)           119.9557         calculate D2E/DX2 analytically  !
 ! A63   A(22,21,42)           117.6924         calculate D2E/DX2 analytically  !
 ! A64   A(19,22,21)           121.2469         calculate D2E/DX2 analytically  !
 ! A65   A(19,22,41)           120.1141         calculate D2E/DX2 analytically  !
 ! A66   A(21,22,41)           118.639          calculate D2E/DX2 analytically  !
 ! A67   A(16,23,24)           121.655          calculate D2E/DX2 analytically  !
 ! A68   A(16,23,33)           118.2273         calculate D2E/DX2 analytically  !
 ! A69   A(24,23,33)           120.1071         calculate D2E/DX2 analytically  !
 ! A70   A(23,24,25)           122.4617         calculate D2E/DX2 analytically  !
 ! A71   A(23,24,32)           120.0747         calculate D2E/DX2 analytically  !
 ! A72   A(25,24,32)           117.3468         calculate D2E/DX2 analytically  !
 ! A73   A(24,25,26)           118.6216         calculate D2E/DX2 analytically  !
 ! A74   A(24,25,29)           118.8256         calculate D2E/DX2 analytically  !
 ! A75   A(26,25,29)           122.5201         calculate D2E/DX2 analytically  !
 ! A76   A(17,26,25)           117.1933         calculate D2E/DX2 analytically  !
 ! A77   A(17,26,27)           126.1177         calculate D2E/DX2 analytically  !
 ! A78   A(25,26,27)           116.664          calculate D2E/DX2 analytically  !
 ! A79   A(20,27,26)           128.6287         calculate D2E/DX2 analytically  !
 ! A80   A(20,27,28)           113.3681         calculate D2E/DX2 analytically  !
 ! A81   A(26,27,28)           117.7814         calculate D2E/DX2 analytically  !
 ! A82   A(27,28,30)           120.9747         calculate D2E/DX2 analytically  !
 ! A83   A(27,28,44)           122.3776         calculate D2E/DX2 analytically  !
 ! A84   A(30,28,44)           116.6438         calculate D2E/DX2 analytically  !
 ! A85   A(25,29,30)           118.1158         calculate D2E/DX2 analytically  !
 ! A86   A(25,29,31)           121.3309         calculate D2E/DX2 analytically  !
 ! A87   A(30,29,31)           119.1017         calculate D2E/DX2 analytically  !
 ! A88   A(28,30,29)           113.0949         calculate D2E/DX2 analytically  !
 ! A89   A(28,30,43)            58.8041         calculate D2E/DX2 analytically  !
 ! A90   A(28,30,46)           113.2162         calculate D2E/DX2 analytically  !
 ! A91   A(29,30,43)           121.5321         calculate D2E/DX2 analytically  !
 ! A92   A(29,30,46)           120.8128         calculate D2E/DX2 analytically  !
 ! A93   A(43,30,46)           113.1779         calculate D2E/DX2 analytically  !
 ! A94   A(30,43,45)            74.7934         calculate D2E/DX2 analytically  !
 ! D1    D(5,1,2,3)             -3.4801         calculate D2E/DX2 analytically  !
 ! D2    D(5,1,2,18)          -168.6143         calculate D2E/DX2 analytically  !
 ! D3    D(15,1,2,3)           170.2183         calculate D2E/DX2 analytically  !
 ! D4    D(15,1,2,18)            5.0841         calculate D2E/DX2 analytically  !
 ! D5    D(2,1,5,6)              4.6383         calculate D2E/DX2 analytically  !
 ! D6    D(2,1,5,35)          -178.4666         calculate D2E/DX2 analytically  !
 ! D7    D(15,1,5,6)          -167.634          calculate D2E/DX2 analytically  !
 ! D8    D(15,1,5,35)            9.2612         calculate D2E/DX2 analytically  !
 ! D9    D(2,1,15,16)           -1.8609         calculate D2E/DX2 analytically  !
 ! D10   D(2,1,15,34)         -179.7489         calculate D2E/DX2 analytically  !
 ! D11   D(5,1,15,16)          170.4793         calculate D2E/DX2 analytically  !
 ! D12   D(5,1,15,34)           -7.4087         calculate D2E/DX2 analytically  !
 ! D13   D(1,2,3,4)             -2.1056         calculate D2E/DX2 analytically  !
 ! D14   D(1,2,3,7)           -166.4824         calculate D2E/DX2 analytically  !
 ! D15   D(18,2,3,4)           165.3932         calculate D2E/DX2 analytically  !
 ! D16   D(18,2,3,7)             1.0164         calculate D2E/DX2 analytically  !
 ! D17   D(1,2,18,11)          165.6357         calculate D2E/DX2 analytically  !
 ! D18   D(1,2,18,17)           -5.178          calculate D2E/DX2 analytically  !
 ! D19   D(3,2,18,11)           -1.0309         calculate D2E/DX2 analytically  !
 ! D20   D(3,2,18,17)         -171.8446         calculate D2E/DX2 analytically  !
 ! D21   D(2,3,4,6)              6.2177         calculate D2E/DX2 analytically  !
 ! D22   D(2,3,4,10)          -167.4856         calculate D2E/DX2 analytically  !
 ! D23   D(7,3,4,6)            167.9296         calculate D2E/DX2 analytically  !
 ! D24   D(7,3,4,10)            -5.7737         calculate D2E/DX2 analytically  !
 ! D25   D(2,3,7,8)            163.4007         calculate D2E/DX2 analytically  !
 ! D26   D(2,3,7,11)            -0.5851         calculate D2E/DX2 analytically  !
 ! D27   D(4,3,7,8)             -0.856          calculate D2E/DX2 analytically  !
 ! D28   D(4,3,7,11)          -164.8418         calculate D2E/DX2 analytically  !
 ! D29   D(3,4,6,5)             -4.8727         calculate D2E/DX2 analytically  !
 ! D30   D(3,4,6,36)           178.0345         calculate D2E/DX2 analytically  !
 ! D31   D(10,4,6,5)           167.3745         calculate D2E/DX2 analytically  !
 ! D32   D(10,4,6,36)           -9.7184         calculate D2E/DX2 analytically  !
 ! D33   D(3,4,10,9)             5.985          calculate D2E/DX2 analytically  !
 ! D34   D(3,4,10,37)         -177.1608         calculate D2E/DX2 analytically  !
 ! D35   D(6,4,10,9)          -166.2912         calculate D2E/DX2 analytically  !
 ! D36   D(6,4,10,37)           10.5631         calculate D2E/DX2 analytically  !
 ! D37   D(1,5,6,4)             -0.4413         calculate D2E/DX2 analytically  !
 ! D38   D(1,5,6,36)           176.6861         calculate D2E/DX2 analytically  !
 ! D39   D(35,5,6,4)          -177.3592         calculate D2E/DX2 analytically  !
 ! D40   D(35,5,6,36)           -0.2319         calculate D2E/DX2 analytically  !
 ! D41   D(3,7,8,9)              7.0219         calculate D2E/DX2 analytically  !
 ! D42   D(3,7,8,14)          -164.9474         calculate D2E/DX2 analytically  !
 ! D43   D(11,7,8,9)           167.9817         calculate D2E/DX2 analytically  !
 ! D44   D(11,7,8,14)           -3.9876         calculate D2E/DX2 analytically  !
 ! D45   D(3,7,11,12)          164.7277         calculate D2E/DX2 analytically  !
 ! D46   D(3,7,11,18)           -0.0495         calculate D2E/DX2 analytically  !
 ! D47   D(8,7,11,12)            1.8154         calculate D2E/DX2 analytically  !
 ! D48   D(8,7,11,18)         -162.9618         calculate D2E/DX2 analytically  !
 ! D49   D(7,8,9,10)            -6.6683         calculate D2E/DX2 analytically  !
 ! D50   D(7,8,9,38)           176.6373         calculate D2E/DX2 analytically  !
 ! D51   D(14,8,9,10)          163.6948         calculate D2E/DX2 analytically  !
 ! D52   D(14,8,9,38)          -12.9997         calculate D2E/DX2 analytically  !
 ! D53   D(7,8,14,13)            3.9375         calculate D2E/DX2 analytically  !
 ! D54   D(7,8,14,39)          178.0248         calculate D2E/DX2 analytically  !
 ! D55   D(9,8,14,13)         -166.4004         calculate D2E/DX2 analytically  !
 ! D56   D(9,8,14,39)            7.687          calculate D2E/DX2 analytically  !
 ! D57   D(8,9,10,4)             0.1434         calculate D2E/DX2 analytically  !
 ! D58   D(8,9,10,37)         -176.7414         calculate D2E/DX2 analytically  !
 ! D59   D(38,9,10,4)          176.8471         calculate D2E/DX2 analytically  !
 ! D60   D(38,9,10,37)          -0.0377         calculate D2E/DX2 analytically  !
 ! D61   D(7,11,12,13)           0.4397         calculate D2E/DX2 analytically  !
 ! D62   D(7,11,12,20)        -174.7148         calculate D2E/DX2 analytically  !
 ! D63   D(18,11,12,13)        160.8676         calculate D2E/DX2 analytically  !
 ! D64   D(18,11,12,20)        -14.2869         calculate D2E/DX2 analytically  !
 ! D65   D(7,11,18,2)            0.6584         calculate D2E/DX2 analytically  !
 ! D66   D(7,11,18,17)         169.7735         calculate D2E/DX2 analytically  !
 ! D67   D(12,11,18,2)        -161.5513         calculate D2E/DX2 analytically  !
 ! D68   D(12,11,18,17)          7.5639         calculate D2E/DX2 analytically  !
 ! D69   D(11,12,13,14)         -0.243          calculate D2E/DX2 analytically  !
 ! D70   D(11,12,13,19)       -174.6875         calculate D2E/DX2 analytically  !
 ! D71   D(20,12,13,14)        175.0115         calculate D2E/DX2 analytically  !
 ! D72   D(20,12,13,19)          0.567          calculate D2E/DX2 analytically  !
 ! D73   D(11,12,20,21)        170.6856         calculate D2E/DX2 analytically  !
 ! D74   D(11,12,20,27)        -12.6836         calculate D2E/DX2 analytically  !
 ! D75   D(13,12,20,21)         -4.2206         calculate D2E/DX2 analytically  !
 ! D76   D(13,12,20,27)        172.4102         calculate D2E/DX2 analytically  !
 ! D77   D(12,13,14,8)          -2.1058         calculate D2E/DX2 analytically  !
 ! D78   D(12,13,14,39)       -176.3808         calculate D2E/DX2 analytically  !
 ! D79   D(19,13,14,8)         172.2158         calculate D2E/DX2 analytically  !
 ! D80   D(19,13,14,39)         -2.0592         calculate D2E/DX2 analytically  !
 ! D81   D(12,13,19,22)          3.3936         calculate D2E/DX2 analytically  !
 ! D82   D(12,13,19,40)       -179.5185         calculate D2E/DX2 analytically  !
 ! D83   D(14,13,19,22)       -171.1969         calculate D2E/DX2 analytically  !
 ! D84   D(14,13,19,40)          5.891          calculate D2E/DX2 analytically  !
 ! D85   D(1,15,16,17)          -1.0342         calculate D2E/DX2 analytically  !
 ! D86   D(1,15,16,23)        -178.5966         calculate D2E/DX2 analytically  !
 ! D87   D(34,15,16,17)        176.9112         calculate D2E/DX2 analytically  !
 ! D88   D(34,15,16,23)         -0.6512         calculate D2E/DX2 analytically  !
 ! D89   D(15,16,17,18)          1.1569         calculate D2E/DX2 analytically  !
 ! D90   D(15,16,17,26)        179.0826         calculate D2E/DX2 analytically  !
 ! D91   D(23,16,17,18)        178.784          calculate D2E/DX2 analytically  !
 ! D92   D(23,16,17,26)         -3.2903         calculate D2E/DX2 analytically  !
 ! D93   D(15,16,23,24)       -177.3845         calculate D2E/DX2 analytically  !
 ! D94   D(15,16,23,33)          1.4325         calculate D2E/DX2 analytically  !
 ! D95   D(17,16,23,24)          4.9023         calculate D2E/DX2 analytically  !
 ! D96   D(17,16,23,33)       -176.2808         calculate D2E/DX2 analytically  !
 ! D97   D(16,17,18,2)           1.6568         calculate D2E/DX2 analytically  !
 ! D98   D(16,17,18,11)       -166.3012         calculate D2E/DX2 analytically  !
 ! D99   D(26,17,18,2)        -176.2464         calculate D2E/DX2 analytically  !
 ! D100  D(26,17,18,11)         15.7956         calculate D2E/DX2 analytically  !
 ! D101  D(16,17,26,25)         -4.7349         calculate D2E/DX2 analytically  !
 ! D102  D(16,17,26,27)        173.3779         calculate D2E/DX2 analytically  !
 ! D103  D(18,17,26,25)        173.0185         calculate D2E/DX2 analytically  !
 ! D104  D(18,17,26,27)         -8.8687         calculate D2E/DX2 analytically  !
 ! D105  D(13,19,22,21)         -3.6258         calculate D2E/DX2 analytically  !
 ! D106  D(13,19,22,41)        176.4725         calculate D2E/DX2 analytically  !
 ! D107  D(40,19,22,21)        179.3306         calculate D2E/DX2 analytically  !
 ! D108  D(40,19,22,41)         -0.5711         calculate D2E/DX2 analytically  !
 ! D109  D(12,20,21,22)          4.1718         calculate D2E/DX2 analytically  !
 ! D110  D(12,20,21,42)       -175.1239         calculate D2E/DX2 analytically  !
 ! D111  D(27,20,21,22)       -172.6891         calculate D2E/DX2 analytically  !
 ! D112  D(27,20,21,42)          8.0152         calculate D2E/DX2 analytically  !
 ! D113  D(12,20,27,26)         38.6902         calculate D2E/DX2 analytically  !
 ! D114  D(12,20,27,28)       -146.9086         calculate D2E/DX2 analytically  !
 ! D115  D(21,20,27,26)       -144.7142         calculate D2E/DX2 analytically  !
 ! D116  D(21,20,27,28)         29.6871         calculate D2E/DX2 analytically  !
 ! D117  D(20,21,22,19)         -0.3295         calculate D2E/DX2 analytically  !
 ! D118  D(20,21,22,41)        179.5736         calculate D2E/DX2 analytically  !
 ! D119  D(42,21,22,19)        178.9812         calculate D2E/DX2 analytically  !
 ! D120  D(42,21,22,41)         -1.1156         calculate D2E/DX2 analytically  !
 ! D121  D(16,23,24,25)          1.8216         calculate D2E/DX2 analytically  !
 ! D122  D(16,23,24,32)        177.7872         calculate D2E/DX2 analytically  !
 ! D123  D(33,23,24,25)       -176.9735         calculate D2E/DX2 analytically  !
 ! D124  D(33,23,24,32)         -1.0078         calculate D2E/DX2 analytically  !
 ! D125  D(23,24,25,26)        -10.2028         calculate D2E/DX2 analytically  !
 ! D126  D(23,24,25,29)        167.7704         calculate D2E/DX2 analytically  !
 ! D127  D(32,24,25,26)        173.7274         calculate D2E/DX2 analytically  !
 ! D128  D(32,24,25,29)         -8.2993         calculate D2E/DX2 analytically  !
 ! D129  D(24,25,26,17)         11.2154         calculate D2E/DX2 analytically  !
 ! D130  D(24,25,26,27)       -167.0788         calculate D2E/DX2 analytically  !
 ! D131  D(29,25,26,17)       -166.6788         calculate D2E/DX2 analytically  !
 ! D132  D(29,25,26,27)         15.0271         calculate D2E/DX2 analytically  !
 ! D133  D(24,25,29,30)       -164.4611         calculate D2E/DX2 analytically  !
 ! D134  D(24,25,29,31)          1.6651         calculate D2E/DX2 analytically  !
 ! D135  D(26,25,29,30)         13.429          calculate D2E/DX2 analytically  !
 ! D136  D(26,25,29,31)        179.5552         calculate D2E/DX2 analytically  !
 ! D137  D(17,26,27,20)        -24.0859         calculate D2E/DX2 analytically  !
 ! D138  D(17,26,27,28)        161.724          calculate D2E/DX2 analytically  !
 ! D139  D(25,26,27,20)        154.0358         calculate D2E/DX2 analytically  !
 ! D140  D(25,26,27,28)        -20.1544         calculate D2E/DX2 analytically  !
 ! D141  D(20,27,28,30)       -176.7088         calculate D2E/DX2 analytically  !
 ! D142  D(20,27,28,44)          4.0359         calculate D2E/DX2 analytically  !
 ! D143  D(26,27,28,30)         -1.6507         calculate D2E/DX2 analytically  !
 ! D144  D(26,27,28,44)        179.094          calculate D2E/DX2 analytically  !
 ! D145  D(27,28,30,29)         28.6656         calculate D2E/DX2 analytically  !
 ! D146  D(27,28,30,43)        -85.3155         calculate D2E/DX2 analytically  !
 ! D147  D(27,28,30,46)        170.7429         calculate D2E/DX2 analytically  !
 ! D148  D(44,28,30,29)       -152.0381         calculate D2E/DX2 analytically  !
 ! D149  D(44,28,30,43)         93.9808         calculate D2E/DX2 analytically  !
 ! D150  D(44,28,30,46)         -9.9608         calculate D2E/DX2 analytically  !
 ! D151  D(25,29,30,28)        -33.8615         calculate D2E/DX2 analytically  !
 ! D152  D(25,29,30,43)         32.6233         calculate D2E/DX2 analytically  !
 ! D153  D(25,29,30,46)       -172.7397         calculate D2E/DX2 analytically  !
 ! D154  D(31,29,30,28)        159.6954         calculate D2E/DX2 analytically  !
 ! D155  D(31,29,30,43)       -133.8198         calculate D2E/DX2 analytically  !
 ! D156  D(31,29,30,46)         20.8172         calculate D2E/DX2 analytically  !
 ! D157  D(28,30,43,45)       -176.105          calculate D2E/DX2 analytically  !
 ! D158  D(29,30,43,45)         84.3125         calculate D2E/DX2 analytically  !
 ! D159  D(46,30,43,45)        -72.0975         calculate D2E/DX2 analytically  !
 --------------------------------------------------------------------------------
 Trust Radius=3.00D-01 FncErr=1.00D-07 GrdErr=1.00D-06 EigMax=2.50D+02 EigMin=1.00D-04
 Number of steps in this run=    276 maximum allowed number of steps=    276.
 Search for a saddle point of order  1.
 GradGradGradGradGradGradGradGradGradGradGradGradGradGradGradGradGradGrad

                          Input orientation:                          
 ---------------------------------------------------------------------
 Center     Atomic      Atomic             Coordinates (Angstroms)
 Number     Number       Type             X           Y           Z
 ---------------------------------------------------------------------
      1          6           0       -1.592450   -2.805340   -0.033850
      2          6           0       -1.441960   -1.463850    0.306100
      3          6           0       -2.539940   -0.602250    0.433440
      4          6           0       -3.849260   -0.962110    0.202620
      5          6           0       -2.961680   -3.242610   -0.163000
      6          6           0       -4.037140   -2.368650   -0.055640
      7          6           0       -2.055560    0.714470    0.470640
      8          6           0       -2.893730    1.811180    0.250750
      9          6           0       -4.305760    1.472370    0.146810
     10          6           0       -4.758560    0.168190    0.122460
     11          6           0       -0.654240    0.691360    0.380970
     12          6           0        0.027890    1.865920    0.077550
     13          6           0       -0.803750    3.052610   -0.115830
     14          6           0       -2.222560    3.014690   -0.007320
     15          6           0       -0.366850   -3.454580   -0.327530
     16          6           0        0.852120   -2.754800   -0.304210
     17          6           0        0.951080   -1.327500   -0.003860
     18          6           0       -0.256280   -0.708250    0.285000
     19          6           0       -0.157480    4.247720   -0.540840
     20          6           0        1.448940    1.911450   -0.142560
     21          6           0        1.973370    3.099940   -0.629990
     22          6           0        1.181470    4.251640   -0.822780
     23          6           0        2.077350   -3.438710   -0.637660
     24          6           0        3.275240   -2.817220   -0.577170
     25          6           0        3.417380   -1.442550   -0.139470
     26          6           0        2.217200   -0.638160    0.032320
     27          6           0        2.408140    0.790560    0.186060
     28          6           0        3.670500    1.240160    0.586160
     29          6           0        4.675950   -0.961570    0.137840
     30          6           0        4.784390    0.264980    0.884160
     31          1           0        5.556570   -1.580190    0.009610
     32          1           0        4.184500   -3.366250   -0.799020
     33          1           0        2.020170   -4.484240   -0.924160
     34          1           0       -0.347220   -4.502650   -0.611020
     35          1           0       -3.163980   -4.282020   -0.401420
     36          1           0       -5.037540   -2.756760   -0.217760
     37          1           0       -5.821160   -0.008820   -0.010720
     38          1           0       -5.028540    2.273790    0.031280
     39          1           0       -2.771290    3.926520   -0.224470
     40          1           0       -0.752100    5.143800   -0.683680
     41          1           0        1.655750    5.151790   -1.200940
     42          1           0        3.021860    3.162120   -0.887370
     43          1           0        3.931000    0.580800    1.771470
     44          1           0        3.898660    2.288490    0.709670
     45          1           0        4.630430   -0.059020    2.269570
     46          1           0        5.748260    0.746230    1.027200
 ---------------------------------------------------------------------
                    Distance matrix (angstroms):
                    1          2          3          4          5
     1  C    0.000000
     2  C    1.392052   0.000000
     3  C    2.443298   1.401474   0.000000
     4  C    2.923458   2.461208   1.377351   0.000000
     5  C    1.443148   2.386125   2.739545   2.474299   0.000000
     6  C    2.483482   2.772089   2.366638   1.442343   1.389945
     7  C    3.585811   2.269065   1.403481   2.469841   4.108654
     8  C    4.804850   3.582809   2.446055   2.933682   5.071154
     9  C    5.068875   4.104645   2.739402   2.477539   4.912593
    10  C    4.346328   3.700961   2.369084   1.452870   3.865724
    11  C    3.644067   2.295874   2.287366   3.601933   4.593071
    12  C    4.945562   3.646925   3.579423   4.800592   5.923890
    13  C    5.911374   4.580802   4.083388   5.049210   6.654974
    14  C    5.854100   4.556851   3.657493   4.301763   6.302725
    15  C    1.417694   2.349543   3.665676   4.315165   2.608667
    16  C    2.459994   2.702190   4.084565   5.057034   3.847463
    17  C    2.941846   2.416880   3.592275   4.818652   4.359204
    18  C    2.506951   1.406134   2.290933   3.602879   3.734016
    19  C    7.215389   5.915169   5.490678   6.428398   8.006956
    20  C    5.613375   4.466682   4.749908   6.037170   6.783680
    21  C    6.924073   5.776584   5.933554   7.148182   8.049891
    22  C    7.623517   6.389333   6.243975   7.317300   8.588643
    23  C    3.772688   4.144430   5.523778   6.477988   5.065134
    24  C    4.897933   4.986357   6.304264   7.403243   6.265115
    25  C    5.192952   4.879772   6.043508   7.290535   6.628211
    26  C    4.383433   3.761140   4.774156   6.077490   5.800182
    27  C    5.383640   4.463188   5.146320   6.498244   6.724825
    28  C    6.667018   5.790281   6.479766   7.844991   8.040042
    29  C    6.536192   6.140800   7.230875   8.525456   7.976656
    30  C    7.136785   6.487715   7.389252   8.747009   8.567458
    31  H    7.253369   7.005774   8.166362   9.428092   8.680669
    32  H    5.854337   6.041313   7.374059   8.445382   7.175493
    33  H    4.081958   4.756326   6.140646   6.937236   5.190360
    34  H    2.182793   3.357658   4.594784   5.045961   2.936635
    35  H    2.187555   3.377576   3.824542   3.443294   1.085423
    36  H    3.450337   3.856714   3.362139   2.193057   2.132661
    37  H    5.069817   4.625460   3.363903   2.200606   4.319400
    38  H    6.132578   5.187392   3.824457   3.448349   5.894092
    39  H    6.836954   5.577160   4.582153   5.024254   7.171921
    40  H    8.019806   6.716890   6.120573   6.903627   8.688223
    41  H    8.673455   7.458798   7.306435   8.345950   9.636593
    42  H    7.591504   6.538322   6.844607   8.087623   8.794773
    43  H    6.725595   5.932672   6.712898   8.085438   8.116014
    44  H    7.526767   6.539507   7.063162   8.417468   8.855444
    45  H    7.181382   6.534729   7.421636   8.774565   8.584450
    46  H    8.223472   7.556699   8.418148   9.783187   9.653521
                    6          7          8          9         10
     6  C    0.000000
     7  C    3.702602   0.000000
     8  C    4.344219   1.397732   0.000000
     9  C    3.855720   2.396389   1.455824   0.000000
    10  C    2.643430   2.779543   2.488667   1.380763   0.000000
    11  C    4.582390   1.404376   2.507243   3.741444   4.145597
    12  C    5.871439   2.412700   2.927261   4.352034   5.078820
    13  C    6.312566   2.716224   2.458362   3.851001   4.900733
    14  C    5.681143   2.355281   1.401965   2.596580   3.814538
    15  C    3.837212   4.568347   5.869221   6.325729   5.710873
    16  C    4.910780   4.592475   5.931909   6.684019   6.340792
    17  C    5.095980   3.665334   4.969779   5.957881   5.903646
    18  C    4.143412   2.301305   3.647580   4.601357   4.589672
    19  C    7.685280   4.136382   3.748387   5.038220   6.184858
    20  C    6.958727   3.753704   4.361597   5.778676   6.453080
    21  C    8.146262   4.809795   5.111288   6.532984   7.381072
    22  C    8.464670   4.966173   4.869863   6.226888   7.269938
    23  C    6.234642   5.963068   7.284384   8.091860   7.766413
    24  C    7.344665   6.479828   7.756528   8.740497   8.599075
    25  C    7.512294   5.914224   7.111198   8.259879   8.337211
    26  C    6.489923   4.503133   5.671735   6.856854   7.022788
    27  C    7.181968   4.473410   5.399600   6.748545   7.193954
    28  C    8.534819   5.751301   6.597551   7.991725   8.509594
    29  C    8.828094   6.945005   8.062316   9.305657   9.501925
    30  C    9.254114   6.867165   7.857829   9.199582   9.573790
    31  H    9.626276   7.963827   9.108628  10.324849  10.462862
    32  H    8.315238   7.563244   8.832278   9.817910   9.660213
    33  H    6.474647   6.751565   8.072121   8.754746   8.288046
    34  H    4.298594   5.595244   6.862347   7.207302   6.466426
    35  H    2.131421   5.191724   6.133959   5.892132   4.756207
    36  H    1.085225   4.627692   5.067692   4.307430   2.957856
    37  H    2.958639   3.864531   3.456966   2.124895   1.085444
    38  H    4.747913   3.385724   2.195356   1.085372   2.124795
    39  H    6.423398   3.363438   2.171518   2.918099   4.265518
    40  H    8.223310   4.759246   4.070147   5.176641   6.438810
    41  H    9.501459   6.021446   5.827937   7.134015   8.229886
    42  H    9.006146   5.797877   6.173699   7.590705   8.397518
    43  H    8.690733   6.127718   7.099533   8.442667   8.854261
    44  H    9.233178   6.163393   6.824587   8.264101   8.932410
    45  H    9.266486   6.966843   8.011633   9.311646   9.634046
    46  H   10.326135   7.823706   8.741910  10.118581  10.561532
                   11         12         13         14         15
    11  C    0.000000
    12  C    1.391746   0.000000
    13  C    2.417574   1.461935   0.000000
    14  C    2.829887   2.528122   1.423459   0.000000
    15  C    4.215849   5.350479   6.525275   6.737778   0.000000
    16  C    3.822906   4.709156   6.041805   6.544373   1.405747
    17  C    2.607862   3.325183   4.719887   5.378347   2.523127
    18  C    1.458249   2.598103   3.821578   4.220425   2.815981
    19  C    3.707317   2.467740   1.423582   2.463648   7.708097
    20  C    2.487181   1.438716   2.525386   3.836058   5.667944
    21  C    3.705082   2.410044   2.824712   4.242737   6.966336
    22  C    4.182635   2.798750   2.424572   3.712471   7.875811
    23  C    5.055360   5.731571   7.121115   7.780291   2.463848
    24  C    5.354342   5.736353   7.162814   8.035030   3.705856
    25  C    4.626286   4.741489   6.166438   7.189811   4.289992
    26  C    3.183449   3.326491   4.771779   5.749465   3.839144
    27  C    3.070179   2.614147   3.940082   5.140772   5.097603
    28  C    4.364248   3.730800   4.878184   6.182987   6.259042
    29  C    5.585894   5.440845   6.797433   7.963740   5.644599
    30  C    5.478476   5.083101   6.324411   7.579775   6.468276
    31  H    6.623595   6.515105   7.869704   9.034826   6.222050
    32  H    6.424172   6.739539   8.157889   9.077092   4.576559
    33  H    5.970148   6.730315   8.089007   8.664601   2.667214
    34  H    5.296796   6.416660   7.585222   7.771213   1.085911
    35  H    5.625428   6.943674   7.710321   7.367738   2.917885
    36  H    5.609040   6.864034   7.189169   6.424798   4.723806
    37  H    5.228837   6.142787   5.878589   4.700164   6.459344
    38  H    4.664855   5.073064   4.298494   2.902404   7.394209
    39  H    3.913402   3.488939   2.155629   1.086137   7.763542
    40  H    4.579004   3.454324   2.167532   2.674477   8.614372
    41  H    5.266301   3.883479   3.410742   4.586198   8.883882
    42  H    4.607283   3.402214   3.904172   5.319790   7.455032
    43  H    4.792717   4.444678   5.664769   6.852315   6.257924
    44  H    4.836090   3.944744   4.835079   6.205705   7.228638
    45  H    5.661945   5.449194   6.700947   7.848273   6.576288
    46  H    6.435265   5.905775   7.039513   8.351653   7.541662
                   16         17         18         19         20
    16  C    0.000000
    17  C    1.461913   0.000000
    18  C    2.400851   1.387310   0.000000
    19  C    7.078882   5.709670   5.025277   0.000000
    20  C    4.707039   3.279924   3.154903   2.863105   0.000000
    21  C    5.970035   4.586866   4.506757   2.421955   1.387488
    22  C    7.033320   5.643626   5.281554   1.368317   2.451679
    23  C    1.442259   2.475357   3.708442   8.005314   5.409643
    24  C    2.439245   2.819516   4.202704   7.854824   5.087689
    25  C    2.886122   2.472703   3.770298   6.732005   3.888969
    26  C    2.541035   1.442067   2.487341   5.462549   2.668580
    27  C    3.902709   2.577842   3.058652   4.366090   1.511440
    28  C    4.969480   3.786324   4.393928   4.996897   2.432487
    29  C    4.246499   3.745483   4.940923   7.138582   4.329718
    30  C    5.098435   4.244860   5.168609   6.504992   3.858788
    31  H    4.859017   4.612437   5.884330   8.180336   5.393267
    32  H    3.423955   3.904329   5.287777   8.768808   5.980664
    33  H    2.177072   3.457588   4.571913   9.007565   6.468543
    34  H    2.141852   3.483648   3.899820   8.752708   6.677299
    35  H    4.297780   5.081433   4.658082   9.045161   7.726908
    36  H    5.890295   6.160528   5.225860   8.542957   7.992012
    37  H    7.222133   6.899435   5.616453   7.104677   7.520583
    38  H    7.744768   6.980428   5.633063   5.286865   6.489935
    39  H    7.601019   6.442781   5.297729   2.652407   4.677345
    40  H    8.068792   6.726121   5.952367   1.084867   3.947844
    41  H    7.997757   6.626519   6.340658   2.130934   3.415076
    42  H    6.329122   5.022490   5.205806   3.377397   2.143127
    43  H    4.991410   3.958956   4.626506   5.958922   3.405108
    44  H    5.978640   4.719400   5.140459   4.674893   2.620989
    45  H    5.307278   4.507232   5.314128   7.026414   4.452303
    46  H    6.164580   5.326948   6.222610   7.042510   4.605456
                   21         22         23         24         25
    21  C    0.000000
    22  C    1.410917   0.000000
    23  C    6.539481   7.744569   0.000000
    24  C    6.058914   7.376515   1.350870   0.000000
    25  C    4.791658   6.155486   2.455306   1.449656   0.000000
    26  C    3.804142   5.070905   2.882969   2.497845   1.454987
    27  C    2.487609   3.808090   4.321419   3.788200   2.472107
    28  C    2.796078   4.153239   5.091924   4.239328   2.790617
    29  C    4.938559   6.349153   3.672920   2.432420   1.375588
    30  C    4.269834   5.638097   4.833355   3.730010   2.414993
    31  H    5.928915   7.337889   3.997252   2.660643   2.148791
    32  H    6.835882   8.188468   2.114561   1.085083   2.173500
    33  H    7.590027   8.776633   1.085580   2.115315   3.437995
    34  H    7.948891   8.889282   2.647870   3.995502   4.874298
    35  H    8.996552   9.585606   5.313993   6.606064   7.172552
    36  H    9.144601   9.389345   7.159821   8.320766   8.556807
    37  H    8.414427   8.236977   8.633867   9.536900   9.350015
    38  H    7.081423   6.573092   9.141871   9.759168   9.228971
    39  H    4.833165   4.010984   8.827607   9.064378   8.193520
    40  H    3.407115   2.134008   9.037001   8.922368   7.814137
    41  H    2.153359   1.085457   8.619265   8.155793   6.907632
    42  H    1.081407   2.139687   6.672736   5.992740   4.681749
    43  H    3.993168   5.269261   5.039483   4.182424   2.830096
    44  H    2.481911   3.685849   6.159001   5.302158   3.856595
    45  H    5.044447   6.327697   5.137364   4.189050   3.031356
    46  H    4.747212   6.046974   5.810427   4.624717   3.403657
                   26         27         28         29         30
    26  C    0.000000
    27  C    1.449598   0.000000
    28  C    2.438628   1.398490   0.000000
    29  C    2.482172   2.866225   2.461612   0.000000
    30  C    2.851624   2.531826   1.510143   1.439853   0.000000
    31  H    3.469774   3.945149   3.441518   1.083801   2.183060
    32  H    3.464660   4.626544   4.837554   2.627112   4.047072
    33  H    3.968124   5.404315   6.146008   4.537644   5.784983
    34  H    4.682352   6.020417   7.110217   6.191306   7.162352
    35  H    6.513290   7.558090   8.841940   8.531160   9.246865
    36  H    7.561895   8.257403   9.615176   9.884384  10.335156
    37  H    8.063073   8.270375   9.592071  10.541305  10.646759
    38  H    7.808982   7.584731   8.777789  10.230153  10.052677
    39  H    6.766630   6.068713   7.026401   8.915496   8.469016
    40  H    6.539148   5.449244   6.034094   8.210613   7.544119
    41  H    5.946400   4.637908   4.749083   6.948893   6.165788
    42  H    3.991921   2.674547   2.507181   4.559812   3.825997
    43  H    2.729032   2.208309   1.381150   2.366982   1.270959
    44  H    3.442585   2.177065   1.079957   3.390289   2.215752
    45  H    3.341313   3.162495   2.333067   2.315371   1.431098
    46  H    3.921059   3.444689   2.180727   2.203949   1.086788
                   31         32         33         34         35
    31  H    0.000000
    32  H    2.393004   0.000000
    33  H    4.670285   2.439239   0.000000
    34  H    6.616698   4.675814   2.388081   0.000000
    35  H    9.138754   7.415988   5.214361   2.833151   0.000000
    36  H   10.661669   9.260419   7.300305   5.020148   2.422886
    37  H   11.485746  10.583335   9.074702   7.107664   5.047127
    38  H   11.264909  10.834185   9.811633   8.261201   6.829528
    39  H    9.986586  10.094435   9.705078   8.779319   8.219832
    40  H    9.246189   9.838916  10.022099   9.655216   9.733597
    41  H    7.874096   8.894556   9.646890   9.877657  10.623832
    42  H    5.451498   6.631678   7.711780   8.377098   9.691026
    43  H    3.227461   4.717084   6.047505   7.058391   8.871708
    44  H    4.266783   5.859517   7.215816   8.117346   9.710150
    45  H    2.877345   4.533527   6.049458   7.267781   9.258550
    46  H    2.546461   4.763708   6.712993   8.209104  10.332099
                   36         37         38         39         40
    36  H    0.000000
    37  H    2.864978   0.000000
    38  H    5.036719   2.416675   0.000000
    39  H    7.057065   4.983402   2.809289   0.000000
    40  H    9.000051   7.259321   5.199622   2.402035   0.000000
    41  H   10.407302   9.162571   7.381123   4.696112   2.462796
    42  H   10.021749   9.435167   8.151196   5.880844   4.267472
    43  H    9.773999   9.931187   9.282663   7.752310   6.984279
    44  H   10.303899  10.013566   8.952951   6.931377   5.632387
    45  H   10.340902  10.697569  10.185659   8.768707   8.047525
    46  H   11.408521  11.640398  10.929992   9.179524   8.032460
                   41         42         43         44         45
    41  H    0.000000
    42  H    2.433797   0.000000
    43  H    5.908124   3.815649   0.000000
    44  H    4.108475   2.020531   2.011137   0.000000
    45  H    6.931501   4.788477   1.070829   2.911972   0.000000
    46  H    6.412660   4.115259   1.970720   2.429076   1.855116
                   46
    46  H    0.000000
 Stoichiometry    C30H16
 Framework group  C1[X(C30H16)]
 Deg. of freedom   132
 Full point group                 C1      NOp   1
 Largest Abelian subgroup         C1      NOp   1
 Largest concise Abelian subgroup C1      NOp   1
                         Standard orientation:                         
 ---------------------------------------------------------------------
 Center     Atomic      Atomic             Coordinates (Angstroms)
 Number     Number       Type             X           Y           Z
 ---------------------------------------------------------------------
      1          6           0       -1.588405   -2.807367   -0.033904
      2          6           0       -1.440090   -1.465736    0.306445
      3          6           0       -2.539471   -0.605976    0.434128
      4          6           0       -3.848216   -0.967911    0.203293
      5          6           0       -2.956926   -3.246841   -0.163089
      6          6           0       -4.033809   -2.374678   -0.055384
      7          6           0       -2.057247    0.711525    0.471695
      8          6           0       -2.897230    1.806927    0.252201
      9          6           0       -4.308710    1.465835    0.148260
     10          6           0       -4.759374    0.160922    0.123544
     11          6           0       -0.655898    0.690740    0.381916
     12          6           0        0.024284    1.866509    0.078806
     13          6           0       -0.809315    3.051893   -0.114151
     14          6           0       -2.228053    3.011614   -0.005550
     15          6           0       -0.361764   -3.454507   -0.327871
     16          6           0        0.856059   -2.752737   -0.304426
     17          6           0        0.952701   -1.325368   -0.003647
     18          6           0       -0.255651   -0.708187    0.285490
     19          6           0       -0.165036    4.248191   -0.538843
     20          6           0        1.445241    1.914436   -0.141393
     21          6           0        1.967686    3.103933   -0.628498
     22          6           0        1.173886    4.254392   -0.820879
     23          6           0        2.082384   -3.434535   -0.638174
     24          6           0        3.279258   -2.811101   -0.577581
     25          6           0        3.419177   -1.436334   -0.139471
     26          6           0        2.217692   -0.633965    0.032652
     27          6           0        2.406301    0.795019    0.186815
     28          6           0        3.667952    1.246566    0.586961
     29          6           0        4.676977   -0.953376    0.137895
     30          6           0        4.783460    0.273122    0.884582
     31          1           0        5.558600   -1.570512    0.009412
     32          1           0        4.189401   -3.358572   -0.799664
     33          1           0        2.026897   -4.480070   -0.924989
     34          1           0       -0.340437   -4.502457   -0.611683
     35          1           0       -3.157539   -4.286508   -0.401812
     36          1           0       -5.033584   -2.764378   -0.217550
     37          1           0       -5.821692   -0.017789   -0.009613
     38          1           0       -5.032812    2.266104    0.033027
     39          1           0       -2.778292    3.922610   -0.222382
     40          1           0       -0.761134    5.143338   -0.681366
     41          1           0        1.646662    5.155434   -1.198798
     42          1           0        3.016054    3.167910   -0.885935
     43          1           0        3.929619    0.587272    1.772050
     44          1           0        3.894402    2.295231    0.710774
     45          1           0        4.630133   -0.051553    2.269904
     46          1           0        5.746551    0.755908    1.027699
 ---------------------------------------------------------------------
 Rotational constants (GHZ):           0.2444490           0.1736630           0.1043838
 Standard basis: 6-311+G(d,p) (5D, 7F)
 There are   786 symmetry adapted cartesian basis functions of A   symmetry.
 There are   756 symmetry adapted basis functions of A   symmetry.
   756 basis functions,  1208 primitive gaussians,   786 cartesian basis functions
    98 alpha electrons       98 beta electrons
       nuclear repulsion energy      2631.7521131871 Hartrees.
 NAtoms=   46 NActive=   46 NUniq=   46 SFac= 1.00D+00 NAtFMM=   60 NAOKFM=F Big=F
 Integral buffers will be    131072 words long.
 Raffenetti 2 integral format.
 Two-electron integral symmetry is turned on.
 One-electron integrals computed using PRISM.
 NBasis=   756 RedAO= T EigKep=  1.15D-06  NBF=   756
 NBsUse=   734 1.00D-06 EigRej=  9.45D-07 NBFU=   734
 ExpMin= 4.38D-02 ExpMax= 4.56D+03 ExpMxC= 6.82D+02 IAcc=2 IRadAn=         4 AccDes= 0.00D+00
 Harris functional with IExCor=  402 and IRadAn=       4 diagonalized for initial guess.
 HarFok:  IExCor=  402 AccDes= 0.00D+00 IRadAn=         4 IDoV= 1 UseB2=F ITyADJ=14
 ICtDFT=  3500011 ScaDFX=  1.000000  1.000000  1.000000  1.000000
 FoFCou: FMM=F IPFlag=           0 FMFlag=      100000 FMFlg1=           0
         NFxFlg=           0 DoJE=T BraDBF=F KetDBF=T FulRan=T
         wScrn=  0.000000 ICntrl=       500 IOpCl=  0 I1Cent=   200000004 NGrid=           0
         NMat0=    1 NMatS0=      1 NMatT0=    0 NMatD0=    1 NMtDS0=    0 NMtDT0=    0
 Petite list used in FoFCou.
 Requested convergence on RMS density matrix=1.00D-08 within 128 cycles.
 Requested convergence on MAX density matrix=1.00D-06.
 Requested convergence on             energy=1.00D-06.
 No special actions if energy rises.
 SCF Done:  E(RB3LYP) =  -1152.94655507     A.U. after   20 cycles
            NFock= 20  Conv=0.51D-08     -V/T= 2.0044
 DoSCS=F DFT=T ScalE2(SS,OS)=  1.000000  1.000000
 Range of M.O.s used for correlation:     1   734
 NBasis=   756 NAE=    98 NBE=    98 NFC=     0 NFV=     0
 NROrb=    734 NOA=    98 NOB=    98 NVA=   636 NVB=   636

 **** Warning!!: The largest alpha MO coefficient is  0.13290839D+03


 **** Warning!!: The smallest alpha delta epsilon is  0.81645677D-01

 Symmetrizing basis deriv contribution to polar:
 IMax=3 JMax=2 DiffMx= 0.00D+00
 G2DrvN: will do    47 centers at a time, making    1 passes.
 Calling FoFCou, ICntrl=  3107 FMM=F I1Cent=   0 AccDes= 0.00D+00.
 End of G2Drv F.D. properties file   721 does not exist.
 End of G2Drv F.D. properties file   722 does not exist.
 End of G2Drv F.D. properties file   788 does not exist.
          IDoAtm=1111111111111111111111111111111111111111111111
          Differentiating once with respect to nuclear coordinates.
 CalDSu exits because no D1Ps are significant.
          There are   141 degrees of freedom in the 1st order CPHF.  IDoFFX=6 NUNeed=     0.
    135 vectors produced by pass  0 Test12= 6.23D-14 1.00D-09 XBig12= 3.08D-01 1.76D-01.
 AX will form   135 AO Fock derivatives at one time.
    135 vectors produced by pass  1 Test12= 6.23D-14 1.00D-09 XBig12= 7.50D-02 5.30D-02.
    135 vectors produced by pass  2 Test12= 6.23D-14 1.00D-09 XBig12= 9.98D-04 4.19D-03.
    135 vectors produced by pass  3 Test12= 6.23D-14 1.00D-09 XBig12= 5.42D-06 2.01D-04.
    135 vectors produced by pass  4 Test12= 6.23D-14 1.00D-09 XBig12= 1.73D-08 1.02D-05.
    135 vectors produced by pass  5 Test12= 6.23D-14 1.00D-09 XBig12= 8.53D-11 8.49D-07.
    109 vectors produced by pass  6 Test12= 6.23D-14 1.00D-09 XBig12= 1.22D-11 2.27D-07.
     87 vectors produced by pass  7 Test12= 6.23D-14 1.00D-09 XBig12= 1.76D-12 9.24D-08.
     39 vectors produced by pass  8 Test12= 6.23D-14 1.00D-09 XBig12= 5.79D-14 1.77D-08.
      6 vectors produced by pass  9 Test12= 6.23D-14 1.00D-09 XBig12= 6.85D-16 1.46D-09.
      3 vectors produced by pass 10 Test12= 6.23D-14 1.00D-09 XBig12= 4.68D-16 1.43D-09.
      1 vectors produced by pass 11 Test12= 6.23D-14 1.00D-09 XBig12= 2.42D-16 1.09D-09.
 InvSVY:  IOpt=1 It=  1 EMax= 1.11D-15
 Solved reduced A of dimension  1055 with   141 vectors.
 End of Minotr F.D. properties file   721 does not exist.
 End of Minotr F.D. properties file   722 does not exist.
 End of Minotr F.D. properties file   788 does not exist.

 **********************************************************************

            Population analysis using the SCF Density.

 **********************************************************************

 Orbital symmetries:
       Occupied  (A) (A) (A) (A) (A) (A) (A) (A) (A) (A) (A) (A)
                 (A) (A) (A) (A) (A) (A) (A) (A) (A) (A) (A) (A)
                 (A) (A) (A) (A) (A) (A) (A) (A) (A) (A) (A) (A)
                 (A) (A) (A) (A) (A) (A) (A) (A) (A) (A) (A) (A)
                 (A) (A) (A) (A) (A) (A) (A) (A) (A) (A) (A) (A)
                 (A) (A) (A) (A) (A) (A) (A) (A) (A) (A) (A) (A)
                 (A) (A) (A) (A) (A) (A) (A) (A) (A) (A) (A) (A)
                 (A) (A) (A) (A) (A) (A) (A) (A) (A) (A) (A) (A)
                 (A) (A)
       Virtual   (A) (A) (A) (A) (A) (A) (A) (A) (A) (A) (A) (A)
                 (A) (A) (A) (A) (A) (A) (A) (A) (A) (A) (A) (A)
                 (A) (A) (A) (A) (A) (A) (A) (A) (A) (A) (A) (A)
                 (A) (A) (A) (A) (A) (A) (A) (A) (A) (A) (A) (A)
                 (A) (A) (A) (A) (A) (A) (A) (A) (A) (A) (A) (A)
                 (A) (A) (A) (A) (A) (A) (A) (A) (A) (A) (A) (A)
                 (A) (A) (A) (A) (A) (A) (A) (A) (A) (A) (A) (A)
                 (A) (A) (A) (A) (A) (A) (A) (A) (A) (A) (A) (A)
                 (A) (A) (A) (A) (A) (A) (A) (A) (A) (A) (A) (A)
                 (A) (A) (A) (A) (A) (A) (A) (A) (A) (A) (A) (A)
                 (A) (A) (A) (A) (A) (A) (A) (A) (A) (A) (A) (A)
                 (A) (A) (A) (A) (A) (A) (A) (A) (A) (A) (A) (A)
                 (A) (A) (A) (A) (A) (A) (A) (A) (A) (A) (A) (A)
                 (A) (A) (A) (A) (A) (A) (A) (A) (A) (A) (A) (A)
                 (A) (A) (A) (A) (A) (A) (A) (A) (A) (A) (A) (A)
                 (A) (A) (A) (A) (A) (A) (A) (A) (A) (A) (A) (A)
                 (A) (A) (A) (A) (A) (A) (A) (A) (A) (A) (A) (A)
                 (A) (A) (A) (A) (A) (A) (A) (A) (A) (A) (A) (A)
                 (A) (A) (A) (A) (A) (A) (A) (A) (A) (A) (A) (A)
                 (A) (A) (A) (A) (A) (A) (A) (A) (A) (A) (A) (A)
                 (A) (A) (A) (A) (A) (A) (A) (A) (A) (A) (A) (A)
                 (A) (A) (A) (A) (A) (A) (A) (A) (A) (A) (A) (A)
                 (A) (A) (A) (A) (A) (A) (A) (A) (A) (A) (A) (A)
                 (A) (A) (A) (A) (A) (A) (A) (A) (A) (A) (A) (A)
                 (A) (A) (A) (A) (A) (A) (A) (A) (A) (A) (A) (A)
                 (A) (A) (A) (A) (A) (A) (A) (A) (A) (A) (A) (A)
                 (A) (A) (A) (A) (A) (A) (A) (A) (A) (A) (A) (A)
                 (A) (A) (A) (A) (A) (A) (A) (A) (A) (A) (A) (A)
                 (A) (A) (A) (A) (A) (A) (A) (A) (A) (A) (A) (A)
                 (A) (A) (A) (A) (A) (A) (A) (A) (A) (A) (A) (A)
                 (A) (A) (A) (A) (A) (A) (A) (A) (A) (A) (A) (A)
                 (A) (A) (A) (A) (A) (A) (A) (A) (A) (A) (A) (A)
                 (A) (A) (A) (A) (A) (A) (A) (A) (A) (A) (A) (A)
                 (A) (A) (A) (A) (A) (A) (A) (A) (A) (A) (A) (A)
                 (A) (A) (A) (A) (A) (A) (A) (A) (A) (A) (A) (A)
                 (A) (A) (A) (A) (A) (A) (A) (A) (A) (A) (A) (A)
                 (A) (A) (A) (A) (A) (A) (A) (A) (A) (A) (A) (A)
                 (A) (A) (A) (A) (A) (A) (A) (A) (A) (A) (A) (A)
                 (A) (A) (A) (A) (A) (A) (A) (A) (A) (A) (A) (A)
                 (A) (A) (A) (A) (A) (A) (A) (A) (A) (A) (A) (A)
                 (A) (A) (A) (A) (A) (A) (A) (A) (A) (A) (A) (A)
                 (A) (A) (A) (A) (A) (A) (A) (A) (A) (A) (A) (A)
                 (A) (A) (A) (A) (A) (A) (A) (A) (A) (A) (A) (A)
                 (A) (A) (A) (A) (A) (A) (A) (A) (A) (A) (A) (A)
                 (A) (A) (A) (A) (A) (A) (A) (A) (A) (A) (A) (A)
                 (A) (A) (A) (A) (A) (A) (A) (A) (A) (A) (A) (A)
                 (A) (A) (A) (A) (A) (A) (A) (A) (A) (A) (A) (A)
                 (A) (A) (A) (A) (A) (A) (A) (A) (A) (A) (A) (A)
                 (A) (A) (A) (A) (A) (A) (A) (A) (A) (A) (A) (A)
                 (A) (A) (A) (A) (A) (A) (A) (A) (A) (A) (A) (A)
                 (A) (A) (A) (A) (A) (A) (A) (A) (A) (A) (A) (A)
                 (A) (A) (A) (A) (A) (A) (A) (A) (A) (A) (A) (A)
                 (A) (A) (A) (A) (A) (A) (A) (A) (A) (A) (A) (A)
 The electronic state is 1-A.
 Alpha  occ. eigenvalues --  -10.26636 -10.22632 -10.20303 -10.19994 -10.19872
 Alpha  occ. eigenvalues --  -10.19675 -10.19520 -10.19249 -10.19170 -10.18955
 Alpha  occ. eigenvalues --  -10.18904 -10.18777 -10.18725 -10.18662 -10.18608
 Alpha  occ. eigenvalues --  -10.18504 -10.18398 -10.18364 -10.18317 -10.18312
 Alpha  occ. eigenvalues --  -10.18245 -10.18215 -10.17968 -10.17957 -10.17841
 Alpha  occ. eigenvalues --  -10.17174 -10.17050 -10.16149 -10.16061 -10.15977
 Alpha  occ. eigenvalues --   -0.91823  -0.90370  -0.87864  -0.86330  -0.84074
 Alpha  occ. eigenvalues --   -0.83179  -0.81348  -0.79885  -0.78521  -0.77249
 Alpha  occ. eigenvalues --   -0.76038  -0.74996  -0.72649  -0.71342  -0.70652
 Alpha  occ. eigenvalues --   -0.67299  -0.65793  -0.63625  -0.63392  -0.62466
 Alpha  occ. eigenvalues --   -0.61164  -0.59015  -0.58347  -0.56887  -0.55941
 Alpha  occ. eigenvalues --   -0.53895  -0.52488  -0.52249  -0.51388  -0.50277
 Alpha  occ. eigenvalues --   -0.49717  -0.48591  -0.47708  -0.47102  -0.45531
 Alpha  occ. eigenvalues --   -0.45047  -0.44761  -0.44425  -0.43454  -0.43303
 Alpha  occ. eigenvalues --   -0.42671  -0.42322  -0.41604  -0.40810  -0.40342
 Alpha  occ. eigenvalues --   -0.39696  -0.39573  -0.39293  -0.39130  -0.37927
 Alpha  occ. eigenvalues --   -0.36816  -0.35802  -0.35246  -0.34636  -0.34005
 Alpha  occ. eigenvalues --   -0.33650  -0.33578  -0.32904  -0.32104  -0.30164
 Alpha  occ. eigenvalues --   -0.29175  -0.28110  -0.26659  -0.25416  -0.22996
 Alpha  occ. eigenvalues --   -0.21138  -0.20425  -0.17461
 Alpha virt. eigenvalues --   -0.09296  -0.07089  -0.05097  -0.03348  -0.03049
 Alpha virt. eigenvalues --   -0.01269   0.00056   0.00571   0.00740   0.01126
 Alpha virt. eigenvalues --    0.01452   0.01691   0.01841   0.02596   0.02716
 Alpha virt. eigenvalues --    0.03012   0.03386   0.03652   0.04292   0.04365
 Alpha virt. eigenvalues --    0.04715   0.05167   0.05703   0.06024   0.06202
 Alpha virt. eigenvalues --    0.06450   0.06854   0.07091   0.07607   0.07743
 Alpha virt. eigenvalues --    0.08387   0.08506   0.08871   0.09228   0.09528
 Alpha virt. eigenvalues --    0.09813   0.10211   0.10643   0.10773   0.11046
 Alpha virt. eigenvalues --    0.11297   0.11762   0.11870   0.12119   0.12753
 Alpha virt. eigenvalues --    0.12947   0.13448   0.13728   0.13915   0.14494
 Alpha virt. eigenvalues --    0.14915   0.15127   0.15265   0.15581   0.15837
 Alpha virt. eigenvalues --    0.16100   0.16383   0.16625   0.16688   0.16800
 Alpha virt. eigenvalues --    0.17131   0.17260   0.17557   0.17665   0.17917
 Alpha virt. eigenvalues --    0.18180   0.18385   0.18582   0.18765   0.19117
 Alpha virt. eigenvalues --    0.19549   0.19626   0.19745   0.20109   0.20423
 Alpha virt. eigenvalues --    0.20615   0.20734   0.20928   0.20982   0.21276
 Alpha virt. eigenvalues --    0.21381   0.21818   0.21993   0.22058   0.22262
 Alpha virt. eigenvalues --    0.22626   0.22746   0.22931   0.23202   0.23557
 Alpha virt. eigenvalues --    0.23658   0.24014   0.24178   0.24402   0.24567
 Alpha virt. eigenvalues --    0.24922   0.25138   0.25279   0.25366   0.25530
 Alpha virt. eigenvalues --    0.25937   0.26510   0.26548   0.26835   0.27031
 Alpha virt. eigenvalues --    0.27471   0.27480   0.27710   0.28083   0.28180
 Alpha virt. eigenvalues --    0.28466   0.28496   0.29081   0.29154   0.29527
 Alpha virt. eigenvalues --    0.29801   0.30121   0.30637   0.30768   0.31249
 Alpha virt. eigenvalues --    0.31384   0.31853   0.32104   0.32561   0.32844
 Alpha virt. eigenvalues --    0.33141   0.33329   0.33835   0.34112   0.34524
 Alpha virt. eigenvalues --    0.34589   0.35462   0.35814   0.35987   0.36693
 Alpha virt. eigenvalues --    0.36889   0.37222   0.37483   0.38262   0.38453
 Alpha virt. eigenvalues --    0.38529   0.39074   0.39585   0.39953   0.40285
 Alpha virt. eigenvalues --    0.41073   0.41681   0.41903   0.42731   0.43214
 Alpha virt. eigenvalues --    0.43781   0.43961   0.44355   0.46422   0.46624
 Alpha virt. eigenvalues --    0.46871   0.47203   0.48033   0.48706   0.49617
 Alpha virt. eigenvalues --    0.50192   0.50824   0.51067   0.51935   0.52184
 Alpha virt. eigenvalues --    0.52853   0.53152   0.53579   0.54067   0.54242
 Alpha virt. eigenvalues --    0.54608   0.54674   0.55416   0.55765   0.55938
 Alpha virt. eigenvalues --    0.56541   0.56992   0.57383   0.57619   0.57850
 Alpha virt. eigenvalues --    0.58274   0.58929   0.59234   0.59366   0.59892
 Alpha virt. eigenvalues --    0.60019   0.60253   0.60736   0.61370   0.61569
 Alpha virt. eigenvalues --    0.61805   0.62084   0.62809   0.63465   0.63664
 Alpha virt. eigenvalues --    0.64109   0.64303   0.64850   0.65650   0.66060
 Alpha virt. eigenvalues --    0.66542   0.66674   0.67234   0.67896   0.68191
 Alpha virt. eigenvalues --    0.68737   0.68954   0.69361   0.70089   0.70277
 Alpha virt. eigenvalues --    0.70553   0.70928   0.71362   0.71758   0.71843
 Alpha virt. eigenvalues --    0.71890   0.72443   0.72720   0.72927   0.73125
 Alpha virt. eigenvalues --    0.73580   0.73817   0.74000   0.74346   0.75166
 Alpha virt. eigenvalues --    0.75305   0.76029   0.76137   0.76492   0.76848
 Alpha virt. eigenvalues --    0.77275   0.77909   0.78216   0.79007   0.79639
 Alpha virt. eigenvalues --    0.79700   0.81014   0.82214   0.82579   0.83225
 Alpha virt. eigenvalues --    0.84153   0.84489   0.85174   0.85990   0.87044
 Alpha virt. eigenvalues --    0.87567   0.87715   0.88016   0.88426   0.89653
 Alpha virt. eigenvalues --    0.89838   0.90157   0.90548   0.91311   0.91542
 Alpha virt. eigenvalues --    0.92282   0.92590   0.92873   0.92964   0.93397
 Alpha virt. eigenvalues --    0.94015   0.94532   0.94624   0.94757   0.95490
 Alpha virt. eigenvalues --    0.95799   0.96106   0.96536   0.96808   0.96868
 Alpha virt. eigenvalues --    0.97375   0.97594   0.98463   0.99395   0.99597
 Alpha virt. eigenvalues --    1.00292   1.00457   1.01098   1.02040   1.02474
 Alpha virt. eigenvalues --    1.03492   1.04129   1.04341   1.05067   1.05555
 Alpha virt. eigenvalues --    1.06900   1.07142   1.07535   1.07953   1.08347
 Alpha virt. eigenvalues --    1.09035   1.10508   1.10638   1.11049   1.11371
 Alpha virt. eigenvalues --    1.12286   1.13355   1.13572   1.15470   1.16576
 Alpha virt. eigenvalues --    1.17189   1.17675   1.18598   1.20017   1.20390
 Alpha virt. eigenvalues --    1.22876   1.23290   1.23545   1.24945   1.25834
 Alpha virt. eigenvalues --    1.26861   1.28072   1.30560   1.31494   1.32117
 Alpha virt. eigenvalues --    1.32942   1.33614   1.35699   1.36625   1.37587
 Alpha virt. eigenvalues --    1.38825   1.39030   1.39536   1.40919   1.41954
 Alpha virt. eigenvalues --    1.43028   1.43298   1.44661   1.45284   1.46117
 Alpha virt. eigenvalues --    1.46343   1.47305   1.47696   1.48870   1.49185
 Alpha virt. eigenvalues --    1.49654   1.50388   1.50748   1.51130   1.51645
 Alpha virt. eigenvalues --    1.51760   1.52603   1.53870   1.54414   1.54914
 Alpha virt. eigenvalues --    1.55583   1.55715   1.56301   1.56817   1.57663
 Alpha virt. eigenvalues --    1.57973   1.59203   1.59530   1.60591   1.61499
 Alpha virt. eigenvalues --    1.61853   1.62405   1.62604   1.63205   1.64575
 Alpha virt. eigenvalues --    1.65803   1.66507   1.67430   1.67707   1.68453
 Alpha virt. eigenvalues --    1.70200   1.70480   1.71002   1.71825   1.72328
 Alpha virt. eigenvalues --    1.72839   1.73321   1.74031   1.74300   1.76034
 Alpha virt. eigenvalues --    1.76182   1.76921   1.77234   1.77738   1.78799
 Alpha virt. eigenvalues --    1.80219   1.81054   1.81428   1.81633   1.82223
 Alpha virt. eigenvalues --    1.82379   1.83720   1.84617   1.85124   1.85982
 Alpha virt. eigenvalues --    1.86306   1.87232   1.87500   1.87931   1.89064
 Alpha virt. eigenvalues --    1.89475   1.89907   1.91045   1.91311   1.92179
 Alpha virt. eigenvalues --    1.92515   1.92986   1.94606   1.94835   1.95345
 Alpha virt. eigenvalues --    1.95624   1.96256   1.96849   1.97178   1.97806
 Alpha virt. eigenvalues --    1.98577   1.99149   1.99876   2.00371   2.00928
 Alpha virt. eigenvalues --    2.01034   2.03438   2.04313   2.04555   2.05049
 Alpha virt. eigenvalues --    2.05735   2.06417   2.07054   2.07211   2.08408
 Alpha virt. eigenvalues --    2.08853   2.10150   2.10792   2.12653   2.13081
 Alpha virt. eigenvalues --    2.13372   2.14574   2.15300   2.16352   2.17573
 Alpha virt. eigenvalues --    2.18197   2.18878   2.19970   2.20715   2.20835
 Alpha virt. eigenvalues --    2.21174   2.22414   2.22980   2.24563   2.24854
 Alpha virt. eigenvalues --    2.25328   2.26436   2.27673   2.29274   2.30440
 Alpha virt. eigenvalues --    2.32417   2.32695   2.34133   2.35480   2.36605
 Alpha virt. eigenvalues --    2.38551   2.39368   2.40237   2.40843   2.42380
 Alpha virt. eigenvalues --    2.42934   2.43299   2.44742   2.46628   2.48397
 Alpha virt. eigenvalues --    2.49066   2.50121   2.52005   2.53983   2.54095
 Alpha virt. eigenvalues --    2.56581   2.56884   2.57554   2.57805   2.58943
 Alpha virt. eigenvalues --    2.59674   2.60919   2.63450   2.63865   2.65382
 Alpha virt. eigenvalues --    2.66149   2.67382   2.69057   2.70085   2.70886
 Alpha virt. eigenvalues --    2.71649   2.71730   2.72201   2.72646   2.73073
 Alpha virt. eigenvalues --    2.73656   2.74397   2.74826   2.75083   2.75621
 Alpha virt. eigenvalues --    2.76294   2.76809   2.77113   2.77519   2.78217
 Alpha virt. eigenvalues --    2.78788   2.78998   2.79849   2.80491   2.81207
 Alpha virt. eigenvalues --    2.81434   2.82000   2.82628   2.82971   2.83390
 Alpha virt. eigenvalues --    2.84208   2.86007   2.86739   2.87382   2.88536
 Alpha virt. eigenvalues --    2.88936   2.90860   2.91283   2.91643   2.92841
 Alpha virt. eigenvalues --    2.93804   2.94124   2.96034   2.98308   2.99342
 Alpha virt. eigenvalues --    3.00325   3.00903   3.02312   3.03818   3.04247
 Alpha virt. eigenvalues --    3.05970   3.07365   3.08883   3.11206   3.13178
 Alpha virt. eigenvalues --    3.13528   3.14388   3.15816   3.17789   3.18708
 Alpha virt. eigenvalues --    3.20097   3.20603   3.22216   3.22583   3.23601
 Alpha virt. eigenvalues --    3.24598   3.25754   3.29469   3.30562   3.31490
 Alpha virt. eigenvalues --    3.33780   3.35118   3.36369   3.37030   3.37714
 Alpha virt. eigenvalues --    3.39170   3.39742   3.41014   3.42492   3.42915
 Alpha virt. eigenvalues --    3.43961   3.46240   3.46811   3.48140   3.49510
 Alpha virt. eigenvalues --    3.51230   3.53936   3.55422   3.55992   3.58723
 Alpha virt. eigenvalues --    3.59091   3.62419   3.63003   3.64920   3.68262
 Alpha virt. eigenvalues --    3.70136   3.72680   3.78134   3.83360   3.84019
 Alpha virt. eigenvalues --    3.87358   3.91662   3.95957   4.04090   4.06084
 Alpha virt. eigenvalues --    4.06792   4.07749   4.09198   4.12115   4.13381
 Alpha virt. eigenvalues --    4.20584   4.24080   4.25080   4.28217   4.34427
 Alpha virt. eigenvalues --    4.42983   4.52446   4.67748   4.71484   4.72587
 Alpha virt. eigenvalues --    4.76207   4.76676   4.78532   4.81799   4.87353
 Alpha virt. eigenvalues --    4.90387  23.38946  23.63102  23.66112  23.78184
 Alpha virt. eigenvalues --   23.80549  23.82666  23.83805  23.86137  23.88530
 Alpha virt. eigenvalues --   23.90475  23.91459  23.93902  23.94307  23.95803
 Alpha virt. eigenvalues --   23.98692  24.00822  24.04700  24.06743  24.06887
 Alpha virt. eigenvalues --   24.07743  24.09890  24.10617  24.11162  24.12677
 Alpha virt. eigenvalues --   24.12876  24.13192  24.17074  24.19354  24.20331
 Alpha virt. eigenvalues --   24.22581
          Condensed to atoms (all electrons):
               1          2          3          4          5          6
     1  C   11.351893   0.287746   0.016619   1.029038  -1.153391  -0.878353
     2  C    0.287746   7.742569   0.779419  -0.345659  -0.125670  -0.081367
     3  C    0.016619   0.779419   8.936156   0.413455   1.189379  -1.208782
     4  C    1.029038  -0.345659   0.413455  12.485358  -0.805583  -0.120435
     5  C   -1.153391  -0.125670   1.189379  -0.805583  10.309629   1.862765
     6  C   -0.878353  -0.081367  -1.208782  -0.120435   1.862765  10.081288
     7  C   -0.514898   0.022100   1.154754  -1.726061  -0.149901  -1.431866
     8  C    0.427261  -0.203489  -0.393707   2.396635   0.062099   0.763978
     9  C    0.190065  -0.394667   1.147916  -0.469949  -0.219562  -0.503231
    10  C   -0.451913  -0.674325  -0.268067  -2.575082  -0.418746  -1.128678
    11  C   -1.158331   0.079242  -0.896432  -1.167180  -0.275047  -0.358423
    12  C   -0.059117  -0.002973  -0.302050  -0.183028  -0.144643  -0.059825
    13  C    0.343554  -0.247777  -0.564582   0.430758  -0.070558   0.003704
    14  C   -0.145212  -0.205528  -0.737398  -0.647267  -0.039824  -0.011123
    15  C    0.742971   0.308452  -0.660111  -0.452029  -1.049376  -0.173055
    16  C   -0.666217  -0.418744  -0.624045  -0.451959  -0.797707   0.075912
    17  C   -0.838230   0.183368  -0.187358  -0.198165  -0.659642  -0.098689
    18  C   -0.419336   0.590954  -0.720372  -1.196105  -1.233247  -0.755366
    19  C    0.141350   0.134552   0.301354   0.058342  -0.037144   0.001614
    20  C    0.238075  -0.324504  -0.270405   0.079435   0.069962  -0.014267
    21  C    0.084760  -0.085054   0.076558   0.160556   0.028667   0.000716
    22  C   -0.051670  -0.110708  -0.165482  -0.070439   0.002080  -0.003408
    23  C   -0.891158  -0.573752  -0.097573  -0.152404  -0.254477  -0.037554
    24  C   -0.113915  -0.181384  -0.032138  -0.019653  -0.168140  -0.012982
    25  C   -0.134335  -0.156685  -0.021023  -0.037683   0.075114  -0.026988
    26  C   -0.952691  -0.126316  -0.493919  -0.129047  -0.166956  -0.074245
    27  C   -0.519679   0.037572  -0.187261  -0.261589  -0.090507  -0.091907
    28  C   -0.140560   0.009274  -0.130757  -0.028756   0.002407  -0.017805
    29  C   -0.182416  -0.051001  -0.081003  -0.002478   0.024821  -0.006661
    30  C    0.013754  -0.036233   0.040501   0.008968  -0.012749   0.002622
    31  H    0.000506  -0.000061   0.000056  -0.000002   0.000036  -0.000001
    32  H    0.001896   0.000692   0.000099   0.000030   0.000405   0.000020
    33  H    0.041191   0.008805   0.001450   0.000234   0.006235   0.000023
    34  H   -0.008426   0.018363  -0.001430   0.007146   0.027549   0.008763
    35  H   -0.090671   0.017237  -0.016826  -0.049984   0.390301  -0.011864
    36  H   -0.013437   0.001555   0.026907  -0.098478  -0.016239   0.396599
    37  H    0.011355  -0.006970   0.030081  -0.079208   0.009108   0.015911
    38  H   -0.000087  -0.003522  -0.011049  -0.055139  -0.000858   0.000814
    39  H    0.000662   0.003083  -0.000874   0.014024   0.000043   0.000449
    40  H   -0.000077  -0.000454   0.001205  -0.000215   0.000002   0.000012
    41  H    0.000000   0.000123   0.000298   0.000031  -0.000002   0.000001
    42  H   -0.000382  -0.000496  -0.001249  -0.000079  -0.000020  -0.000005
    43  H    0.001015   0.001527   0.001744   0.000132   0.000006   0.000032
    44  H    0.000082   0.000343   0.000205   0.000034   0.000001  -0.000003
    45  H   -0.000761  -0.001301   0.000061  -0.000017  -0.000110  -0.000003
[...]
 0.00269367,-0.00762121,-0.01137933,-0.01726285,-0.02073187,0.07016143,
 -0.00034075,-0.00190202,-0.00124870,-0.00010434,0.00024386,0.00003733,
 0.00002052,-0.00002693,0.00007099,0.00005344,0.00001064,0.00001838,0.0
 0002875,0.00000322,-0.00004495,0.00000619,0.00005316,-0.00002036,0.000
 01570,0.00000404,-0.00000322,0.00002055,-0.00000421,-0.00000125,0.0000
 3380,-0.00002500,0.00000530,0.00008895,0.00005042,0.00022360,0.0000493
 3,-0.00017343,-0.00003657,0.00023107,0.00061205,0.00082490,0.02401690,
 0.00480691,-0.00195813,-0.00082840,0.00302324,0.00164600,0.00048560,-0
 .00293082,-0.00063553,-0.00011053,0.00250968,0.00270090,0.00063298,-0.
 00346650,0.00053466,-0.00010982,0.00132852,-0.00334867,-0.00059232,0.0
 0110696,0.00101217,-0.00018604,-0.00045886,-0.00058203,0.00024765,0.00
 004887,0.00025897,-0.00012802,-0.00013287,0.00009458,-0.00004703,-0.00
 083723,-0.00126589,0.00005528,0.00244397,0.00267026,0.00041281,0.00009
 222,-0.00092238,-0.00002943,0.00062777,0.00031011,-0.00028620,-0.00585
 542,-0.00053970,0.00043746,0.00695423,-0.00034382,-0.00093770,0.005827
 61,-0.00085726,0.00019891,-0.00425477,0.00123829,0.00073324,0.00088096
 ,0.00094607,-0.00056941,-0.00344408,0.00667634,-0.00254560,-0.00225481
 ,-0.00435631,-0.00020813,-0.00200698,0.00157892,0.00098394,-0.00534294
 ,-0.00073073,0.00025918,0.00102942,0.00254599,0.00392453,-0.03309285,-
 0.00032822,-0.00466514,0.01029563,-0.03133404,-0.00527217,0.04295230,0
 .02871817,0.01600770,-0.02112208,-0.01431573,-0.07335269,0.02106311,0.
 02548005,0.01095389,-0.02869321,0.01494898,-0.09533680,-0.00054326,-0.
 00011137,0.00227333,0.00020448,-0.00019915,-0.00003613,-0.00013707,0.0
 0008185,-0.00033265,-0.00006123,0.00000239,-0.00003849,-0.00006168,-0.
 00001101,0.00006503,-0.00000085,-0.00006317,0.00004050,-0.00001925,0.0
 0001120,0.00000706,-0.00002689,0.00000330,0.00001194,-0.00006462,0.000
 06171,0.00007802,-0.00004345,0.00001131,-0.00017068,-0.00005305,0.0001
 4770,0.00007603,0.00011837,-0.00056928,-0.00059731,0.04817889,-0.03007
 133,-0.00437388,0.00250525,0.00075928,-0.00386153,-0.00223959,-0.00034
 227,0.00247890,-0.00007577,-0.00011038,-0.00224468,-0.00255833,-0.0004
 2927,0.00302967,-0.00054403,0.00019569,-0.00079398,0.00332134,0.000576
 00,-0.00025527,-0.00067811,0.00017000,0.00043880,0.00077204,-0.0002746
 5,-0.00031356,-0.00042693,0.00013669,0.00017518,0.00022841,0.00003729,
 0.00001058,0.00201091,0.00033562,-0.00101773,-0.00241960,0.00004547,-0
 .00021187,0.00159372,-0.00024736,-0.00035282,-0.00071777,0.00035718,0.
 00623083,0.00103016,-0.00026658,-0.00787340,0.00206251,0.00127672,-0.0
 1054876,-0.00202981,-0.00018012,0.00598284,-0.00183314,-0.00105320,-0.
 00063072,-0.00050131,0.00039778,0.00208412,-0.00283793,0.00244298,0.00
 111456,0.00188806,0.00061833,0.00133958,-0.00142501,-0.00091222,0.0109
 5279,0.00007059,-0.00082410,-0.00511423,-0.00860141,-0.00396028,0.0457
 9672,0.00398586,0.00757035,-0.00638944,0.03749811,0.00488649,-0.038019
 29,-0.03350285,-0.02106795,-0.00112751,0.02975573,0.00496758,-0.032564
 16,-0.04233711,-0.03090354,0.05803814,-0.03953775,0.09452123,0.0007728
 5,0.00273504,-0.00591421,-0.00020008,0.00014908,-0.00023116,0.00014957
 ,0.00007304,0.00017710,0.00009428,0.00006557,0.00001204,0.00008854,0.0
 0001712,-0.00006862,-0.00003120,0.00004429,-0.00005337,-0.00000395,-0.
 00000615,-0.00000293,0.00003428,0.00000396,-0.00001073,0.00006453,-0.0
 0008850,-0.00016373,0.00008016,-0.00002488,0.00021183,0.00004452,-0.00
 006378,-0.00005757,0.00054125,0.00080682,0.00054905,-0.07508593,0.0760
 5552,0.00494677,-0.00000911,-0.00017541,-0.00003972,0.00042205,0.00031
 994,0.00006371,-0.00010834,0.00019100,0.00002461,0.00006234,-0.0000317
 6,0.00000173,0.00007534,0.00004429,-0.00000055,-0.00009739,-0.00000330
 ,-0.00000659,-0.00037194,-0.00000948,0.00000113,0.00008384,-0.00009465
 ,-0.00001057,-0.00008013,0.00002645,-0.00001074,0.00005072,0.00004096,
 0.00000642,0.00039254,-0.00030762,-0.00017796,-0.00046177,0.00020704,0
 .00002839,-0.00005861,-0.00025695,-0.00004216,-0.00002204,0.00013582,0
 .00002569,-0.00005166,-0.00012914,0.00002502,-0.00003742,-0.00040068,0
 .00009084,0.00171114,-0.00055469,-0.00109321,-0.00061047,0.00009821,0.
 00016096,0.00029719,-0.00000610,-0.00005840,0.00022544,-0.00178337,0.0
 0142747,-0.00050260,0.00090160,-0.00068238,-0.00024747,0.00065392,0.00
 015907,-0.00039032,0.00003216,-0.00002112,0.00012195,0.00008702,0.0003
 3265,-0.00218524,0.00008859,0.00021072,-0.00448479,-0.00244962,-0.0029
 7333,0.00026722,-0.02332600,0.00092200,-0.06358517,-0.06764448,-0.0175
 7157,-0.00217082,0.00300342,-0.00184173,0.00399292,0.02542529,-0.00133
 969,-0.00002844,0.00066823,0.00124806,0.00002777,-0.00007210,-0.000019
 97,-0.00000810,-0.00000008,-0.00004767,-0.00003315,-0.00003063,0.00001
 818,-0.00000376,-0.00000080,-0.00000284,0.00000066,0.00000522,0.000000
 21,-0.00000210,0.00000704,-0.00000196,0.00000412,-0.00000062,0.0000030
 1,0.00000360,0.00000013,0.00001381,0.00002374,-0.00001017,-0.00005822,
 -0.00000549,-0.00004231,-0.00003084,-0.00026813,0.00063741,-0.00172527
 ,-0.00077072,-0.00240740,0.00202891,0.06847337,-0.00014528,0.00011134,
 0.00003752,-0.00016917,-0.00010405,-0.00000582,0.00008178,0.00002209,0
 .00000174,-0.00010579,-0.00007924,-0.00001957,0.00008878,-0.00002486,0
 .00000379,-0.00002057,0.00011420,0.00002198,-0.00011993,-0.00001541,-0
 .00000645,0.00004161,-0.00005922,0.00001049,-0.00000313,-0.00002088,0.
 00001367,0.00000285,-0.00001416,-0.00000499,0.00009684,0.00013459,-0.0
 0002248,-0.00041228,0.00007205,0.00013689,-0.00010682,-0.00010383,0.00
 010065,0.00004833,0.00003093,-0.00003079,0.00024349,-0.00004668,-0.000
 02398,-0.00040057,0.00008275,0.00018062,-0.00018304,-0.00042762,-0.000
 36178,0.00030080,-0.00002085,-0.00003057,0.00016327,-0.00006596,-0.000
 15673,0.00113219,-0.00057213,0.00048840,0.00197273,-0.00099376,0.00228
 875,0.00022047,0.00020558,-0.00000517,0.00020561,0.00001350,-0.0000163
 9,0.00002699,-0.00006131,-0.00017930,0.00103395,0.00043221,-0.00004472
 ,-0.00157001,0.00275514,0.00093458,-0.00167105,-0.00641792,-0.00052211
 ,-0.06895760,-0.33058977,-0.02389327,0.00126644,-0.00092668,0.00161013
 ,-0.00344544,-0.01134929,0.00183445,-0.00021750,-0.00044489,-0.0002108
 8,0.00000849,0.00000593,0.00001152,0.00001008,-0.00001183,0.00001829,-
 0.00001773,-0.00000019,-0.00003064,0.00000282,-0.00000064,-0.00000305,
 -0.00000264,-0.00000003,-0.00000249,-0.00000203,-0.00000153,0.00000072
 ,-0.00000111,0.00000135,-0.00000124,-0.00000676,-0.00000087,-0.0000115
 0,0.00002397,-0.00000900,-0.00002290,0.00001472,0.00000743,0.00009505,
 0.00243016,-0.00026042,0.00153636,0.00011461,-0.00248124,-0.00332797,0
 .06650971,0.35167395,0.00000253,0.00029048,0.00008095,-0.00045143,-0.0
 0028898,-0.00009463,-0.00000116,-0.00019937,-0.00000667,0.00001933,-0.
 00000364,0.00001977,-0.00010540,-0.00000909,0.00000752,0.00006725,-0.0
 0000364,-0.00000687,0.00011918,0.00009718,0.00000712,0.00004112,-0.000
 12754,0.00001145,-0.00003084,-0.00003217,0.00000455,-0.00001933,0.0000
 2141,-0.00001461,0.00001745,-0.00040708,0.00013408,0.00127545,0.000082
 15,-0.00015355,-0.00007988,0.00041610,0.00000712,0.00020711,0.00002722
 ,-0.00003807,0.00018583,-0.00005920,-0.00017137,-0.00056970,0.00033198
 ,-0.00017956,-0.00078343,-0.00144145,0.00116952,0.00069341,0.00009094,
 -0.00006310,-0.00015536,-0.00002494,0.00000911,0.00030120,0.00074092,-
 0.00324673,-0.00280345,0.00014776,-0.00033172,0.00058103,-0.00010521,-
 0.00030226,0.00027662,-0.00006396,0.00007880,0.00009436,0.00000358,-0.
 00032312,0.00135316,0.00034383,-0.00040412,-0.00291948,0.00288164,0.00
 431874,-0.00135549,-0.01209345,-0.00109291,-0.01501031,-0.02306175,-0.
 02173949,-0.00008492,-0.00243854,-0.00005822,0.00280940,-0.00227871,0.
 00341744,0.00037633,0.00002470,-0.00084870,-0.00003197,-0.00002578,-0.
 00003645,0.00001980,-0.00002219,0.00004268,-0.00002862,-0.00001923,0.0
 0000336,-0.00000122,-0.00000180,0.00000165,-0.00000357,-0.00000451,0.0
 0000097,-0.00000244,0.00000059,0.00000280,-0.00000067,-0.00000025,0.00
 000204,0.00000834,-0.00000432,-0.00002282,0.00007321,0.00000418,0.0000
 4646,-0.00004166,0.00005930,0.00002064,-0.00135970,0.00182589,-0.00172
 395,-0.00249075,0.01410401,0.00165408,0.01924537,0.02006907,0.02650454
 ,0.00348185,-0.00127890,-0.00053230,0.00179560,0.00098451,0.00027545,-
 0.00169725,-0.00053459,-0.00003799,0.00165533,0.00196920,0.00037067,-0
 .00250820,0.00033243,-0.00011765,0.00094371,-0.00242558,-0.00042071,0.
 00093464,0.00073513,-0.00017548,-0.00038907,-0.00045432,0.00017635,0.0
 0015945,0.00025009,-0.00009220,-0.00013582,-0.00006709,-0.00003278,-0.
 00061271,-0.00021341,-0.00002550,0.00076818,0.00161188,0.00032537,0.00
 000933,-0.00098000,0.00004565,0.00040980,0.00029383,-0.00024175,-0.004
 27257,-0.00064129,0.00019431,0.00501905,-0.00012232,-0.00061274,0.0026
 3731,-0.00073511,0.00021909,-0.00215607,0.00054406,0.00022934,0.000605
 74,0.00052443,-0.00034338,-0.00164875,0.00290349,-0.00069991,-0.001002
 54,-0.00197963,-0.00042102,-0.00129385,0.00105462,0.00066470,-0.005337
 50,-0.00016966,0.00040322,0.00250486,0.00394438,0.00265756,-0.02572002
 ,-0.00185790,-0.00556689,0.00843678,-0.02033571,0.00114656,0.02711718,
 0.02128435,0.00759514,-0.00786673,0.00686991,-0.05860604,0.01983983,0.
 02581374,0.01574401,-0.03789659,0.00649579,-0.07372950,-0.00023713,-0.
 00050389,0.00301977,0.00008197,-0.00010022,0.00013873,-0.00008636,0.00
 002526,-0.00015470,-0.00005339,0.00000876,0.00000758,-0.00004319,0.000
 01561,0.00006713,0.00003052,-0.00003735,0.00003935,0.00001852,0.000006
 20,0.00000903,-0.00000865,-0.00001658,0.00001428,-0.00004396,0.0000408
 4,0.00010995,-0.00004189,0.00000295,-0.00012526,-0.00003816,0.00004899
 ,0.00005939,-0.00033615,-0.00056709,-0.00036641,0.00455441,-0.03169607
 ,0.04952803,-0.00082935,0.00129147,0.00071572,0.01834541,-0.00208834,0
 .00145971,0.00041304,-0.00231638,-0.00130011,-0.00013134,0.00136348,-0
 .00026321,-0.00006494,-0.00116446,-0.00116012,-0.00023015,0.00141598,-
 0.00029537,0.00008545,-0.00032545,0.00160891,0.00028009,0.00010468,-0.
 00022138,0.00005498,0.00014294,0.00028584,-0.00011230,-0.00010284,-0.0
 0017659,0.00006878,0.00006371,0.00003971,0.00001758,-0.00014749,0.0012
 6113,0.00024677,-0.00055035,-0.00125929,-0.00021398,-0.00012727,0.0007
 6499,0.00000275,-0.00005850,-0.00032895,0.00014390,0.00319731,0.000413
 16,-0.00017979,-0.00390964,0.00115390,0.00059617,-0.00608033,-0.001425
 19,-0.00022813,0.00343621,-0.00084556,-0.00069604,-0.00034257,-0.00021
 419,0.00018011,0.00112439,-0.00189917,0.00052567,0.00062526,0.00107904
 ,0.00034943,0.00071139,-0.00072203,-0.00042632,0.00528540,-0.00014514,
 -0.00035522,-0.00216272,-0.00392990,-0.00166825,0.02516092,0.00299100,
 0.00126518,-0.00262334,0.01994881,0.00537669,-0.02239189,-0.01704926,-
 0.00713583,0.01990557,-0.00656250,0.04320569,-0.01412440,-0.01379373,-
 0.02713514,0.00064925,-0.02625827,0.03740941,0.00021199,0.00019986,-0.
 00189369,-0.00012588,0.00011996,-0.00011934,0.00007775,0.00003990,0.00
 012316,0.00005005,0.00005136,0.00001851,0.00004945,0.00002196,-0.00002
 455,-0.00000528,0.00002184,-0.00002056,0.00001103,-0.00000367,0.000000
 63,0.00002222,-0.00000672,-0.00000463,0.00003364,-0.00004697,-0.000079
 48,0.00004267,-0.00001673,0.00010261,0.00001707,-0.00003975,-0.0000180
 5,0.00025850,0.00041627,0.00026020,0.00012072,0.00372742,-0.02466168,0
 .00098420,-0.00157144,0.00039036,-0.00484621,0.04614000,-0.00482278,0.
 00074900,0.00080485,-0.00058356,-0.00031266,-0.00056034,0.00156867,0.0
 0130742,0.00024801,-0.00185520,-0.00261035,-0.00046836,0.00348478,-0.0
 0013740,0.00012347,-0.00185389,0.00281569,0.00047145,-0.00210879,-0.00
 121338,0.00016514,0.00055220,0.00055742,-0.00020832,-0.00016492,-0.000
 22429,0.00009726,0.00021197,0.00003354,0.00005256,0.00171383,-0.002561
 36,-0.00049671,-0.00028739,-0.00055317,-0.00009630,0.00032721,0.000442
 32,-0.00018054,-0.00091880,0.00002855,0.00025746,0.00491285,0.00080100
 ,-0.00031749,-0.00554093,-0.00195295,0.00020502,0.00424879,0.00421340,
 0.00069811,-0.00084948,0.00091901,0.00046210,-0.00077523,-0.00080975,0
 .00048839,0.00079544,-0.00222984,0.00072910,0.00104885,0.00277278,-0.0
 0009286,0.00131449,-0.00111044,-0.00074559,0.00312901,0.00066466,0.000
 10629,-0.00110424,-0.00237345,-0.00210876,0.02204746,0.00370489,0.0030
 5078,-0.01345404,0.00366683,0.00156438,-0.00554840,-0.00676374,-0.0018
 3700,-0.01330950,0.02736265,0.01365828,-0.00790289,-0.03280977,-0.0339
 9327,0.00857207,-0.01359895,0.06440245,0.00030515,0.00055516,-0.001536
 77,-0.00001811,0.00006492,-0.00033796,0.00007232,-0.00012865,0.0000378
 7,0.00003606,-0.00014068,-0.00007385,-0.00000209,-0.00010417,-0.000123
 56,-0.00008143,0.00005039,-0.00005270,-0.00008247,-0.00001043,-0.00003
 031,-0.00003641,0.00006761,-0.00003015,0.00000562,0.00003015,-0.000050
 29,-0.00005118,0.00006028,0.00009021,0.00006495,-0.00001401,-0.0001129
 4,-0.00013480,0.00009437,0.00061692,-0.03507570,0.04218818,-0.04836429
 ,0.00098939,0.00001515,-0.00675650,0.03500704,-0.02935340,0.02052749,0
 .00033658,-0.00007226,-0.00004331,0.00008623,0.00002834,0.00001073,-0.
 00017367,-0.00010573,-0.00002002,0.00016940,0.00020701,0.00004578,-0.0
 0026906,0.00002194,-0.00000975,0.00012246,-0.00024617,-0.00004458,0.00
 017450,0.00008866,0.00000507,-0.00004592,-0.00004697,0.00001287,0.0000
 2587,0.00001910,-0.00000644,-0.00001800,-0.00000928,-0.00000338,-0.000
 14422,-0.00000548,0.00000963,0.00016996,0.00030268,-0.00016379,-0.0000
 2835,-0.00006398,0.00009319,0.00007856,0.00002566,-0.00001740,-0.00036
 092,-0.00005682,0.00000724,0.00039509,0.00005907,-0.00000822,0.0000149
 1,-0.00023374,0.00013850,-0.00007087,0.00002325,-0.00001158,0.00011875
 ,0.00014422,-0.00007425,-0.00062966,-0.00001105,-0.00095269,-0.0001202
 5,-0.00028559,0.00007391,-0.00022240,0.00017818,0.00016080,-0.00031235
 ,-0.00001028,0.00005166,0.00020687,0.00021868,0.00048079,-0.00090469,0
 .00054149,-0.00014548,0.00124245,-0.00083029,0.00019862,0.00105347,0.0
 0479991,0.00196432,-0.01747709,-0.00703269,-0.00558436,0.00653871,0.00
 386639,0.00015021,-0.27358088,-0.11145631,-0.04830387,0.00039549,-0.00
 042886,0.00009373,-0.00000708,-0.00000793,-0.00000097,-0.00001197,0.00
 002991,-0.00006793,-0.00000455,0.00000200,0.00000118,-0.00000303,0.000
 00260,0.00000746,0.00000291,-0.00000543,0.00000398,0.00000186,-0.00000
 022,0.00000070,-0.00000090,-0.00000185,0.00000020,-0.00000700,0.000003
 20,0.00000250,-0.00000624,-0.00000745,-0.00003371,-0.00001201,0.000024
 15,0.00000224,-0.00004186,-0.00003202,-0.00015194,0.00004104,-0.004484
 92,-0.00008566,0.00118860,0.00022630,-0.00015241,-0.00509354,-0.001572
 45,0.00615409,0.28718277,-0.00002745,0.00007896,-0.00000920,-0.0001894
 5,-0.00005922,0.00002518,0.00013126,-0.00001425,-0.00001949,-0.0000958
 5,-0.00006118,-0.00001099,0.00005810,-0.00002524,0.00000841,0.00002050
 ,0.00011365,0.00002236,-0.00000048,0.00000117,-0.00000059,0.00001442,0
 .00002186,-0.00000740,-0.00001847,-0.00001137,0.00000201,0.00000699,0.
 00000816,0.00000005,-0.00004459,0.00029568,0.00007033,-0.00007606,-0.0
 0042987,0.00011276,-0.00001160,0.00010355,-0.00013087,-0.00000650,-0.0
 0006364,0.00001495,0.00007126,0.00001943,0.00001173,-0.00001868,0.0001
 7570,-0.00001330,-0.00083178,-0.00016566,0.00006480,0.00033486,-0.0002
 0358,-0.00006301,-0.00005849,-0.00007593,0.00004648,0.00061369,0.00030
 068,0.00088645,0.00009119,0.00012399,-0.00005020,0.00010052,-0.0001546
 4,-0.00010687,0.00034988,-0.00052110,-0.00015283,-0.00127732,0.0002249
 2,-0.00029379,0.00187552,-0.00483698,-0.00276566,0.00052652,0.00164111
 ,0.00000719,0.00056826,-0.00523757,-0.00146772,0.02480907,0.00878659,0
 .00403378,-0.02262157,-0.00379389,-0.00104768,-0.11438638,-0.10249741,
 -0.03635771,0.00028636,0.00052623,0.00045694,0.00003296,-0.00001388,-0
 .00001034,-0.00010961,-0.00006233,0.00005887,0.00000976,0.00001415,0.0
 0000960,0.00000653,0.00000544,-0.00000057,0.00000020,0.00000199,-0.000
 00233,0.00000279,0.00000080,0.00000075,0.00000396,-0.00000240,0.000001
 14,0.00001179,-0.00000418,0.00000818,0.00000666,-0.00000073,0.00002887
 ,0.00001184,-0.00002778,0.00000344,0.00002629,0.00002346,0.00013082,0.
 00142736,-0.00038235,0.00376630,-0.00033029,0.00101263,0.00076351,-0.0
 0748899,-0.00220957,0.00584747,0.11619503,0.10737458,-0.00057746,0.000
 22196,0.00010089,-0.00031808,-0.00013388,-0.00004150,0.00028586,0.0000
 7013,0.00002109,-0.00027690,-0.00032580,-0.00007116,0.00041616,-0.0000
 2483,0.00002451,-0.00019638,0.00038781,0.00006424,-0.00022279,-0.00010
 584,0.00000990,0.00006297,0.00004465,-0.00002454,-0.00004155,-0.000026
 05,0.00001060,0.00002691,0.00000651,0.00000979,0.00020404,-0.00011277,
 -0.00002560,-0.00013917,-0.00002962,-0.00008748,-0.00005578,0.00010127
 ,0.00001172,-0.00008912,0.00001909,0.00002539,0.00068692,0.00010369,-0
 .00002751,-0.00075112,-0.00011403,0.00003654,-0.00024196,0.00039074,-0
 .00013311,0.00021968,0.00001655,0.00001296,-0.00017879,-0.00019134,0.0
 0011054,-0.00063917,-0.00088875,0.00059685,0.00015200,0.00036531,0.000
 04004,0.00035341,-0.00024607,-0.00027611,0.00070582,-0.00030049,-0.000
 29919,-0.00126441,-0.00015372,-0.00066000,0.00464408,-0.00426539,0.001
 54846,-0.00108677,0.00192706,0.00036843,-0.00385564,-0.00073365,-0.000
 05167,-0.00877568,-0.00536887,0.00432017,-0.01788005,-0.00787806,-0.00
 242948,-0.04383692,-0.02923306,-0.03786992,0.00053246,0.00098986,-0.00
 122092,0.00003267,0.00001110,-0.00001357,-0.00007370,-0.00008987,0.000
 11478,0.00001296,-0.00000180,-0.00000344,0.00000400,-0.00000605,-0.000
 01239,-0.00000706,0.00000767,-0.00000531,-0.00000512,0.00000040,-0.000
 00216,-0.00000002,0.00000425,-0.00000179,-0.00000493,-0.00000398,-0.00
 001918,0.00000986,0.00001414,0.00003934,0.00000370,-0.00000593,-0.0000
 1009,0.00004843,0.00012096,0.00016677,0.00163639,0.01614789,-0.0114069
 9,0.00072913,-0.00047504,0.00007001,0.02353881,0.00363563,-0.01028271,
 0.04621234,0.02612820,0.05727277\\0.00000004,-0.00000004,0.00000253,-0
 .00000011,0.00000024,0.00000110,-0.00000003,0.00000038,0.00000001,-0.0
 0000010,0.00000010,-0.00000005,0.00000021,-0.00000028,0.00000268,0.000
 00007,-0.00000014,0.00000160,-0.00000010,0.00000044,-0.00000142,-0.000
 00014,0.00000020,-0.00000260,-0.00000008,0.00000006,-0.00000248,-0.000
 00005,0.,-0.00000121,-0.00000019,0.00000050,-0.00000100,-0.00000008,-0
 .00000003,-0.00000209,-0.00000006,-0.00000018,-0.00000340,-0.00000011,
 -0.00000005,-0.00000355,0.00000023,-0.00000035,0.00000339,0.,-0.000000
 25,0.00000319,-0.00000025,-0.00000009,0.00000146,0.00000016,0.00000022
 ,0.00000074,0.00000001,-0.00000057,-0.00000442,-0.00000009,-0.00000017
 ,-0.00000127,0.00000013,-0.00000049,-0.00000252,0.00000009,-0.00000096
 ,-0.00000417,0.00000048,-0.00000065,0.00000392,0.00000014,-0.00000072,
 0.00000371,0.00000101,0.00000004,0.00000206,-0.00000008,0.00000091,0.0
 0000179,-0.00000079,-0.00000032,-0.00000138,0.00051042,-0.00191168,0.0
 0379471,0.,0.00000034,0.00000103,-0.00000140,0.00000206,0.00000018,-0.
 00000020,-0.00000034,0.00000374,0.00000030,-0.00000082,0.00000461,0.00
 000038,-0.00000100,0.00000520,0.00000030,-0.00000067,0.00000460,0.0000
 0023,-0.00000052,0.00000368,0.00000012,-0.00000037,0.00000164,0.,-0.00
 000017,-0.00000142,-0.00000008,-0.00000011,-0.00000360,-0.00000006,-0.
 00000032,-0.00000477,0.,-0.00000078,-0.00000555,0.00000016,-0.00000125
 ,-0.00000494,0.00000010,-0.00000086,-0.00000258,-0.00051017,0.00191471
 ,-0.00379268,-0.00000006,0.00000097,-0.00000270,0.00000010,0.00000185,
 0.00000073,-0.00000043,0.00000116,0.00000150\\\@


 WHEN A MATHEMATICIAN ENGAGED IN INVESTIGATING
 PHYSICAL ACTIONS AND RESULTS HAS ARRIVED AT HIS
 CONCLUSIONS, MAY THEY NOT BE EXPRESSED IN COMMON
 LANGUAGE AS FULLY, CLEARLY, AND DEFINITELY AS IN
 MATHEMATICAL FORMULAE?
           - LETTER FROM M. FARADAY TO J.C. MAXWELL, 1857.
 Job cpu time:       1 days  7 hours  4 minutes 27.5 seconds.
 Elapsed time:       0 days  1 hours 33 minutes 28.6 seconds.
 File lengths (MBytes):  RWF=   2274 Int=      0 D2E=      0 Chk=     47 Scr=      1
 Normal termination of Gaussian 16 at Thu Jul 25 01:38:46 2019.
