 Entering Gaussian System, Link 0=/share/apps/gaussian16/g16/g16
 Initial command:
 /share/apps/gaussian16/g16/l1.exe "/home/amen01//scratch/1011/Gau-8043.inp" -scrdir="/home/amen01//scratch/1011/"
 Entering Link 1 = /share/apps/gaussian16/g16/l1.exe PID=      8044.
  
 Copyright (c) 1988-2017, Gaussian, Inc.  All Rights Reserved.
  
 This is part of the Gaussian(R) 16 program.  It is based on
 the Gaussian(R) 09 system (copyright 2009, Gaussian, Inc.),
 the Gaussian(R) 03 system (copyright 2003, Gaussian, Inc.),
 the Gaussian(R) 98 system (copyright 1998, Gaussian, Inc.),
 the Gaussian(R) 94 system (copyright 1995, Gaussian, Inc.),
 the Gaussian 92(TM) system (copyright 1992, Gaussian, Inc.),
 the Gaussian 90(TM) system (copyright 1990, Gaussian, Inc.),
 the Gaussian 88(TM) system (copyright 1988, Gaussian, Inc.),
 the Gaussian 86(TM) system (copyright 1986, Carnegie Mellon
 University), and the Gaussian 82(TM) system (copyright 1983,
 Carnegie Mellon University). Gaussian is a federally registered
 trademark of Gaussian, Inc.
  
 This software contains proprietary and confidential information,
 including trade secrets, belonging to Gaussian, Inc.
  
 This software is provided under written license and may be
 used, copied, transmitted, or stored only in accord with that
 written license.
  
 The following legend is applicable only to US Government
 contracts under FAR:
  
                    RESTRICTED RIGHTS LEGEND
  
 Use, reproduction and disclosure by the US Government is
 subject to restrictions as set forth in subparagraphs (a)
 and (c) of the Commercial Computer Software - Restricted
 Rights clause in FAR 52.227-19.
  
 Gaussian, Inc.
 340 Quinnipiac St., Bldg. 40, Wallingford CT 06492
  
  
 ---------------------------------------------------------------
 Warning -- This program may not be used in any manner that
 competes with the business of Gaussian, Inc. or will provide
 assistance to any competitor of Gaussian, Inc.  The licensee
 of this program is prohibited from giving any competitor of
 Gaussian, Inc. access to this program.  By using this program,
 the user acknowledges that Gaussian, Inc. is engaged in the
 business of creating and licensing software in the field of
 computational chemistry and represents and warrants to the
 licensee that it is not a competitor of Gaussian, Inc. and that
 it will not use this program in any manner prohibited above.
 ---------------------------------------------------------------
  

 Cite this work as:
 Gaussian 16, Revision B.01,
 M. J. Frisch, G. W. Trucks, H. B. Schlegel, G. E. Scuseria, 
 M. A. Robb, J. R. Cheeseman, G. Scalmani, V. Barone, 
 G. A. Petersson, H. Nakatsuji, X. Li, M. Caricato, A. V. Marenich, 
 J. Bloino, B. G. Janesko, R. Gomperts, B. Mennucci, H. P. Hratchian, 
 J. V. Ortiz, A. F. Izmaylov, J. L. Sonnenberg, D. Williams-Young, 
 F. Ding, F. Lipparini, F. Egidi, J. Goings, B. Peng, A. Petrone, 
 T. Henderson, D. Ranasinghe, V. G. Zakrzewski, J. Gao, N. Rega, 
 G. Zheng, W. Liang, M. Hada, M. Ehara, K. Toyota, R. Fukuda, 
 J. Hasegawa, M. Ishida, T. Nakajima, Y. Honda, O. Kitao, H. Nakai, 
 T. Vreven, K. Throssell, J. A. Montgomery, Jr., J. E. Peralta, 
 F. Ogliaro, M. J. Bearpark, J. J. Heyd, E. N. Brothers, K. N. Kudin, 
 V. N. Staroverov, T. A. Keith, R. Kobayashi, J. Normand, 
 K. Raghavachari, A. P. Rendell, J. C. Burant, S. S. Iyengar, 
 J. Tomasi, M. Cossi, J. M. Millam, M. Klene, C. Adamo, R. Cammi, 
 J. W. Ochterski, R. L. Martin, K. Morokuma, O. Farkas, 
 J. B. Foresman, and D. J. Fox, Gaussian, Inc., Wallingford CT, 2016.
 
 ******************************************
 Gaussian 16:  ES64L-G16RevB.01 20-Dec-2017
                 7-Sep-2019 
 ******************************************
 %nprocshared=20
 Will use up to   20 processors via shared memory.
 %mem=180GB
 %chk=7-memb-dirTSguess-6bcis.chk
 ---------------------------------------------------------------
 # opt=(ts,calcfc,noeigen) freq b3lyp/6-311+g(d,p) int=grid=fine
 ---------------------------------------------------------------
 1/5=1,10=4,11=1,18=20,26=3,38=1/1,3;
 2/9=110,12=2,17=6,18=5,40=1/2;
 3/5=4,6=6,7=111,11=2,25=1,30=1,71=2,74=-5,75=-4,140=1/1,2,3;
 4//1;
 5/5=2,38=5/2;
 8/6=4,10=90,11=11/1;
 11/6=1,8=1,9=11,15=111,16=1/1,2,10;
 10/6=1,13=1/2;
 6/7=2,8=2,9=2,10=2,28=1/1;
 7/10=1,18=20,25=1/1,2,3,16;
 1/5=1,10=4,11=1,18=20,26=3/3(2);
 2/9=110/2;
 99//99;
 2/9=110/2;
 3/5=4,6=6,7=111,11=2,25=1,30=1,71=1,74=-5,75=-4/1,2,3;
 4/5=5,16=3,69=1/1;
 5/5=2,38=5/2;
 7//1,2,3,16;
 1/5=1,11=1,18=20,26=3/3(-5);
 2/9=110/2;
 6/7=2,8=2,9=2,10=2,19=2,28=1/1;
 99/9=1/99;
 -----------------------
 7-memb-dirTSguess-6bcis
 -----------------------
 Symbolic Z-matrix:
 Charge =  0 Multiplicity = 1
 C                    -1.4546   -2.8933    0.0987 
 C                    -1.3493   -1.5458   -0.2454 
 C                    -2.4686   -0.7159   -0.3814 
 C                    -3.7566   -1.1133   -0.1067 
 C                    -2.8039   -3.3666    0.2682 
 C                    -3.8999   -2.513     0.1845 
 C                    -2.0194    0.6149   -0.5008 
 C                    -2.9139    1.7012   -0.2708 
 C                    -4.3156    1.2984   -0.0864 
 C                    -4.7145   -0.0102   -0.0222 
 C                    -0.6293    0.6323   -0.4225 
 C                     0.0605    1.819    -0.1659 
 C                    -0.8193    3.092    -0.3 
 C                    -2.323     2.9202   -0.1217 
 C                    -0.2082   -3.5217    0.3124 
 C                     0.996    -2.795     0.2367 
 C                     1.0415   -1.3522   -0.0002 
 C                    -0.1875   -0.7595   -0.2534 
 C                    -0.3371    4.2705    0.5578 
 C                     1.4194    1.8984    0.0853 
 C                     1.9133    3.1886    0.5719 
 C                     1.1379    4.267     0.7881 
 C                     2.244    -3.4884    0.3824 
 C                     3.4177   -2.8355    0.2312 
 C                     3.4885   -1.4169   -0.0158 
 C                     2.2987   -0.6194   -0.0332 
 C                     2.436     0.8224   -0.1397 
 C                     3.7232    1.3037   -0.447 
 C                     4.7505   -0.8485   -0.2481 
 C                     4.8564    0.4996   -0.5182 
 H                     5.8149    0.943    -0.7635 
 H                     3.8468    2.3584   -0.646 
 H                    -0.66498   3.99273  -1.05696 
 H                     5.6266   -1.4873   -0.2409 
 H                     4.3558   -3.3767    0.2934 
 H                     2.2265   -4.555     0.5788 
 H                    -0.1507   -4.5797    0.5489 
 H                    -2.9749   -4.4085    0.5186 
 H                    -4.8864   -2.9192    0.3851 
 H                    -5.7647   -0.2297    0.1423 
 H                    -5.0614    2.0786    0.0271 
 H                    -2.8917    3.8112    0.1264 
 H                    -0.8405    4.2299    1.5399 
 H                     1.5737    5.1429    1.2592 
 H                     2.9525    3.2568    0.8642 
 H                    -0.6335    4.60588  -0.75351 
 

 GradGradGradGradGradGradGradGradGradGradGradGradGradGradGradGradGradGrad
 Berny optimization.
 Initialization pass.
                           ----------------------------
                           !    Initial Parameters    !
                           ! (Angstroms and Degrees)  !
 --------------------------                            --------------------------
 ! Name  Definition              Value          Derivative Info.                !
 --------------------------------------------------------------------------------
 ! R1    R(1,2)                  1.3947         calculate D2E/DX2 analytically  !
 ! R2    R(1,5)                  1.4399         calculate D2E/DX2 analytically  !
 ! R3    R(1,15)                 1.4121         calculate D2E/DX2 analytically  !
 ! R4    R(2,3)                  1.4            calculate D2E/DX2 analytically  !
 ! R5    R(2,18)                 1.4029         calculate D2E/DX2 analytically  !
 ! R6    R(3,4)                  1.3756         calculate D2E/DX2 analytically  !
 ! R7    R(3,7)                  1.4096         calculate D2E/DX2 analytically  !
 ! R8    R(4,6)                  1.4368         calculate D2E/DX2 analytically  !
 ! R9    R(4,10)                 1.4634         calculate D2E/DX2 analytically  !
 ! R10   R(5,6)                  1.3917         calculate D2E/DX2 analytically  !
 ! R11   R(5,38)                 1.0851         calculate D2E/DX2 analytically  !
 ! R12   R(6,39)                 1.0856         calculate D2E/DX2 analytically  !
 ! R13   R(7,8)                  1.4259         calculate D2E/DX2 analytically  !
 ! R14   R(7,11)                 1.3924         calculate D2E/DX2 analytically  !
 ! R15   R(8,9)                  1.47           calculate D2E/DX2 analytically  !
 ! R16   R(8,14)                 1.3628         calculate D2E/DX2 analytically  !
 ! R17   R(9,10)                 1.3696         calculate D2E/DX2 analytically  !
 ! R18   R(9,41)                 1.0853         calculate D2E/DX2 analytically  !
 ! R19   R(10,40)                1.0854         calculate D2E/DX2 analytically  !
 ! R20   R(11,12)                1.3964         calculate D2E/DX2 analytically  !
 ! R21   R(11,18)                1.47           calculate D2E/DX2 analytically  !
 ! R22   R(12,13)                1.5532         calculate D2E/DX2 analytically  !
 ! R23   R(12,20)                1.3842         calculate D2E/DX2 analytically  !
 ! R24   R(13,14)                1.5239         calculate D2E/DX2 analytically  !
 ! R25   R(13,19)                1.5353         calculate D2E/DX2 analytically  !
 ! R26   R(13,33)                1.1866         calculate D2E/DX2 analytically  !
 ! R27   R(14,42)                1.0858         calculate D2E/DX2 analytically  !
 ! R28   R(15,16)                1.4085         calculate D2E/DX2 analytically  !
 ! R29   R(15,37)                1.0856         calculate D2E/DX2 analytically  !
 ! R30   R(16,17)                1.4628         calculate D2E/DX2 analytically  !
 ! R31   R(16,23)                1.4351         calculate D2E/DX2 analytically  !
 ! R32   R(17,18)                1.3877         calculate D2E/DX2 analytically  !
 ! R33   R(17,26)                1.4556         calculate D2E/DX2 analytically  !
 ! R34   R(19,22)                1.4929         calculate D2E/DX2 analytically  !
 ! R35   R(19,43)                1.1043         calculate D2E/DX2 analytically  !
 ! R36   R(20,21)                1.4647         calculate D2E/DX2 analytically  !
 ! R37   R(20,27)                1.4973         calculate D2E/DX2 analytically  !
 ! R38   R(21,22)                1.3457         calculate D2E/DX2 analytically  !
 ! R39   R(21,45)                1.0817         calculate D2E/DX2 analytically  !
 ! R40   R(22,44)                1.0858         calculate D2E/DX2 analytically  !
 ! R41   R(23,24)                1.3516         calculate D2E/DX2 analytically  !
 ! R42   R(23,36)                1.0847         calculate D2E/DX2 analytically  !
 ! R43   R(24,25)                1.4417         calculate D2E/DX2 analytically  !
 ! R44   R(24,35)                1.0848         calculate D2E/DX2 analytically  !
 ! R45   R(25,26)                1.4325         calculate D2E/DX2 analytically  !
 ! R46   R(25,29)                1.4035         calculate D2E/DX2 analytically  !
 ! R47   R(26,27)                1.4522         calculate D2E/DX2 analytically  !
 ! R48   R(27,28)                1.4082         calculate D2E/DX2 analytically  !
 ! R49   R(28,30)                1.3913         calculate D2E/DX2 analytically  !
 ! R50   R(28,32)                1.0804         calculate D2E/DX2 analytically  !
 ! R51   R(29,30)                1.379          calculate D2E/DX2 analytically  !
 ! R52   R(29,34)                1.0843         calculate D2E/DX2 analytically  !
 ! R53   R(30,31)                1.0842         calculate D2E/DX2 analytically  !
 ! R54   R(33,46)                0.6849         calculate D2E/DX2 analytically  !
 ! A1    A(2,1,5)              114.6681         calculate D2E/DX2 analytically  !
 ! A2    A(2,1,15)             113.618          calculate D2E/DX2 analytically  !
 ! A3    A(5,1,15)             131.5302         calculate D2E/DX2 analytically  !
 ! A4    A(1,2,3)              122.4329         calculate D2E/DX2 analytically  !
 ! A5    A(1,2,18)             127.2604         calculate D2E/DX2 analytically  !
 ! A6    A(3,2,18)             109.226          calculate D2E/DX2 analytically  !
 ! A7    A(2,3,4)              123.9121         calculate D2E/DX2 analytically  !
 ! A8    A(2,3,7)              108.2453         calculate D2E/DX2 analytically  !
 ! A9    A(4,3,7)              126.0162         calculate D2E/DX2 analytically  !
 ! A10   A(3,4,6)              114.5365         calculate D2E/DX2 analytically  !
 ! A11   A(3,4,10)             113.9944         calculate D2E/DX2 analytically  !
 ! A12   A(6,4,10)             131.0962         calculate D2E/DX2 analytically  !
 ! A13   A(1,5,6)              121.9565         calculate D2E/DX2 analytically  !
 ! A14   A(1,5,38)             119.3694         calculate D2E/DX2 analytically  !
 ! A15   A(6,5,38)             118.5999         calculate D2E/DX2 analytically  !
 ! A16   A(4,6,5)              122.0826         calculate D2E/DX2 analytically  !
 ! A17   A(4,6,39)             119.5117         calculate D2E/DX2 analytically  !
 ! A18   A(5,6,39)             118.3622         calculate D2E/DX2 analytically  !
 ! A19   A(3,7,8)              120.3762         calculate D2E/DX2 analytically  !
 ! A20   A(3,7,11)             108.9759         calculate D2E/DX2 analytically  !
 ! A21   A(8,7,11)             127.4239         calculate D2E/DX2 analytically  !
 ! A22   A(7,8,9)              114.1833         calculate D2E/DX2 analytically  !
 ! A23   A(7,8,14)             115.283          calculate D2E/DX2 analytically  !
 ! A24   A(9,8,14)             130.1494         calculate D2E/DX2 analytically  !
 ! A25   A(8,9,10)             123.053          calculate D2E/DX2 analytically  !
 ! A26   A(8,9,41)             118.1246         calculate D2E/DX2 analytically  !
 ! A27   A(10,9,41)            118.806          calculate D2E/DX2 analytically  !
 ! A28   A(4,10,9)             121.7952         calculate D2E/DX2 analytically  !
 ! A29   A(4,10,40)            119.317          calculate D2E/DX2 analytically  !
 ! A30   A(9,10,40)            118.8251         calculate D2E/DX2 analytically  !
 ! A31   A(7,11,12)            120.9385         calculate D2E/DX2 analytically  !
 ! A32   A(7,11,18)            107.1385         calculate D2E/DX2 analytically  !
 ! A33   A(12,11,18)           129.4215         calculate D2E/DX2 analytically  !
 ! A34   A(11,12,13)           113.63           calculate D2E/DX2 analytically  !
 ! A35   A(11,12,20)           124.5449         calculate D2E/DX2 analytically  !
 ! A36   A(13,12,20)           121.6501         calculate D2E/DX2 analytically  !
 ! A37   A(12,13,14)           117.1555         calculate D2E/DX2 analytically  !
 ! A38   A(12,13,19)           113.7637         calculate D2E/DX2 analytically  !
 ! A39   A(12,13,33)           127.1222         calculate D2E/DX2 analytically  !
 ! A40   A(14,13,19)           109.3333         calculate D2E/DX2 analytically  !
 ! A41   A(14,13,33)           106.7696         calculate D2E/DX2 analytically  !
 ! A42   A(19,13,33)            74.5088         calculate D2E/DX2 analytically  !
 ! A43   A(8,14,13)            121.0543         calculate D2E/DX2 analytically  !
 ! A44   A(8,14,42)            122.1347         calculate D2E/DX2 analytically  !
 ! A45   A(13,14,42)           116.8109         calculate D2E/DX2 analytically  !
 ! A46   A(1,15,16)            121.1236         calculate D2E/DX2 analytically  !
 ! A47   A(1,15,37)            120.8902         calculate D2E/DX2 analytically  !
 ! A48   A(16,15,37)           117.9841         calculate D2E/DX2 analytically  !
 ! A49   A(15,16,17)           122.9676         calculate D2E/DX2 analytically  !
 ! A50   A(15,16,23)           119.2575         calculate D2E/DX2 analytically  !
 ! A51   A(17,16,23)           117.7715         calculate D2E/DX2 analytically  !
 ! A52   A(16,17,18)           115.0399         calculate D2E/DX2 analytically  !
 ! A53   A(16,17,26)           121.8094         calculate D2E/DX2 analytically  !
 ! A54   A(18,17,26)           123.0769         calculate D2E/DX2 analytically  !
 ! A55   A(2,18,11)            106.4053         calculate D2E/DX2 analytically  !
 ! A56   A(2,18,17)            119.5374         calculate D2E/DX2 analytically  !
 ! A57   A(11,18,17)           133.7513         calculate D2E/DX2 analytically  !
 ! A58   A(13,19,22)           113.2474         calculate D2E/DX2 analytically  !
 ! A59   A(13,19,43)           108.9947         calculate D2E/DX2 analytically  !
 ! A60   A(22,19,43)           108.2463         calculate D2E/DX2 analytically  !
 ! A61   A(12,20,21)           116.2224         calculate D2E/DX2 analytically  !
 ! A62   A(12,20,27)           126.7308         calculate D2E/DX2 analytically  !
 ! A63   A(21,20,27)           117.0002         calculate D2E/DX2 analytically  !
 ! A64   A(20,21,22)           124.4001         calculate D2E/DX2 analytically  !
 ! A65   A(20,21,45)           117.9872         calculate D2E/DX2 analytically  !
 ! A66   A(22,21,45)           117.3635         calculate D2E/DX2 analytically  !
 ! A67   A(19,22,21)           123.1202         calculate D2E/DX2 analytically  !
 ! A68   A(19,22,44)           117.4891         calculate D2E/DX2 analytically  !
 ! A69   A(21,22,44)           119.0038         calculate D2E/DX2 analytically  !
 ! A70   A(16,23,24)           120.6918         calculate D2E/DX2 analytically  !
 ! A71   A(16,23,36)           118.6509         calculate D2E/DX2 analytically  !
 ! A72   A(24,23,36)           120.6165         calculate D2E/DX2 analytically  !
 ! A73   A(23,24,25)           122.4899         calculate D2E/DX2 analytically  !
 ! A74   A(23,24,35)           120.2352         calculate D2E/DX2 analytically  !
 ! A75   A(25,24,35)           117.2749         calculate D2E/DX2 analytically  !
 ! A76   A(24,25,26)           120.6048         calculate D2E/DX2 analytically  !
 ! A77   A(24,25,29)           118.1014         calculate D2E/DX2 analytically  !
 ! A78   A(26,25,29)           121.2917         calculate D2E/DX2 analytically  !
 ! A79   A(17,26,25)           115.9029         calculate D2E/DX2 analytically  !
 ! A80   A(17,26,27)           125.6729         calculate D2E/DX2 analytically  !
 ! A81   A(25,26,27)           118.3658         calculate D2E/DX2 analytically  !
 ! A82   A(20,27,26)           129.662          calculate D2E/DX2 analytically  !
 ! A83   A(20,27,28)           114.0669         calculate D2E/DX2 analytically  !
 ! A84   A(26,27,28)           116.2162         calculate D2E/DX2 analytically  !
 ! A85   A(27,28,30)           123.927          calculate D2E/DX2 analytically  !
 ! A86   A(27,28,32)           118.5827         calculate D2E/DX2 analytically  !
 ! A87   A(30,28,32)           117.4895         calculate D2E/DX2 analytically  !
 ! A88   A(25,29,30)           119.829          calculate D2E/DX2 analytically  !
 ! A89   A(25,29,34)           119.1343         calculate D2E/DX2 analytically  !
 ! A90   A(30,29,34)           121.0114         calculate D2E/DX2 analytically  !
 ! A91   A(28,30,29)           119.5004         calculate D2E/DX2 analytically  !
 ! A92   A(28,30,31)           119.6873         calculate D2E/DX2 analytically  !
 ! A93   A(29,30,31)           120.7984         calculate D2E/DX2 analytically  !
 ! A94   A(13,33,46)           113.7606         calculate D2E/DX2 analytically  !
 ! D1    D(5,1,2,3)              1.5054         calculate D2E/DX2 analytically  !
 ! D2    D(5,1,2,18)           168.3053         calculate D2E/DX2 analytically  !
 ! D3    D(15,1,2,3)          -174.1461         calculate D2E/DX2 analytically  !
 ! D4    D(15,1,2,18)           -7.3462         calculate D2E/DX2 analytically  !
 ! D5    D(2,1,5,6)             -4.2912         calculate D2E/DX2 analytically  !
 ! D6    D(2,1,5,38)           178.8856         calculate D2E/DX2 analytically  !
 ! D7    D(15,1,5,6)           170.3841         calculate D2E/DX2 analytically  !
 ! D8    D(15,1,5,38)           -6.4392         calculate D2E/DX2 analytically  !
 ! D9    D(2,1,15,16)            2.8846         calculate D2E/DX2 analytically  !
 ! D10   D(2,1,15,37)         -177.6533         calculate D2E/DX2 analytically  !
 ! D11   D(5,1,15,16)         -171.8343         calculate D2E/DX2 analytically  !
 ! D12   D(5,1,15,37)            7.6277         calculate D2E/DX2 analytically  !
 ! D13   D(1,2,3,4)              4.5056         calculate D2E/DX2 analytically  !
 ! D14   D(1,2,3,7)            169.8966         calculate D2E/DX2 analytically  !
 ! D15   D(18,2,3,4)          -164.397          calculate D2E/DX2 analytically  !
 ! D16   D(18,2,3,7)             0.994          calculate D2E/DX2 analytically  !
 ! D17   D(1,2,18,11)         -168.993          calculate D2E/DX2 analytically  !
 ! D18   D(1,2,18,17)            5.5026         calculate D2E/DX2 analytically  !
 ! D19   D(3,2,18,11)           -0.7708         calculate D2E/DX2 analytically  !
 ! D20   D(3,2,18,17)          173.7247         calculate D2E/DX2 analytically  !
 ! D21   D(2,3,4,6)             -7.1404         calculate D2E/DX2 analytically  !
 ! D22   D(2,3,4,10)           166.6413         calculate D2E/DX2 analytically  !
 ! D23   D(7,3,4,6)           -169.914          calculate D2E/DX2 analytically  !
 ! D24   D(7,3,4,10)             3.8678         calculate D2E/DX2 analytically  !
 ! D25   D(2,3,7,8)           -161.9826         calculate D2E/DX2 analytically  !
 ! D26   D(2,3,7,11)            -0.821          calculate D2E/DX2 analytically  !
 ! D27   D(4,3,7,8)              3.0195         calculate D2E/DX2 analytically  !
 ! D28   D(4,3,7,11)           164.1811         calculate D2E/DX2 analytically  !
 ! D29   D(3,4,6,5)              4.1694         calculate D2E/DX2 analytically  !
 ! D30   D(3,4,6,39)          -178.2698         calculate D2E/DX2 analytically  !
 ! D31   D(10,4,6,5)          -168.2853         calculate D2E/DX2 analytically  !
 ! D32   D(10,4,6,39)            9.2755         calculate D2E/DX2 analytically  !
 ! D33   D(3,4,10,9)            -5.9128         calculate D2E/DX2 analytically  !
 ! D34   D(3,4,10,40)          177.0022         calculate D2E/DX2 analytically  !
 ! D35   D(6,4,10,9)           166.5743         calculate D2E/DX2 analytically  !
 ! D36   D(6,4,10,40)          -10.5107         calculate D2E/DX2 analytically  !
 ! D37   D(1,5,6,4)              1.4753         calculate D2E/DX2 analytically  !
 ! D38   D(1,5,6,39)          -176.1124         calculate D2E/DX2 analytically  !
 ! D39   D(38,5,6,4)           178.3221         calculate D2E/DX2 analytically  !
 ! D40   D(38,5,6,39)            0.7344         calculate D2E/DX2 analytically  !
 ! D41   D(3,7,8,9)             -7.481          calculate D2E/DX2 analytically  !
 ! D42   D(3,7,8,14)           166.1366         calculate D2E/DX2 analytically  !
 ! D43   D(11,7,8,9)          -164.8685         calculate D2E/DX2 analytically  !
 ! D44   D(11,7,8,14)            8.7491         calculate D2E/DX2 analytically  !
 ! D45   D(3,7,11,12)         -163.3202         calculate D2E/DX2 analytically  !
 ! D46   D(3,7,11,18)            0.3387         calculate D2E/DX2 analytically  !
 ! D47   D(8,7,11,12)           -3.8551         calculate D2E/DX2 analytically  !
 ! D48   D(8,7,11,18)          159.8038         calculate D2E/DX2 analytically  !
 ! D49   D(7,8,9,10)             5.4917         calculate D2E/DX2 analytically  !
 ! D50   D(7,8,9,41)          -176.0017         calculate D2E/DX2 analytically  !
 ! D51   D(14,8,9,10)         -166.952          calculate D2E/DX2 analytically  !
 ! D52   D(14,8,9,41)           11.5546         calculate D2E/DX2 analytically  !
 ! D53   D(7,8,14,13)            4.4275         calculate D2E/DX2 analytically  !
 ! D54   D(7,8,14,42)         -175.6505         calculate D2E/DX2 analytically  !
 ! D55   D(9,8,14,13)          176.8037         calculate D2E/DX2 analytically  !
 ! D56   D(9,8,14,42)           -3.2743         calculate D2E/DX2 analytically  !
 ! D57   D(8,9,10,4)             1.2785         calculate D2E/DX2 analytically  !
 ! D58   D(8,9,10,40)          178.3775         calculate D2E/DX2 analytically  !
 ! D59   D(41,9,10,4)         -177.2184         calculate D2E/DX2 analytically  !
 ! D60   D(41,9,10,40)          -0.1195         calculate D2E/DX2 analytically  !
 ! D61   D(7,11,12,13)         -12.833          calculate D2E/DX2 analytically  !
 ! D62   D(7,11,12,20)         171.9236         calculate D2E/DX2 analytically  !
 ! D63   D(18,11,12,13)       -172.4653         calculate D2E/DX2 analytically  !
 ! D64   D(18,11,12,20)         12.2913         calculate D2E/DX2 analytically  !
 ! D65   D(7,11,18,2)            0.2626         calculate D2E/DX2 analytically  !
 ! D66   D(7,11,18,17)        -173.103          calculate D2E/DX2 analytically  !
 ! D67   D(12,11,18,2)         162.0589         calculate D2E/DX2 analytically  !
 ! D68   D(12,11,18,17)        -11.3067         calculate D2E/DX2 analytically  !
 ! D69   D(11,12,13,14)         24.0042         calculate D2E/DX2 analytically  !
 ! D70   D(11,12,13,19)        153.2313         calculate D2E/DX2 analytically  !
 ! D71   D(11,12,13,33)       -118.645          calculate D2E/DX2 analytically  !
 ! D72   D(20,12,13,14)       -160.598          calculate D2E/DX2 analytically  !
 ! D73   D(20,12,13,19)        -31.3709         calculate D2E/DX2 analytically  !
 ! D74   D(20,12,13,33)         56.7528         calculate D2E/DX2 analytically  !
 ! D75   D(11,12,20,21)       -169.1285         calculate D2E/DX2 analytically  !
 ! D76   D(11,12,20,27)         13.4413         calculate D2E/DX2 analytically  !
 ! D77   D(13,12,20,21)         15.9916         calculate D2E/DX2 analytically  !
 ! D78   D(13,12,20,27)       -161.4385         calculate D2E/DX2 analytically  !
 ! D79   D(12,13,14,8)         -20.6078         calculate D2E/DX2 analytically  !
 ! D80   D(12,13,14,42)        159.4662         calculate D2E/DX2 analytically  !
 ! D81   D(19,13,14,8)        -151.9016         calculate D2E/DX2 analytically  !
 ! D82   D(19,13,14,42)         28.1724         calculate D2E/DX2 analytically  !
 ! D83   D(33,13,14,8)         129.0453         calculate D2E/DX2 analytically  !
 ! D84   D(33,13,14,42)        -50.8807         calculate D2E/DX2 analytically  !
 ! D85   D(12,13,19,22)         29.2153         calculate D2E/DX2 analytically  !
 ! D86   D(12,13,19,43)        -91.333          calculate D2E/DX2 analytically  !
 ! D87   D(14,13,19,22)        162.2913         calculate D2E/DX2 analytically  !
 ! D88   D(14,13,19,43)         41.743          calculate D2E/DX2 analytically  !
 ! D89   D(33,13,19,22)        -94.9965         calculate D2E/DX2 analytically  !
 ! D90   D(33,13,19,43)        144.4552         calculate D2E/DX2 analytically  !
 ! D91   D(12,13,33,46)       -125.7446         calculate D2E/DX2 analytically  !
 ! D92   D(14,13,33,46)         88.5741         calculate D2E/DX2 analytically  !
 ! D93   D(19,13,33,46)        -17.4049         calculate D2E/DX2 analytically  !
 ! D94   D(1,15,16,17)           2.9811         calculate D2E/DX2 analytically  !
 ! D95   D(1,15,16,23)        -176.3401         calculate D2E/DX2 analytically  !
 ! D96   D(37,15,16,17)       -176.4961         calculate D2E/DX2 analytically  !
 ! D97   D(37,15,16,23)          4.1826         calculate D2E/DX2 analytically  !
 ! D98   D(15,16,17,18)         -4.9398         calculate D2E/DX2 analytically  !
 ! D99   D(15,16,17,26)        178.0929         calculate D2E/DX2 analytically  !
 ! D100  D(23,16,17,18)        174.3909         calculate D2E/DX2 analytically  !
 ! D101  D(23,16,17,26)         -2.5764         calculate D2E/DX2 analytically  !
 ! D102  D(15,16,23,24)        175.8085         calculate D2E/DX2 analytically  !
 ! D103  D(15,16,23,36)         -1.8825         calculate D2E/DX2 analytically  !
 ! D104  D(17,16,23,24)         -3.5479         calculate D2E/DX2 analytically  !
 ! D105  D(17,16,23,36)        178.7611         calculate D2E/DX2 analytically  !
 ! D106  D(16,17,18,2)           0.9624         calculate D2E/DX2 analytically  !
 ! D107  D(16,17,18,11)        173.6439         calculate D2E/DX2 analytically  !
 ! D108  D(26,17,18,2)         177.8868         calculate D2E/DX2 analytically  !
 ! D109  D(26,17,18,11)         -9.4318         calculate D2E/DX2 analytically  !
 ! D110  D(16,17,26,25)          8.764          calculate D2E/DX2 analytically  !
 ! D111  D(16,17,26,27)       -174.0758         calculate D2E/DX2 analytically  !
 ! D112  D(18,17,26,25)       -167.9568         calculate D2E/DX2 analytically  !
 ! D113  D(18,17,26,27)          9.2035         calculate D2E/DX2 analytically  !
 ! D114  D(13,19,22,21)        -16.0376         calculate D2E/DX2 analytically  !
 ! D115  D(13,19,22,44)        171.1853         calculate D2E/DX2 analytically  !
 ! D116  D(43,19,22,21)        104.9344         calculate D2E/DX2 analytically  !
 ! D117  D(43,19,22,44)        -67.8427         calculate D2E/DX2 analytically  !
 ! D118  D(12,20,21,22)          0.3585         calculate D2E/DX2 analytically  !
 ! D119  D(12,20,21,45)        174.4597         calculate D2E/DX2 analytically  !
 ! D120  D(27,20,21,22)        178.047          calculate D2E/DX2 analytically  !
 ! D121  D(27,20,21,45)         -7.8518         calculate D2E/DX2 analytically  !
 ! D122  D(12,20,27,26)        -32.8754         calculate D2E/DX2 analytically  !
 ! D123  D(12,20,27,28)        149.961          calculate D2E/DX2 analytically  !
 ! D124  D(21,20,27,26)        149.7121         calculate D2E/DX2 analytically  !
 ! D125  D(21,20,27,28)        -27.4516         calculate D2E/DX2 analytically  !
 ! D126  D(20,21,22,19)          0.2201         calculate D2E/DX2 analytically  !
 ! D127  D(20,21,22,44)        172.8933         calculate D2E/DX2 analytically  !
 ! D128  D(45,21,22,19)       -173.9148         calculate D2E/DX2 analytically  !
 ! D129  D(45,21,22,44)         -1.2416         calculate D2E/DX2 analytically  !
 ! D130  D(16,23,24,25)          3.0717         calculate D2E/DX2 analytically  !
 ! D131  D(16,23,24,35)       -176.9103         calculate D2E/DX2 analytically  !
 ! D132  D(36,23,24,25)       -179.2828         calculate D2E/DX2 analytically  !
 ! D133  D(36,23,24,35)          0.7352         calculate D2E/DX2 analytically  !
 ! D134  D(23,24,25,26)          3.7113         calculate D2E/DX2 analytically  !
 ! D135  D(23,24,25,29)       -175.7674         calculate D2E/DX2 analytically  !
 ! D136  D(35,24,25,26)       -176.3061         calculate D2E/DX2 analytically  !
 ! D137  D(35,24,25,29)          4.2152         calculate D2E/DX2 analytically  !
 ! D138  D(24,25,26,17)         -9.2803         calculate D2E/DX2 analytically  !
 ! D139  D(24,25,26,27)        173.3412         calculate D2E/DX2 analytically  !
 ! D140  D(29,25,26,17)        170.1815         calculate D2E/DX2 analytically  !
 ! D141  D(29,25,26,27)         -7.1969         calculate D2E/DX2 analytically  !
 ! D142  D(24,25,29,30)        178.5346         calculate D2E/DX2 analytically  !
 ! D143  D(24,25,29,34)          0.3493         calculate D2E/DX2 analytically  !
 ! D144  D(26,25,29,30)         -0.9404         calculate D2E/DX2 analytically  !
 ! D145  D(26,25,29,34)       -179.1256         calculate D2E/DX2 analytically  !
 ! D146  D(17,26,27,20)         16.2953         calculate D2E/DX2 analytically  !
 ! D147  D(17,26,27,28)       -166.5915         calculate D2E/DX2 analytically  !
 ! D148  D(25,26,27,20)       -166.6078         calculate D2E/DX2 analytically  !
 ! D149  D(25,26,27,28)         10.5054         calculate D2E/DX2 analytically  !
 ! D150  D(20,27,28,30)        171.053          calculate D2E/DX2 analytically  !
 ! D151  D(20,27,28,32)         -9.2855         calculate D2E/DX2 analytically  !
 ! D152  D(26,27,28,30)         -6.5134         calculate D2E/DX2 analytically  !
 ! D153  D(26,27,28,32)        173.1481         calculate D2E/DX2 analytically  !
 ! D154  D(27,28,30,29)         -1.5031         calculate D2E/DX2 analytically  !
 ! D155  D(27,28,30,31)        179.842          calculate D2E/DX2 analytically  !
 ! D156  D(32,28,30,29)        178.832          calculate D2E/DX2 analytically  !
 ! D157  D(32,28,30,31)          0.1771         calculate D2E/DX2 analytically  !
 ! D158  D(25,29,30,28)          5.3696         calculate D2E/DX2 analytically  !
 ! D159  D(25,29,30,31)       -175.9909         calculate D2E/DX2 analytically  !
 ! D160  D(34,29,30,28)       -176.4799         calculate D2E/DX2 analytically  !
 ! D161  D(34,29,30,31)          2.1596         calculate D2E/DX2 analytically  !
 --------------------------------------------------------------------------------
 Trust Radius=3.00D-01 FncErr=1.00D-07 GrdErr=1.00D-06 EigMax=2.50D+02 EigMin=1.00D-04
 Number of steps in this run=    276 maximum allowed number of steps=    276.
 Search for a saddle point of order  1.
 GradGradGradGradGradGradGradGradGradGradGradGradGradGradGradGradGradGrad

                          Input orientation:                          
 ---------------------------------------------------------------------
 Center     Atomic      Atomic             Coordinates (Angstroms)
 Number     Number       Type             X           Y           Z
 ---------------------------------------------------------------------
      1          6           0       -1.454600   -2.893300    0.098700
      2          6           0       -1.349300   -1.545800   -0.245400
      3          6           0       -2.468600   -0.715900   -0.381400
      4          6           0       -3.756600   -1.113300   -0.106700
      5          6           0       -2.803900   -3.366600    0.268200
      6          6           0       -3.899900   -2.513000    0.184500
      7          6           0       -2.019400    0.614900   -0.500800
      8          6           0       -2.913900    1.701200   -0.270800
      9          6           0       -4.315600    1.298400   -0.086400
     10          6           0       -4.714500   -0.010200   -0.022200
     11          6           0       -0.629300    0.632300   -0.422500
     12          6           0        0.060500    1.819000   -0.165900
     13          6           0       -0.819300    3.092000   -0.300000
     14          6           0       -2.323000    2.920200   -0.121700
     15          6           0       -0.208200   -3.521700    0.312400
     16          6           0        0.996000   -2.795000    0.236700
     17          6           0        1.041500   -1.352200   -0.000200
     18          6           0       -0.187500   -0.759500   -0.253400
     19          6           0       -0.337100    4.270500    0.557800
     20          6           0        1.419400    1.898400    0.085300
     21          6           0        1.913300    3.188600    0.571900
     22          6           0        1.137900    4.267000    0.788100
     23          6           0        2.244000   -3.488400    0.382400
     24          6           0        3.417700   -2.835500    0.231200
     25          6           0        3.488500   -1.416900   -0.015800
     26          6           0        2.298700   -0.619400   -0.033200
     27          6           0        2.436000    0.822400   -0.139700
     28          6           0        3.723200    1.303700   -0.447000
     29          6           0        4.750500   -0.848500   -0.248100
     30          6           0        4.856400    0.499600   -0.518200
     31          1           0        5.814900    0.943000   -0.763500
     32          1           0        3.846800    2.358400   -0.646000
     33          1           0       -0.664980    3.992730   -1.056960
     34          1           0        5.626600   -1.487300   -0.240900
     35          1           0        4.355800   -3.376700    0.293400
     36          1           0        2.226500   -4.555000    0.578800
     37          1           0       -0.150700   -4.579700    0.548900
     38          1           0       -2.974900   -4.408500    0.518600
     39          1           0       -4.886400   -2.919200    0.385100
     40          1           0       -5.764700   -0.229700    0.142300
     41          1           0       -5.061400    2.078600    0.027100
     42          1           0       -2.891700    3.811200    0.126400
     43          1           0       -0.840500    4.229900    1.539900
     44          1           0        1.573700    5.142900    1.259200
     45          1           0        2.952500    3.256800    0.864200
     46          1           0       -0.633500    4.605880   -0.753510
 ---------------------------------------------------------------------
                    Distance matrix (angstroms):
                    1          2          3          4          5
     1  C    0.000000
     2  C    1.394722   0.000000
     3  C    2.449441   1.400022   0.000000
     4  C    2.917155   2.449773   1.375620   0.000000
     5  C    1.439914   2.386411   2.749658   2.474984   0.000000
     6  C    2.476183   2.761494   2.366100   1.436834   1.391709
     7  C    3.603591   2.276596   1.409633   2.481905   4.130272
     8  C    4.834823   3.604390   2.460264   2.942530   5.097570
     9  C    5.078379   4.112626   2.748789   2.475720   4.916625
    10  C    4.353600   3.705733   2.381408   1.463401   3.873002
    11  C    3.658227   2.300844   2.280868   3.595393   4.604037
    12  C    4.956946   3.649073   3.587270   4.813745   5.940007
    13  C    6.032113   4.668305   4.150532   5.133190   6.780487
    14  C    5.882132   4.572587   3.648269   4.280719   6.317210
    15  C    1.412114   2.348921   3.669234   4.308965   2.600705
    16  C    2.456450   2.700621   4.087561   5.053043   3.842780
    17  C    2.935181   2.411126   3.587617   4.805224   4.349362
    18  C    2.506515   1.402894   2.285104   3.589592   3.730226
    19  C    7.264958   5.958106   5.503596   6.412476   8.030832
    20  C    5.587526   4.431430   4.708388   5.991509   6.752032
    21  C    6.968226   5.807502   5.946003   7.149448   8.081761
    22  C    7.646321   6.406476   6.261299   7.328330   8.606970
    23  C    3.756897   4.132751   5.520756   6.472057   5.050660
    24  C    4.874444   4.961327   6.286216   7.385847   6.244337
    25  C    5.160146   4.844960   6.009335   7.252028   6.593655
    26  C    4.390362   3.769768   4.780973   6.075854   5.802971
    27  C    5.385168   4.466323   5.145861   6.488168   6.720912
    28  C    6.687467   5.821559   6.513177   7.867979   8.057683
    29  C    6.542533   6.139527   7.221548   8.512395   7.979746
    30  C    7.191735   6.539785   7.426424   8.772374   8.616619
    31  H    8.264758   7.601863   8.456614   9.811899   9.691273
    32  H    7.499318   6.511737   7.028912   8.375872   8.822879
    33  H    7.026838   5.639347   5.087300   6.044225   7.777581
    34  H    7.227417   6.976147   8.133084   9.391609   8.652415
    35  H    5.833724   6.015868   7.355790   8.431731   7.159751
    36  H    4.067215   4.745623   6.140410   6.936332   5.178194
    37  H    2.178711   3.357395   4.600768   5.044626   2.930849
    38  H    2.187112   3.379545   3.834271   3.443893   1.085125
    39  H    3.443827   3.846405   3.359734   2.186227   2.133223
    40  H    5.066915   4.623655   3.372674   2.207989   4.315360
    41  H    6.142794   5.195211   3.833890   3.450888   5.899546
    42  H    6.856847   5.587010   4.575097   5.005306   7.179737
    43  H    7.293432   6.066703   5.550049   6.305927   7.948520
    44  H    8.665903   7.452950   7.304608   8.331736   9.620658
    45  H    7.604752   6.542298   6.835363   8.065510   8.795498
    46  H    7.591980   6.213993   5.641578   6.548369   8.325561
                    6          7          8          9         10
     6  C    0.000000
     7  C    3.713445   0.000000
     8  C    4.351893   1.425860   0.000000
     9  C    3.843561   2.431344   1.470039   0.000000
    10  C    2.640134   2.807734   2.496568   1.369554   0.000000
    11  C    4.578011   1.392412   2.526847   3.761045   4.154745
    12  C    5.879947   2.426520   2.978580   4.407675   5.115393
    13  C    6.414114   2.759816   2.514463   3.935320   4.987324
    14  C    5.665689   2.355907   1.362848   2.569423   3.783704
    15  C    3.829162   4.588377   5.910974   6.345324   5.722703
    16  C    4.904293   4.611286   5.980024   6.713673   6.358612
    17  C    5.079272   3.672763   5.004165   5.977594   5.910413
    18  C    4.128975   2.303484   3.672684   4.615631   4.594413
    19  C    7.671295   4.161031   3.731994   5.007678   6.149994
    20  C    6.911240   3.717019   4.352377   5.768857   6.424877
    21  C    8.151786   4.820866   5.120973   6.542584   7.383293
    22  C    8.468303   4.996763   4.911383   6.270407   7.293943
    23  C    6.223992   5.982783   7.345921   8.133977   7.789884
    24  C    7.324852   6.480983   7.805306   8.774618   8.612735
    25  C    7.471948   5.890704   7.125889   8.263281   8.322743
    26  C    6.485041   4.515322   5.710765   6.886926   7.039618
    27  C    7.167540   4.474823   5.423182   6.768568   7.199769
    28  C    8.548546   5.784012   6.651327   8.046885   8.549946
    29  C    8.819701   6.930869   8.077408   9.318235   9.504736
    30  C    9.286675   6.876789   7.866550   9.216839   9.597293
    31  H   10.354708   7.845567   8.775510  10.159321  10.598414
    32  H    9.188669   6.121534   6.802922   8.249941   8.904788
    33  H    7.370919   3.681508   3.305571   4.639874   5.787295
    34  H    9.590997   7.933984   9.116335  10.326245  10.448349
    35  H    8.301471   7.563518   8.885490   9.858701   9.680045
    36  H    6.469777   6.776509   8.141595   8.803627   8.318286
    37  H    4.296573   5.619411   6.910636   7.232016   6.483422
    38  H    2.135455   5.214087   6.160788   5.893404   4.760642
    39  H    1.085551   4.636202   5.066464   4.282088   2.942401
    40  H    2.948342   3.892839   3.467865   2.118321   1.085431
    41  H    4.738845   3.416849   2.200666   1.085270   2.117984
    42  H    6.404323   3.372035   2.147175   2.896021   4.236482
    43  H    7.527532   4.315378   3.737907   4.828547   5.952015
    44  H    9.472491   6.042413   5.858733   7.160634   8.230303
    45  H    8.983761   5.793328   6.174364   7.587111   8.381043
    46  H    7.888453   4.232316   3.724298   4.994229   6.204641
                   11         12         13         14         15
    11  C    0.000000
    12  C    1.396397   0.000000
    13  C    2.470067   1.553242   0.000000
    14  C    2.862444   2.625960   1.523949   0.000000
    15  C    4.239472   5.368803   6.670045   6.794034   0.000000
    16  C    3.850004   4.725065   6.183860   6.618740   1.408517
    17  C    2.628336   3.323601   4.827356   5.439487   2.523133
    18  C    1.469996   2.591876   3.903254   4.256512   2.819629
    19  C    3.779268   2.586828   1.535318   2.495762   7.797129
    20  C    2.461309   1.384202   2.566109   3.884904   5.663757
    21  C    3.740096   2.419302   2.869955   4.301088   7.042459
    22  C    4.218956   2.839650   2.528877   3.823537   7.918467
    23  C    5.087621   5.765137   7.290483   7.885541   2.453425
    24  C    5.369466   5.752639   7.305450   8.136846   3.691154
    25  C    4.617456   4.716435   6.242443   7.252254   4.266555
    26  C    3.208035   3.312543   4.854647   5.822088   3.850628
    27  C    3.084182   2.576218   3.971619   5.200882   5.105624
    28  C    4.404048   3.709437   4.884049   6.267011   6.270333
    29  C    5.582601   5.396148   6.822969   8.015827   5.661172
    30  C    5.488139   4.986541   6.243534   7.586851   6.520040
    31  H    6.460691   5.851292   6.988966   8.399205   7.574222
    32  H    4.802587   3.854545   4.736072   6.217471   7.206742
    33  H    3.419986   2.458742   1.186641   2.184963   7.651827
    34  H    6.607720   6.474466   7.907156   9.090457   6.204016
    35  H    6.437066   6.756912   8.305291   9.188560   4.566342
    36  H    6.005521   6.773036   8.278031   8.778796   2.658278
    37  H    5.323309   6.441964   7.747428   7.836906   1.085635
    38  H    5.638898   6.961605   7.846924   7.385445   2.912655
    39  H    5.602524   6.872115   7.290075   6.397379   4.717398
    40  H    5.237784   6.182646   5.973801   4.672993   6.460719
    41  H    4.683741   5.132105   4.373715   2.868670   7.416084
    42  H    3.940197   3.573484   2.234705   1.085751   7.810710
    43  H    4.103455   3.087717   2.163446   2.583415   7.873618
    44  H    5.294038   3.920331   3.516212   4.693778   8.896454
    45  H    4.623082   3.389991   3.950822   5.377378   7.499505
    46  H    3.987345   2.931488   1.591234   2.468828   8.208203
                   16         17         18         19         20
    16  C    0.000000
    17  C    1.462827   0.000000
    18  C    2.405022   1.387748   0.000000
    19  C    7.197329   5.816069   5.097188   0.000000
    20  C    4.714891   3.273609   3.124304   2.989215   0.000000
    21  C    6.062777   4.658991   4.547744   2.497000   1.464695
    22  C    7.084915   5.675043   5.301614   1.492875   2.486652
    23  C    1.435108   2.481076   3.709896   8.178837   5.457641
    24  C    2.422045   2.810703   4.188327   8.043658   5.140457
    25  C    2.859278   2.447905   3.741872   6.878281   3.909298
    26  C    2.550119   1.455554   2.499861   5.586398   2.669556
    27  C    3.911631   2.587079   3.065630   4.479507   1.497290
    28  C    4.970353   3.800651   4.425816   5.128115   2.438136
    29  C    4.256779   3.751246   4.938805   7.262046   4.330455
    30  C    5.130980   4.272113   5.205418   6.507680   3.759498
    31  H    6.180198   5.351254   6.259993   7.117949   4.577518
    32  H    5.955145   4.696309   5.113806   4.755027   2.576562
    33  H    7.106735   5.709386   4.843283   1.670961   3.167904
    34  H    4.835353   4.593401   5.859489   8.328019   5.410167
    35  H    3.410256   3.894790   5.271651   8.976240   6.040897
    36  H    2.174572   3.463725   4.574470   9.190318   6.522371
    37  H    2.144188   3.484194   3.903712   8.852167   6.681760
    38  H    4.295451   5.073617   4.656263   9.071084   7.699001
    39  H    5.885582   6.143610   5.210724   8.509861   7.941175
    40  H    7.231648   6.899614   5.616264   7.062810   7.492887
    41  H    7.777403   7.001180   5.646981   5.234986   6.483566
    42  H    7.666046   6.492056   5.324307   2.631168   4.716575
    43  H    7.377010   6.088815   5.341952   1.104346   3.557935
    44  H    8.024307   6.637443   6.342563   2.214543   3.453785
    45  H    6.391082   5.063792   5.219128   3.455855   2.191422
    46  H    7.642566   6.234727   5.407063   1.385593   3.499778
                   21         22         23         24         25
    21  C    0.000000
    22  C    1.345710   0.000000
    23  C    6.687870   7.844379   0.000000
    24  C    6.218446   7.480183   1.351559   0.000000
    25  C    4.902783   6.203088   2.449175   1.441682   0.000000
    26  C    3.874989   5.089096   2.899461   2.496631   1.432457
    27  C    2.525568   3.796201   4.346544   3.805461   2.477412
    28  C    2.804772   4.121941   5.083322   4.205504   2.764540
    29  C    5.002028   6.347671   3.694475   2.440134   1.403455
    30  C    4.132902   5.452244   4.851789   3.708686   2.407598
    31  H    4.695583   5.943969   5.805318   4.584000   3.397105
    32  H    2.431241   3.610753   6.149117   5.284903   3.844271
    33  H    3.153940   2.594195   8.154829   8.059303   6.899240
    34  H    6.026050   7.370159   3.979307   2.630544   2.151069
    35  H    7.010459   8.308174   2.116624   1.084803   2.165324
    36  H    7.749934   8.891374   1.084673   2.120487   3.434220
    37  H    8.037855   8.943255   2.636901   3.984551   4.854479
    38  H    9.034006   9.604793   5.301137   6.589557   7.142184
    39  H    9.141993   9.385951   7.153083   8.305948   8.518015
    40  H    8.415522   8.263368   8.649627   9.545395   9.330389
    41  H    7.083456   6.618122   9.191659   9.802304   9.236945
    42  H    4.865606   4.108926   8.928892   9.165049   8.249861
    43  H    3.099152   2.116754   8.392026   8.352535   7.283323
    44  H    2.099285   1.085844   8.701576   8.252999   6.951479
    45  H    1.081678   2.078237   6.799399   6.142737   4.785934
    46  H    3.201810   2.372606   8.665314   8.529713   7.335460
                   26         27         28         29         30
    26  C    0.000000
    27  C    1.452233   0.000000
    28  C    2.428733   1.408179   0.000000
    29  C    2.471840   2.856671   2.393088   0.000000
    30  C    2.833587   2.470991   1.391326   1.378964   0.000000
    31  H    3.916388   3.438115   2.146040   2.146638   1.084204
    32  H    3.411661   2.146158   1.080403   3.355474   2.119142
    33  H    5.577027   4.528624   5.182572   7.308843   6.555750
    34  H    3.445476   3.940163   3.384537   1.084282   2.148924
    35  H    3.455580   4.637418   4.780640   2.615493   3.991866
    36  H    3.983554   5.429232   6.133249   4.559877   5.802479
    37  H    4.692801   6.028920   7.114303   6.211185   7.211729
    38  H    6.517102   7.554701   8.855854   8.540681   9.300197
    39  H    7.555774   8.239692   9.625512   9.877175  10.364666
    40  H    8.074719   8.272721   9.629062  10.540624  10.666579
    41  H    7.839255   7.603740   8.831446  10.242901  10.057502
    42  H    6.826122   6.114583   7.097411   8.958587   8.450755
    43  H    5.987064   5.016728   5.773887   7.761854   7.113760
    44  H    5.949792   4.622467   4.719208   6.947006   5.957810
    45  H    4.032085   2.683448   2.475444   4.617738   3.624640
    46  H    6.034915   4.910531   5.475324   7.680700   6.859731
                   31         32         33         34         35
    31  H    0.000000
    32  H    2.427052   0.000000
    33  H    7.167693   4.816231   0.000000
    34  H    2.492975   4.256901   8.383356   0.000000
    35  H    4.680365   5.833775   9.018880   2.338855   0.000000
    36  H    6.701223   7.205596   9.170608   4.652244   2.450258
    37  H    8.234743   8.095988   8.736694   6.600297   4.671299
    38  H   10.370290   9.678989   8.854309   9.115704   7.406382
    39  H   11.434758  10.255974   8.226463  10.628517   9.253971
    40  H   11.674024   9.985019   6.728617  11.466914  10.599574
    41  H   10.963965   8.937974   4.916054  11.270351  10.886453
    42  H    9.209961   6.936470   2.528157  10.038448  10.208822
    43  H    7.771983   5.500132   2.613568   8.813683   9.296002
    44  H    6.302242   4.068195   3.420406   7.914281   9.014235
    45  H    4.024477   1.971700   4.161563   5.556846   6.804292
    46  H    7.416108   5.013563   0.684855   8.750912   9.471574
                   36         37         38         39         40
    36  H    0.000000
    37  H    2.377516   0.000000
    38  H    5.203811   2.829546   0.000000
    39  H    7.301144   5.021050   2.426864   0.000000
    40  H    9.097144   7.113706   5.038547   2.839678   0.000000
    41  H    9.870284   8.289765   6.832095   5.013661   2.415813
    42  H    9.818042   8.837352   8.229472   7.024531   4.958150
    43  H    9.354393   8.891960   8.956599   8.295330   6.788893
    44  H    9.743632   9.899850  10.605069  10.367951   9.163210
    45  H    7.850653   8.434453   9.695893   9.991039   9.416284
    46  H    9.688982   9.290008   9.399972   8.718396   7.107357
                   41         42         43         44         45
    41  H    0.000000
    42  H    2.778374   0.000000
    43  H    4.973193   2.526007   0.000000
    44  H    7.411650   4.795462   2.596290   0.000000
    45  H    8.143186   5.916619   3.973706   2.369491   0.000000
    46  H    5.157790   2.550534   2.333225   3.034983   4.158894
                   46
    46  H    0.000000
 Stoichiometry    C30H16
 Framework group  C1[X(C30H16)]
 Deg. of freedom   132
 Full point group                 C1      NOp   1
 Largest Abelian subgroup         C1      NOp   1
 Largest concise Abelian subgroup C1      NOp   1
                         Standard orientation:                         
 ---------------------------------------------------------------------
 Center     Atomic      Atomic             Coordinates (Angstroms)
 Number     Number       Type             X           Y           Z
 ---------------------------------------------------------------------
      1          6           0       -1.455396   -2.893589    0.092219
      2          6           0       -1.349856   -1.544976   -0.247418
      3          6           0       -2.468990   -0.714361   -0.380388
      4          6           0       -3.757020   -1.112368   -0.106705
      5          6           0       -2.804768   -3.367130    0.260464
      6          6           0       -3.900584   -2.512995    0.179867
      7          6           0       -2.019501    0.616722   -0.495463
      8          6           0       -2.913687    1.702463   -0.261635
      9          6           0       -4.315440    1.299384   -0.078243
     10          6           0       -4.714637   -0.009328   -0.018305
     11          6           0       -0.629379    0.633531   -0.417437
     12          6           0        0.060765    1.819206   -0.157051
     13          6           0       -0.818763    3.092854   -0.286703
     14          6           0       -2.322461    2.920819   -0.108618
     15          6           0       -0.209095   -3.522993    0.303529
     16          6           0        0.995260   -2.796331    0.229962
     17          6           0        1.041048   -1.352761   -0.002144
     18          6           0       -0.187870   -0.758930   -0.253077
     19          6           0       -0.336078    4.268377    0.574901
     20          6           0        1.419744    1.897446    0.094088
     21          6           0        1.914067    3.185901    0.584863
     22          6           0        1.138976    4.263760    0.804837
     23          6           0        2.243130   -3.490509    0.373055
     24          6           0        3.416949   -2.837388    0.223750
     25          6           0        3.488029   -1.417991   -0.018542
     26          6           0        2.298415   -0.620155   -0.033004
     27          6           0        2.436034    0.821959   -0.134735
     28          6           0        3.723276    1.303974   -0.440738
     29          6           0        4.750109   -0.849121   -0.249249
     30          6           0        4.856267    0.499846   -0.514884
     31          1           0        5.814814    0.943832   -0.758935
     32          1           0        3.847080    2.359301   -0.636255
     33          1           0       -0.664408    3.996063   -1.040696
     34          1           0        5.626059   -1.488149   -0.244384
     35          1           0        4.354935   -3.379016    0.283925
     36          1           0        2.225422   -4.557753    0.565907
     37          1           0       -0.151791   -4.581788    0.536491
     38          1           0       -2.975957   -4.409817    0.507434
     39          1           0       -4.887134   -2.919627    0.379348
     40          1           0       -5.764850   -0.229124    0.145713
     41          1           0       -5.061027    2.079379    0.038032
     42          1           0       -2.890890    3.811123    0.142583
     43          1           0       -0.839255    4.224627    1.556980
     44          1           0        1.575096    5.137983    1.278747
     45          1           0        2.953353    3.252881    0.877141
     46          1           0       -0.632709    4.608192   -0.735214
 ---------------------------------------------------------------------
 Rotational constants (GHZ):           0.2386518           0.1765052           0.1034215
 Standard basis: 6-311+G(d,p) (5D, 7F)
 There are   786 symmetry adapted cartesian basis functions of A   symmetry.
 There are   756 symmetry adapted basis functions of A   symmetry.
   756 basis functions,  1208 primitive gaussians,   786 cartesian basis functions
    98 alpha electrons       98 beta electrons
       nuclear repulsion energy      2627.6305856010 Hartrees.
 NAtoms=   46 NActive=   46 NUniq=   46 SFac= 1.00D+00 NAtFMM=   60 NAOKFM=F Big=F
 Integral buffers will be    131072 words long.
 Raffenetti 2 integral format.
 Two-electron integral symmetry is turned on.
 One-electron integrals computed using PRISM.
 NBasis=   756 RedAO= T EigKep=  1.23D-06  NBF=   756
 NBsUse=   735 1.00D-06 EigRej=  8.71D-07 NBFU=   735
 ExpMin= 4.38D-02 ExpMax= 4.56D+03 ExpMxC= 6.82D+02 IAcc=2 IRadAn=         4 AccDes= 0.00D+00
 Harris functional with IExCor=  402 and IRadAn=       4 diagonalized for initial guess.
 HarFok:  IExCor=  402 AccDes= 0.00D+00 IRadAn=         4 IDoV= 1 UseB2=F ITyADJ=14
 ICtDFT=  3500011 ScaDFX=  1.000000  1.000000  1.000000  1.000000
 FoFCou: FMM=F IPFlag=           0 FMFlag=      100000 FMFlg1=           0
         NFxFlg=           0 DoJE=T BraDBF=F KetDBF=T FulRan=T
         wScrn=  0.000000 ICntrl=       500 IOpCl=  0 I1Cent=   200000004 NGrid=           0
         NMat0=    1 NMatS0=      1 NMatT0=    0 NMatD0=    1 NMtDS0=    0 NMtDT0=    0
 Petite list used in FoFCou.
 Requested convergence on RMS density matrix=1.00D-08 within 128 cycles.
 Requested convergence on MAX density matrix=1.00D-06.
 Requested convergence on             energy=1.00D-06.
 No special actions if energy rises.
 SCF Done:  E(RB3LYP) =  -1152.82695126     A.U. after   20 cycles
            NFock= 20  Conv=0.62D-08     -V/T= 2.0042
 DoSCS=F DFT=T ScalE2(SS,OS)=  1.000000  1.000000
 Range of M.O.s used for correlation:     1   735
 NBasis=   756 NAE=    98 NBE=    98 NFC=     0 NFV=     0
 NROrb=    735 NOA=    98 NOB=    98 NVA=   637 NVB=   637

 **** Warning!!: The largest alpha MO coefficient is  0.13465424D+03


 **** Warning!!: The smallest alpha delta epsilon is  0.50763069D-01

 Symmetrizing basis deriv contribution to polar:
 IMax=3 JMax=2 DiffMx= 0.00D+00
 G2DrvN: will do    47 centers at a time, making    1 passes.
 Calling FoFCou, ICntrl=  3107 FMM=F I1Cent=   0 AccDes= 0.00D+00.
 End of G2Drv F.D. properties file   721 does not exist.
 End of G2Drv F.D. properties file   722 does not exist.
 End of G2Drv F.D. properties file   788 does not exist.
          IDoAtm=1111111111111111111111111111111111111111111111
          Differentiating once with respect to nuclear coordinates.
 CalDSu exits because no D1Ps are significant.
          There are   141 degrees of freedom in the 1st order CPHF.  IDoFFX=6 NUNeed=     0.
    135 vectors produced by pass  0 Test12= 6.24D-14 1.00D-09 XBig12= 3.46D-01 2.25D-01.
 AX will form   135 AO Fock derivatives at one time.
    135 vectors produced by pass  1 Test12= 6.24D-14 1.00D-09 XBig12= 7.86D-02 7.03D-02.
    135 vectors produced by pass  2 Test12= 6.24D-14 1.00D-09 XBig12= 1.32D-03 6.66D-03.
    135 vectors produced by pass  3 Test12= 6.24D-14 1.00D-09 XBig12= 7.59D-06 2.58D-04.
    135 vectors produced by pass  4 Test12= 6.24D-14 1.00D-09 XBig12= 2.09D-08 1.17D-05.
    135 vectors produced by pass  5 Test12= 6.24D-14 1.00D-09 XBig12= 1.10D-10 1.12D-06.
    114 vectors produced by pass  6 Test12= 6.24D-14 1.00D-09 XBig12= 1.76D-11 3.19D-07.
     84 vectors produced by pass  7 Test12= 6.24D-14 1.00D-09 XBig12= 2.75D-12 9.02D-08.
     49 vectors produced by pass  8 Test12= 6.24D-14 1.00D-09 XBig12= 1.93D-13 2.40D-08.
      7 vectors produced by pass  9 Test12= 6.24D-14 1.00D-09 XBig12= 1.38D-15 1.92D-09.
      2 vectors produced by pass 10 Test12= 6.24D-14 1.00D-09 XBig12= 5.42D-16 1.60D-09.
      1 vectors produced by pass 11 Test12= 6.24D-14 1.00D-09 XBig12= 3.48D-16 1.16D-09.
 InvSVY:  IOpt=1 It=  1 EMax= 1.05D-15
 Solved reduced A of dimension  1067 with   141 vectors.
 End of Minotr F.D. properties file   721 does not exist.
 End of Minotr F.D. properties file   722 does not exist.
 End of Minotr F.D. properties file   788 does not exist.

 **********************************************************************

            Population analysis using the SCF Density.

 **********************************************************************

 Orbital symmetries:
       Occupied  (A) (A) (A) (A) (A) (A) (A) (A) (A) (A) (A) (A)
                 (A) (A) (A) (A) (A) (A) (A) (A) (A) (A) (A) (A)
                 (A) (A) (A) (A) (A) (A) (A) (A) (A) (A) (A) (A)
                 (A) (A) (A) (A) (A) (A) (A) (A) (A) (A) (A) (A)
                 (A) (A) (A) (A) (A) (A) (A) (A) (A) (A) (A) (A)
                 (A) (A) (A) (A) (A) (A) (A) (A) (A) (A) (A) (A)
                 (A) (A) (A) (A) (A) (A) (A) (A) (A) (A) (A) (A)
                 (A) (A) (A) (A) (A) (A) (A) (A) (A) (A) (A) (A)
                 (A) (A)
       Virtual   (A) (A) (A) (A) (A) (A) (A) (A) (A) (A) (A) (A)
                 (A) (A) (A) (A) (A) (A) (A) (A) (A) (A) (A) (A)
                 (A) (A) (A) (A) (A) (A) (A) (A) (A) (A) (A) (A)
                 (A) (A) (A) (A) (A) (A) (A) (A) (A) (A) (A) (A)
                 (A) (A) (A) (A) (A) (A) (A) (A) (A) (A) (A) (A)
                 (A) (A) (A) (A) (A) (A) (A) (A) (A) (A) (A) (A)
                 (A) (A) (A) (A) (A) (A) (A) (A) (A) (A) (A) (A)
                 (A) (A) (A) (A) (A) (A) (A) (A) (A) (A) (A) (A)
                 (A) (A) (A) (A) (A) (A) (A) (A) (A) (A) (A) (A)
                 (A) (A) (A) (A) (A) (A) (A) (A) (A) (A) (A) (A)
                 (A) (A) (A) (A) (A) (A) (A) (A) (A) (A) (A) (A)
                 (A) (A) (A) (A) (A) (A) (A) (A) (A) (A) (A) (A)
                 (A) (A) (A) (A) (A) (A) (A) (A) (A) (A) (A) (A)
                 (A) (A) (A) (A) (A) (A) (A) (A) (A) (A) (A) (A)
                 (A) (A) (A) (A) (A) (A) (A) (A) (A) (A) (A) (A)
                 (A) (A) (A) (A) (A) (A) (A) (A) (A) (A) (A) (A)
                 (A) (A) (A) (A) (A) (A) (A) (A) (A) (A) (A) (A)
                 (A) (A) (A) (A) (A) (A) (A) (A) (A) (A) (A) (A)
                 (A) (A) (A) (A) (A) (A) (A) (A) (A) (A) (A) (A)
                 (A) (A) (A) (A) (A) (A) (A) (A) (A) (A) (A) (A)
                 (A) (A) (A) (A) (A) (A) (A) (A) (A) (A) (A) (A)
                 (A) (A) (A) (A) (A) (A) (A) (A) (A) (A) (A) (A)
                 (A) (A) (A) (A) (A) (A) (A) (A) (A) (A) (A) (A)
                 (A) (A) (A) (A) (A) (A) (A) (A) (A) (A) (A) (A)
                 (A) (A) (A) (A) (A) (A) (A) (A) (A) (A) (A) (A)
                 (A) (A) (A) (A) (A) (A) (A) (A) (A) (A) (A) (A)
                 (A) (A) (A) (A) (A) (A) (A) (A) (A) (A) (A) (A)
                 (A) (A) (A) (A) (A) (A) (A) (A) (A) (A) (A) (A)
                 (A) (A) (A) (A) (A) (A) (A) (A) (A) (A) (A) (A)
                 (A) (A) (A) (A) (A) (A) (A) (A) (A) (A) (A) (A)
                 (A) (A) (A) (A) (A) (A) (A) (A) (A) (A) (A) (A)
                 (A) (A) (A) (A) (A) (A) (A) (A) (A) (A) (A) (A)
                 (A) (A) (A) (A) (A) (A) (A) (A) (A) (A) (A) (A)
                 (A) (A) (A) (A) (A) (A) (A) (A) (A) (A) (A) (A)
                 (A) (A) (A) (A) (A) (A) (A) (A) (A) (A) (A) (A)
                 (A) (A) (A) (A) (A) (A) (A) (A) (A) (A) (A) (A)
                 (A) (A) (A) (A) (A) (A) (A) (A) (A) (A) (A) (A)
                 (A) (A) (A) (A) (A) (A) (A) (A) (A) (A) (A) (A)
                 (A) (A) (A) (A) (A) (A) (A) (A) (A) (A) (A) (A)
                 (A) (A) (A) (A) (A) (A) (A) (A) (A) (A) (A) (A)
                 (A) (A) (A) (A) (A) (A) (A) (A) (A) (A) (A) (A)
                 (A) (A) (A) (A) (A) (A) (A) (A) (A) (A) (A) (A)
                 (A) (A) (A) (A) (A) (A) (A) (A) (A) (A) (A) (A)
                 (A) (A) (A) (A) (A) (A) (A) (A) (A) (A) (A) (A)
                 (A) (A) (A) (A) (A) (A) (A) (A) (A) (A) (A) (A)
                 (A) (A) (A) (A) (A) (A) (A) (A) (A) (A) (A) (A)
                 (A) (A) (A) (A) (A) (A) (A) (A) (A) (A) (A) (A)
                 (A) (A) (A) (A) (A) (A) (A) (A) (A) (A) (A) (A)
                 (A) (A) (A) (A) (A) (A) (A) (A) (A) (A) (A) (A)
                 (A) (A) (A) (A) (A) (A) (A) (A) (A) (A) (A) (A)
                 (A) (A) (A) (A) (A) (A) (A) (A) (A) (A) (A) (A)
                 (A) (A) (A) (A) (A) (A) (A) (A) (A) (A) (A) (A)
                 (A) (A) (A) (A) (A) (A) (A) (A) (A) (A) (A) (A)
                 (A)
 The electronic state is 1-A.
 Alpha  occ. eigenvalues --  -10.22094 -10.21360 -10.21017 -10.20969 -10.20753
 Alpha  occ. eigenvalues --  -10.20199 -10.20047 -10.19926 -10.19695 -10.19468
 Alpha  occ. eigenvalues --  -10.19424 -10.19385 -10.19358 -10.19356 -10.19246
 Alpha  occ. eigenvalues --  -10.19224 -10.18888 -10.18809 -10.18738 -10.18689
 Alpha  occ. eigenvalues --  -10.18658 -10.18599 -10.18536 -10.18509 -10.18439
 Alpha  occ. eigenvalues --  -10.17652 -10.17533 -10.16987 -10.16775 -10.16656
 Alpha  occ. eigenvalues --   -0.92341  -0.89245  -0.88553  -0.85762  -0.84295
 Alpha  occ. eigenvalues --   -0.84122  -0.81316  -0.80115  -0.78648  -0.78185
 Alpha  occ. eigenvalues --   -0.75922  -0.75358  -0.73673  -0.71836  -0.70657
 Alpha  occ. eigenvalues --   -0.66912  -0.66521  -0.64367  -0.63557  -0.62627
 Alpha  occ. eigenvalues --   -0.60507  -0.59662  -0.58986  -0.57667  -0.56676
 Alpha  occ. eigenvalues --   -0.54745  -0.52721  -0.51855  -0.51372  -0.51033
 Alpha  occ. eigenvalues --   -0.49450  -0.48843  -0.47525  -0.47182  -0.45837
 Alpha  occ. eigenvalues --   -0.45463  -0.44985  -0.43987  -0.43574  -0.43138
 Alpha  occ. eigenvalues --   -0.42740  -0.42313  -0.41424  -0.41132  -0.40539
 Alpha  occ. eigenvalues --   -0.40165  -0.39936  -0.38834  -0.38505  -0.37020
 Alpha  occ. eigenvalues --   -0.36358  -0.36087  -0.35473  -0.34944  -0.34751
 Alpha  occ. eigenvalues --   -0.34040  -0.33149  -0.32782  -0.32332  -0.30299
 Alpha  occ. eigenvalues --   -0.29874  -0.27816  -0.26876  -0.25048  -0.23871
 Alpha  occ. eigenvalues --   -0.22538  -0.21295  -0.16825
 Alpha virt. eigenvalues --   -0.11749  -0.08729  -0.05354  -0.04524  -0.02636
 Alpha virt. eigenvalues --   -0.01309  -0.00408   0.00056   0.00493   0.00983
 Alpha virt. eigenvalues --    0.01072   0.01607   0.01934   0.02706   0.02886
 Alpha virt. eigenvalues --    0.03068   0.03198   0.03738   0.03987   0.04636
 Alpha virt. eigenvalues --    0.04827   0.05024   0.05284   0.05470   0.05996
 Alpha virt. eigenvalues --    0.06566   0.06785   0.07129   0.07327   0.07813
 Alpha virt. eigenvalues --    0.08364   0.08471   0.08722   0.09008   0.09247
 Alpha virt. eigenvalues --    0.09583   0.09845   0.10208   0.10487   0.11046
 Alpha virt. eigenvalues --    0.11471   0.11861   0.11946   0.12282   0.12592
 Alpha virt. eigenvalues --    0.12895   0.13119   0.13755   0.13984   0.14404
 Alpha virt. eigenvalues --    0.14650   0.14996   0.15167   0.15257   0.15739
 Alpha virt. eigenvalues --    0.15991   0.16219   0.16284   0.16503   0.16731
 Alpha virt. eigenvalues --    0.16779   0.16868   0.17241   0.17460   0.17686
 Alpha virt. eigenvalues --    0.17931   0.18496   0.18614   0.18912   0.19012
 Alpha virt. eigenvalues --    0.19370   0.19454   0.19598   0.19788   0.19909
 Alpha virt. eigenvalues --    0.20221   0.20332   0.20510   0.20657   0.20938
 Alpha virt. eigenvalues --    0.21192   0.21289   0.21573   0.21727   0.22086
 Alpha virt. eigenvalues --    0.22353   0.22608   0.22816   0.22950   0.23272
 Alpha virt. eigenvalues --    0.23567   0.23853   0.24003   0.24252   0.24438
 Alpha virt. eigenvalues --    0.24763   0.25035   0.25187   0.25395   0.25562
 Alpha virt. eigenvalues --    0.25747   0.26059   0.26342   0.26587   0.26805
 Alpha virt. eigenvalues --    0.27009   0.27029   0.27429   0.27695   0.28035
 Alpha virt. eigenvalues --    0.28249   0.28312   0.28613   0.28881   0.29498
 Alpha virt. eigenvalues --    0.29709   0.30064   0.30280   0.30632   0.30669
 Alpha virt. eigenvalues --    0.31294   0.31379   0.31776   0.31979   0.32254
 Alpha virt. eigenvalues --    0.32412   0.32911   0.33071   0.33374   0.33573
 Alpha virt. eigenvalues --    0.34387   0.34613   0.34993   0.35163   0.35473
 Alpha virt. eigenvalues --    0.36163   0.36671   0.36691   0.37210   0.37829
 Alpha virt. eigenvalues --    0.38096   0.38270   0.38701   0.39335   0.39589
 Alpha virt. eigenvalues --    0.40458   0.40890   0.41218   0.41696   0.42103
 Alpha virt. eigenvalues --    0.42690   0.43091   0.43805   0.44118   0.45153
 Alpha virt. eigenvalues --    0.45536   0.46129   0.47225   0.48073   0.48330
 Alpha virt. eigenvalues --    0.48717   0.50159   0.50412   0.50534   0.51484
 Alpha virt. eigenvalues --    0.52183   0.52505   0.52999   0.53256   0.53606
 Alpha virt. eigenvalues --    0.53940   0.54266   0.54606   0.55334   0.55706
 Alpha virt. eigenvalues --    0.56036   0.56603   0.56912   0.57385   0.57629
 Alpha virt. eigenvalues --    0.57713   0.58568   0.58921   0.59025   0.59341
 Alpha virt. eigenvalues --    0.59676   0.59884   0.59951   0.60983   0.61309
 Alpha virt. eigenvalues --    0.61635   0.61907   0.62530   0.62612   0.63266
 Alpha virt. eigenvalues --    0.63678   0.64271   0.65030   0.65265   0.65898
 Alpha virt. eigenvalues --    0.66069   0.66358   0.67151   0.67370   0.68130
 Alpha virt. eigenvalues --    0.68337   0.68544   0.68931   0.69531   0.69743
 Alpha virt. eigenvalues --    0.70163   0.70296   0.70734   0.71013   0.71619
 Alpha virt. eigenvalues --    0.71687   0.72060   0.72142   0.72673   0.73226
 Alpha virt. eigenvalues --    0.73285   0.73472   0.73773   0.74250   0.74606
 Alpha virt. eigenvalues --    0.74745   0.75217   0.75644   0.76279   0.76540
 Alpha virt. eigenvalues --    0.76708   0.77164   0.78204   0.78390   0.78839
 Alpha virt. eigenvalues --    0.79592   0.80145   0.80286   0.80888   0.82081
 Alpha virt. eigenvalues --    0.82615   0.83163   0.83863   0.84867   0.85090
 Alpha virt. eigenvalues --    0.85419   0.86616   0.87292   0.87693   0.87899
 Alpha virt. eigenvalues --    0.88667   0.89217   0.89720   0.90096   0.90388
 Alpha virt. eigenvalues --    0.90767   0.91048   0.91725   0.91924   0.92703
 Alpha virt. eigenvalues --    0.93154   0.93426   0.93892   0.94187   0.94626
 Alpha virt. eigenvalues --    0.95086   0.95222   0.95785   0.96233   0.96392
 Alpha virt. eigenvalues --    0.96630   0.96786   0.97487   0.98236   0.99028
 Alpha virt. eigenvalues --    0.99452   0.99609   0.99950   1.00818   1.01404
 Alpha virt. eigenvalues --    1.02410   1.02750   1.03688   1.04001   1.04738
 Alpha virt. eigenvalues --    1.05142   1.05775   1.05980   1.07100   1.07945
 Alpha virt. eigenvalues --    1.08179   1.08825   1.09685   1.10463   1.11124
 Alpha virt. eigenvalues --    1.11736   1.12903   1.14262   1.14908   1.15463
 Alpha virt. eigenvalues --    1.16188   1.16887   1.17190   1.17992   1.18995
 Alpha virt. eigenvalues --    1.19678   1.22169   1.23114   1.23678   1.23875
 Alpha virt. eigenvalues --    1.24967   1.26280   1.28969   1.29867   1.30523
 Alpha virt. eigenvalues --    1.31013   1.32948   1.33610   1.35150   1.36582
 Alpha virt. eigenvalues --    1.37445   1.38169   1.38607   1.40100   1.40800
 Alpha virt. eigenvalues --    1.42350   1.42606   1.43275   1.44562   1.44947
 Alpha virt. eigenvalues --    1.45918   1.46185   1.46889   1.48032   1.48501
 Alpha virt. eigenvalues --    1.49525   1.49947   1.50257   1.50635   1.50821
 Alpha virt. eigenvalues --    1.51644   1.51790   1.53003   1.53710   1.53817
 Alpha virt. eigenvalues --    1.54520   1.55112   1.55973   1.56893   1.57322
 Alpha virt. eigenvalues --    1.57868   1.58061   1.58716   1.59046   1.59711
 Alpha virt. eigenvalues --    1.61312   1.61651   1.62246   1.62964   1.63298
 Alpha virt. eigenvalues --    1.64867   1.65426   1.66707   1.67643   1.68447
 Alpha virt. eigenvalues --    1.68910   1.69567   1.70137   1.71353   1.71721
 Alpha virt. eigenvalues --    1.72136   1.72526   1.73541   1.73918   1.74662
 Alpha virt. eigenvalues --    1.75620   1.75978   1.76421   1.76845   1.77882
 Alpha virt. eigenvalues --    1.78409   1.79413   1.80294   1.81313   1.81694
 Alpha virt. eigenvalues --    1.82408   1.82862   1.83973   1.84825   1.85188
 Alpha virt. eigenvalues --    1.85696   1.86286   1.86521   1.86837   1.88356
 Alpha virt. eigenvalues --    1.88719   1.89085   1.89398   1.89788   1.90247
 Alpha virt. eigenvalues --    1.90750   1.92185   1.93004   1.93871   1.94013
 Alpha virt. eigenvalues --    1.94301   1.94566   1.94713   1.95622   1.96866
 Alpha virt. eigenvalues --    1.97365   1.97624   1.98103   1.99811   2.01208
 Alpha virt. eigenvalues --    2.01828   2.02286   2.03361   2.03783   2.04604
 Alpha virt. eigenvalues --    2.04704   2.05360   2.05721   2.06498   2.08307
 Alpha virt. eigenvalues --    2.08922   2.09832   2.10749   2.11891   2.11985
 Alpha virt. eigenvalues --    2.12851   2.13167   2.13467   2.14470   2.16096
 Alpha virt. eigenvalues --    2.16768   2.17548   2.18823   2.19519   2.20050
 Alpha virt. eigenvalues --    2.21267   2.22170   2.22481   2.24523   2.24831
 Alpha virt. eigenvalues --    2.24989   2.26321   2.27292   2.27841   2.29562
 Alpha virt. eigenvalues --    2.31690   2.32846   2.33330   2.34034   2.36725
 Alpha virt. eigenvalues --    2.37708   2.37967   2.39994   2.40316   2.40627
 Alpha virt. eigenvalues --    2.42121   2.42758   2.43483   2.45668   2.46872
 Alpha virt. eigenvalues --    2.47252   2.48318   2.50981   2.51705   2.53338
 Alpha virt. eigenvalues --    2.54192   2.55122   2.55752   2.56811   2.57397
 Alpha virt. eigenvalues --    2.58822   2.59525   2.62279   2.62374   2.64122
 Alpha virt. eigenvalues --    2.65362   2.66742   2.68523   2.69362   2.70303
 Alpha virt. eigenvalues --    2.70823   2.71088   2.71544   2.71811   2.72303
 Alpha virt. eigenvalues --    2.72637   2.73453   2.74368   2.74709   2.75238
 Alpha virt. eigenvalues --    2.75491   2.75900   2.75995   2.76816   2.77306
 Alpha virt. eigenvalues --    2.77645   2.77829   2.78454   2.79569   2.80480
 Alpha virt. eigenvalues --    2.80718   2.81269   2.82120   2.82843   2.83347
 Alpha virt. eigenvalues --    2.83894   2.85316   2.86166   2.86692   2.87550
 Alpha virt. eigenvalues --    2.87812   2.88658   2.90143   2.90636   2.91165
 Alpha virt. eigenvalues --    2.92888   2.93096   2.95019   2.96638   2.97657
 Alpha virt. eigenvalues --    2.98486   2.99311   3.00664   3.01261   3.03551
 Alpha virt. eigenvalues --    3.05357   3.06076   3.07738   3.08714   3.10609
 Alpha virt. eigenvalues --    3.11541   3.13126   3.13398   3.13846   3.16356
 Alpha virt. eigenvalues --    3.17926   3.19099   3.20390   3.21173   3.22063
 Alpha virt. eigenvalues --    3.24086   3.24833   3.26944   3.29344   3.30769
 Alpha virt. eigenvalues --    3.32160   3.32976   3.33419   3.34500   3.36932
 Alpha virt. eigenvalues --    3.38411   3.39124   3.40134   3.40332   3.41686
 Alpha virt. eigenvalues --    3.42744   3.44064   3.47439   3.47957   3.49762
 Alpha virt. eigenvalues --    3.50506   3.51794   3.53912   3.56665   3.58246
 Alpha virt. eigenvalues --    3.60132   3.60791   3.61100   3.62751   3.65557
 Alpha virt. eigenvalues --    3.69112   3.69816   3.71702   3.80985   3.82215
 Alpha virt. eigenvalues --    3.84409   3.85819   3.92140   3.94924   3.99022
 Alpha virt. eigenvalues --    4.05125   4.05191   4.06170   4.07578   4.09705
 Alpha virt. eigenvalues --    4.09840   4.15139   4.18719   4.23539   4.26674
 Alpha virt. eigenvalues --    4.34291   4.45833   4.50289   4.63777   4.71138
 Alpha virt. eigenvalues --    4.72699   4.75299   4.76392   4.78244   4.81291
 Alpha virt. eigenvalues --    4.83768   4.88443  23.39250  23.62658  23.66951
 Alpha virt. eigenvalues --   23.76273  23.78250  23.80499  23.82283  23.84404
 Alpha virt. eigenvalues --   23.85717  23.89207  23.90836  23.91771  23.92405
 Alpha virt. eigenvalues --   23.92981  23.97593  23.99171  24.00270  24.05476
 Alpha virt. eigenvalues --   24.06340  24.07840  24.09713  24.10231  24.12126
 Alpha virt. eigenvalues --   24.13643  24.15792  24.17554  24.18328  24.19375
 Alpha virt. eigenvalues --   24.22496  24.23066
          Condensed to atoms (all electrons):
               1          2          3          4          5          6
     1  C   11.969425  -0.073925  -0.827060   0.867952  -0.706701  -0.737097
     2  C   -0.073925   9.207757   0.905284  -0.506423  -0.199669   1.438376
     3  C   -0.827060   0.905284  11.461453   1.256371   1.089017  -3.056875
     4  C    0.867952  -0.506423   1.256371  15.959049   0.215401  -2.259969
     5  C   -0.706701  -0.199669   1.089017   0.215401  10.124005   1.235260
     6  C   -0.737097   1.438376  -3.056875  -2.259969   1.235260  13.694725
     7  C   -0.679766   0.551376   2.433759  -1.877433  -0.185044  -2.146410
     8  C    0.137319   0.541809  -0.130696   1.879658  -0.050188   0.806989
     9  C    0.229945  -1.090456   3.194816   0.145591   0.407896  -2.177649
    10  C   -0.228427  -1.104957  -1.076560  -3.126317  -0.578331  -1.522924
    11  C   -1.130256   0.678621  -2.076751  -1.706218  -0.704705   0.591553
    12  C   -0.480352  -0.438065  -0.841195  -0.145712  -0.304331   0.233898
    13  C   -0.615053  -0.514331  -0.312256  -1.278951   0.065362  -0.301351
    14  C   -0.412957  -0.447370  -2.098834  -1.296494  -0.150674   0.084421
    15  C    1.585290   0.019368  -0.740785  -0.545371  -1.139004   0.083601
    16  C   -0.389195  -0.799368  -0.530981  -0.010343  -0.260498  -0.176404
    17  C   -0.689040   0.124590  -0.876831  -0.709552  -1.061143   0.570880
    18  C   -0.361376  -0.288065  -1.060914  -1.031927  -1.123830  -0.614061
    19  C    0.032894   0.044157  -0.015099   0.055761  -0.012069   0.007077
    20  C    0.413101  -0.614649  -0.623618   0.382366  -0.058841   0.187955
    21  C    0.216256   0.044268   0.093153   0.331178  -0.007559   0.049267
    22  C   -0.052612  -0.137215  -0.117078  -0.131024  -0.002439  -0.011244
    23  C   -0.795479  -0.626623  -0.148000  -0.096866  -0.360080  -0.113895
    24  C   -0.011012  -0.354610  -0.060570  -0.031942  -0.258215  -0.012241
    25  C    0.009435  -0.402734   0.107131  -0.108633  -0.040735   0.054699
    26  C   -1.125319   0.132803  -0.273824  -0.077291  -0.095403  -0.169444
    27  C   -0.294176   0.003189   0.087595  -0.138233  -0.121744  -0.035447
    28  C   -0.057677  -0.055064  -0.040529  -0.003312  -0.019813  -0.001084
    29  C   -0.040769  -0.174558   0.001515  -0.028564   0.010641   0.005490
    30  C   -0.008649  -0.024622   0.010134   0.009032  -0.009656   0.000425
    31  H    0.000038   0.000102  -0.000007   0.000002   0.000001  -0.000000
    32  H   -0.000185   0.000434   0.000142   0.000102  -0.000028   0.000002
    33  H    0.000672   0.001938   0.014516   0.000047   0.000022  -0.000811
    34  H    0.000507   0.000045   0.000030  -0.000002   0.000033   0.000001
    35  H    0.002678   0.000692   0.000137   0.000013   0.000270   0.000013
    36  H    0.045620   0.007172   0.001329   0.000189   0.004443   0.000402
    37  H   -0.036339   0.018430  -0.001897   0.005293   0.027987   0.009165
    38  H   -0.072658   0.026697  -0.019705  -0.057758   0.377333   0.011929
    39  H   -0.003730  -0.004176   0.017250  -0.081093  -0.039284   0.400014
    40  H    0.008015  -0.007486   0.023396  -0.063798   0.019436   0.035041
    41  H   -0.001019  -0.003442  -0.022384  -0.056574  -0.001154   0.004473
    42  H    0.000160   0.001466  -0.002459   0.006731   0.000074  -0.000290
    43  H    0.000675  -0.000257   0.008768   0.001474   0.000057  -0.000128
    44  H    0.000022   0.000077   0.000120   0.000080   0.000002   0.000003
    45  H   -0.000444  -0.000892  -0.001168  -0.000114  -0.000023   0.000002
    46  H   -0.000114  -0.000268   0.005090  -0.003383  -0.000020  -0.000102
               7          8          9         10         11         12
[...]
 0.00000729,0.00005405,-0.00000644,-0.00000594,-0.00000117,-0.00000317,
 0.00003005,0.00001396,-0.00004950,-0.00042973,-0.00086784,0.00032890,-
 0.00000287,0.00000681,-0.00000131,-0.00000360,0.00000296,-0.00000078,0
 .00000193,0.00000300,-0.00000099,0.00000115,0.00000402,-0.00000062,-0.
 00000254,0.00000467,0.00001091,0.00000409,0.00000416,0.00000125,0.0000
 0687,0.00000756,0.00000448,-0.00000511,-0.00001186,-0.00000861,-0.0001
 6782,-0.00011698,-0.00050641,0.19254259,-0.00028376,0.00000738,-0.0000
 1807,0.00007865,-0.00005978,-0.00002451,-0.00007618,-0.00008398,0.0000
 6706,0.00016112,-0.00029206,-0.00000630,0.00027027,-0.00002228,-0.0000
 0979,-0.00014560,0.00022601,-0.00003778,0.00057112,0.00003591,0.000002
 71,-0.00029270,0.00074578,0.00013909,-0.00023885,-0.00016320,-0.000024
 74,-0.00005634,0.00028416,0.00002299,0.00088687,-0.00131099,0.00026910
 ,-0.00126183,-0.00134391,-0.00298233,0.01329950,-0.01296413,-0.0109053
 2,0.00174087,0.00023062,0.00094499,0.00021044,0.00000629,0.00001669,-0
 .00007618,-0.00022002,0.00004642,0.00028757,0.00025242,-0.00002648,-0.
 00041133,-0.00006176,-0.00006343,0.12856966,-0.15764801,-0.08963391,-0
 .00200948,-0.00246079,-0.00088860,-0.00055597,0.00690701,-0.00156423,0
 .00270973,-0.00003252,0.00256326,0.00001589,-0.00002623,0.00000368,-0.
 00001548,0.00000301,0.00000138,0.00005502,-0.00000275,-0.00001948,-0.0
 0019475,-0.00041093,-0.00004034,-0.00072353,0.00055797,0.00066392,0.00
 038565,0.00014720,0.00005347,-0.00006135,-0.00013449,0.00003795,-0.000
 08802,0.00015065,-0.00004752,-0.00000532,-0.00000059,-0.00000967,0.000
 00217,-0.00004075,0.00000310,-0.00073904,-0.00285862,0.00215607,-0.000
 00077,-0.00000096,0.00000572,-0.00000335,-0.00000252,0.00000036,0.0000
 0038,0.00000202,-0.00000110,0.00000272,0.00000069,-0.00001174,-0.00000
 426,0.00000444,0.00001563,0.00000219,0.00000373,0.00000193,0.00000431,
 0.00000698,0.00001083,-0.00000817,-0.00000644,-0.00002679,-0.00090751,
 0.00055249,-0.00010819,-0.13770351,0.16765165,0.00010816,-0.00004412,0
 .00005188,0.00008147,0.00006442,0.00003193,0.00008825,0.00035249,-0.00
 015920,-0.00039807,0.00019498,0.00006184,-0.00010768,0.00001341,-0.000
 00709,0.00006277,-0.00005768,0.00001873,-0.00089811,0.00039710,0.00000
 660,-0.00065278,-0.00093937,0.00025932,0.00035932,0.00015431,-0.000011
 66,0.00008943,-0.00044074,-0.00004617,0.00118389,0.00044688,-0.0002289
 5,-0.00129767,0.00073264,-0.00045813,0.00656556,-0.00038449,-0.0029259
 7,0.00192790,0.00081378,0.00019361,-0.00008610,-0.00001425,-0.00000634
 ,0.00004930,0.00013427,-0.00004910,-0.00002128,-0.00020220,-0.00001212
 ,0.00003851,0.00016209,0.00021667,0.07241471,-0.09204700,-0.07083655,0
 .00101736,0.00063087,0.00026607,-0.00206259,-0.00393881,0.00126187,-0.
 01090194,0.01212926,0.00429009,-0.00002325,0.00002463,-0.00000558,0.00
 002289,-0.00000910,0.00000280,0.00000995,0.00000762,0.00002085,-0.0000
 9122,0.00011710,0.00001450,0.00029190,-0.00011750,-0.00039933,-0.00016
 154,-0.00008563,0.00008806,-0.00002562,0.00003615,-0.00001693,0.000054
 59,0.00002933,-0.00000062,0.00000147,-0.00000132,0.00000317,0.00002096
 ,0.00008203,-0.00002483,-0.00032951,0.00012246,-0.00492361,0.00000098,
 0.00000549,-0.00000304,0.00000320,0.00000373,-0.00000025,0.00000339,-0
 .00000238,0.00000160,-0.00000323,0.00000089,0.00000890,0.00000066,-0.0
 0000621,-0.00002010,-0.00000205,-0.00000144,0.00000112,-0.00000499,-0.
 00000958,-0.00000983,-0.00000368,-0.00000192,0.00003814,-0.00070986,0.
 00003242,0.00004723,-0.07278397,0.09221749,0.07756017,0.00007807,-0.00
 003262,-0.00000216,0.00003383,-0.00001492,0.00000980,0.00001501,0.0000
 8591,-0.00000684,-0.00010482,0.00009656,0.00000495,-0.00007206,0.00000
 748,0.00000207,0.00004211,-0.00005872,0.00000761,-0.00028250,0.0001531
 2,-0.00004422,-0.00031607,-0.00025374,0.00012343,0.00013798,-0.0000346
 1,0.00008732,-0.00001821,-0.00011243,0.00000502,0.00022663,0.00038115,
 0.00016892,-0.00037271,0.00030852,0.00014557,-0.00343295,0.00241055,-0
 .00374714,0.00022919,-0.00021844,-0.00066173,-0.00006756,0.00000588,-0
 .00000589,0.00002568,0.00006501,-0.00001015,-0.00010352,-0.00008997,0.
 00000428,0.00005636,-0.00008643,0.00005628,-0.00463467,-0.02098797,-0.
 01711810,-0.00198099,0.00373194,0.00057310,0.01052763,0.01450569,0.011
 28393,-0.09283151,-0.06691256,-0.06151205,-0.00000573,0.00000423,-0.00
 000092,-0.00002932,0.00000884,-0.00000163,0.00003914,0.00009318,-0.000
 04415,-0.00020988,0.00021724,0.00010045,0.00091281,0.00068181,-0.00013
 475,-0.00008734,-0.00011123,-0.00009210,0.00003155,0.00003354,-0.00000
 906,0.00001053,-0.00006273,0.00003576,-0.00000444,0.00000584,0.0000083
 0,-0.00000575,0.00000031,0.00002191,-0.00008521,-0.00019926,-0.0003640
 5,-0.00000123,-0.00000089,0.00000043,0.00000231,0.00001038,-0.00000353
 ,0.00000068,-0.00000322,0.00000032,0.00000017,-0.00000313,0.00000190,0
 .00000087,-0.00000381,0.00000099,-0.00000444,-0.00000296,-0.00000132,-
 0.00000946,-0.00001329,-0.00001592,-0.00001510,0.00000885,0.00000094,-
 0.00008813,0.00002800,-0.00005034,0.00060273,-0.00033281,0.00119814,0.
 09261111,0.00006949,-0.00001931,-0.00000584,0.00002817,0.00002258,0.00
 000820,-0.00000230,0.00007924,-0.00003806,-0.00017851,0.00018382,0.000
 02485,-0.00008182,0.00005692,-0.00000725,0.00003166,-0.00010658,0.0000
 1780,-0.00056401,0.00018336,0.00002430,0.00024087,-0.00082288,0.000120
 08,0.00020169,0.00020031,0.00005535,0.00007145,-0.00026230,-0.00003755
 ,0.00011607,0.00039174,0.00038234,-0.00014478,0.00036571,0.00022835,0.
 00234714,0.00090224,-0.00475484,0.00052256,0.00134011,0.00011680,-0.00
 004140,0.00000037,0.00000027,-0.00000968,0.00004473,-0.00002496,0.0000
 0517,-0.00002329,-0.00000518,0.00005409,0.00001070,0.00003008,0.003916
 58,0.00644539,0.00280031,0.00417193,0.00093674,-0.00325851,-0.00789261
 ,-0.01397126,-0.01502585,-0.06960121,-0.19008554,-0.12685014,0.0000090
 7,-0.00001204,0.00000539,0.00003013,0.00000678,0.00000726,-0.00005215,
 -0.00010015,-0.00000815,0.00042528,0.00008434,0.00013756,-0.00053683,-
 0.00090564,0.00010221,-0.00020431,-0.00011943,-0.00003075,0.00002690,-
 0.00002162,-0.00000718,0.00003372,-0.00000166,0.00002104,0.00002343,-0
 .00000559,-0.00000212,-0.00005943,0.00007171,-0.00001559,-0.00047501,-
 0.00104827,-0.00007160,0.00000769,-0.00000516,-0.00000164,0.00000394,-
 0.00001961,-0.00000540,-0.00000287,-0.00000734,-0.00000022,-0.00000311
 ,-0.00000509,0.00000265,-0.00000141,-0.00000424,0.00000243,-0.00000316
 ,-0.00000177,-0.00000281,-0.00000233,0.00000485,-0.00001302,-0.0000057
 3,0.00000544,0.00000157,-0.00000290,-0.00001814,-0.00013346,-0.0004753
 9,-0.00105030,0.00137638,0.06952750,0.19774749,-0.00012074,-0.00002150
 ,0.00000646,-0.00006454,0.00000166,-0.00000838,0.00004590,-0.00015786,
 0.00002828,0.00021917,-0.00032006,-0.00000969,0.00020869,-0.00007144,0
 .00000061,-0.00009443,0.00024113,-0.00003828,0.00097762,-0.00029350,-0
 .00002652,-0.00048617,0.00147037,-0.00007456,-0.00028977,-0.00036602,0
 .00001202,-0.00016294,0.00041997,0.00004509,-0.00032848,-0.00064039,-0
 .00051290,0.00128186,0.00026106,-0.00002811,-0.00298386,0.00123316,0.0
 0847053,-0.00102166,-0.00228242,-0.00056034,0.00007391,-0.00002895,0.0
 0001011,-0.00003508,-0.00008876,0.00003225,0.00006961,0.00007310,-0.00
 001242,-0.00010115,0.00008376,-0.00002548,-0.00701283,-0.01067041,-0.0
 0519029,0.00042755,-0.00348013,0.00296027,-0.00645711,-0.00399678,0.00
 076833,-0.05644263,-0.12841971,-0.14883915,-0.00000368,0.00000181,-0.0
 0000272,0.00001657,-0.00000002,0.,-0.00000912,-0.00002566,0.00004334,0
 .00004527,-0.00021779,-0.00027650,-0.00082194,-0.00011596,0.00005700,0
 .00027977,0.00011394,0.00006195,-0.00001463,-0.00004214,0.00001528,-0.
 00004066,0.00005965,-0.00002774,0.00000780,-0.00000507,-0.00001008,0.0
 0001953,-0.00007927,-0.00000185,0.00056985,0.00105564,-0.00002201,0.00
 000138,-0.00000526,-0.00000262,0.00000285,-0.00000399,0.00000943,-0.00
 000082,-0.00000099,-0.00000066,0.00000220,-0.00000130,-0.00000242,0.00
 000045,-0.00000201,0.00000174,-0.00000337,0.00000252,0.00000656,-0.000
 00643,-0.00001499,0.00000468,-0.00000069,-0.00000115,-0.00000332,0.000
 00308,0.00003043,0.00014293,0.00040954,0.00253034,-0.00170620,0.069657
 17,0.14180908,0.14620172,-0.00002470,-0.00004752,0.00002036,0.00001256
 ,-0.00001549,0.00001403,-0.00005070,0.00002826,0.00002578,0.00000278,-
 0.00010441,-0.00001152,0.00004545,-0.00005500,0.00001138,-0.00000194,0
 .00008044,-0.00001600,0.00029352,-0.00035806,0.00014243,0.00002527,0.0
 0033161,0.00003492,-0.00004462,-0.00005297,-0.00001240,-0.00001764,0.0
 0005726,0.00000603,-0.00066219,0.00021308,-0.00036298,0.00185199,-0.00
 091134,-0.00131055,0.00042483,-0.00006626,-0.00006987,-0.00022516,-0.0
 0022994,-0.00009779,-0.00000991,-0.00001915,0.00000296,0.00004719,-0.0
 0014692,0.00002706,0.00019450,0.00016870,-0.00002686,-0.00008212,0.000
 11267,-0.00002020,0.00069167,0.00332817,0.00085514,-0.00819228,-0.0007
 5905,-0.00240844,-0.31380060,-0.01812910,-0.08755589,-0.01583243,-0.00
 252356,-0.00588149,-0.00012810,0.00007496,-0.00000521,0.00011814,0.000
 03949,-0.00003176,-0.00047159,-0.00005499,0.00012939,0.00018334,-0.001
 05243,-0.00001582,-0.00109825,0.00161751,0.00143268,-0.00077374,0.0018
 8178,0.00261911,0.00008415,0.00040948,-0.00024007,0.00052249,-0.000119
 84,0.00016208,-0.00001378,0.00001692,0.00013123,-0.00062074,0.00247464
 ,0.00162210,-0.00034676,-0.00051979,0.00022597,-0.00000470,0.00001973,
 -0.00007369,0.00000396,-0.00001022,-0.00000670,0.00000149,-0.00000299,
 -0.00000085,0.00000090,-0.00000304,-0.00000138,0.00000180,-0.00000305,
 -0.00000200,-0.00000424,-0.00000594,0.00000259,-0.00000443,-0.00000337
 ,0.00000440,-0.00000429,0.00000154,0.00000069,0.00000991,-0.00000329,0
 .00003078,-0.00050828,0.00006842,-0.00065118,0.00065294,-0.00038811,0.
 00079388,0.33765010,0.00000573,-0.00000120,0.00002246,0.00002194,-0.00
 003517,0.00002021,-0.00009123,0.00019237,0.00009054,-0.00014868,-0.000
 04072,-0.00002891,-0.00001321,-0.00004911,0.00000964,0.00001051,0.0000
 2762,-0.00002608,-0.00027245,-0.00047515,0.00036645,-0.00003631,-0.000
 20589,-0.00015783,0.00008354,0.00008499,-0.00007403,0.00004761,-0.0001
 3719,0.00002565,-0.00106534,0.00090751,-0.00053382,0.00049804,-0.00405
 111,-0.00365176,-0.00041105,-0.00036565,0.00065188,0.00026612,0.000213
 13,0.00019747,0.00000181,-0.00002108,-0.00000028,0.00004639,-0.0000819
 1,0.00002776,0.00007573,0.00011043,-0.00004651,0.00004536,0.00012893,-
 0.00004909,0.00242265,-0.00204089,-0.00385013,-0.02532054,-0.00025188,
 -0.00753940,-0.01579824,-0.05046430,-0.01448501,0.02521077,0.00217596,
 0.00782932,-0.00010425,0.00007816,-0.00001150,0.00010692,0.00002369,0.
 00002025,-0.00018423,-0.00007731,-0.00002454,-0.00004019,-0.00046899,0
 .00004966,-0.00181453,0.00054058,0.00103845,0.00090055,-0.00029873,-0.
 00088398,0.00012508,0.00028948,0.00001974,0.00048650,-0.00037645,0.000
 17686,-0.00003424,-0.00001443,-0.00009212,0.00048345,-0.00029895,-0.00
 136187,0.00019203,0.00023317,0.00014253,-0.00000386,0.00000988,-0.0000
 4203,-0.00000306,0.00000354,-0.00000622,0.00000642,0.00000206,0.000000
 35,0.00000282,-0.00000009,-0.00000724,0.00000219,0.00000027,-0.0000018
 6,-0.00000184,-0.00001005,0.00000278,-0.00000064,-0.00000195,0.0000092
 6,-0.00000822,-0.00000023,0.00000787,-0.00005954,0.00002377,0.00005848
 ,0.00124265,0.00025766,-0.00002219,-0.00064147,-0.00038704,0.00172257,
 0.01421616,0.05504711,0.00011543,0.00012938,-0.00003127,0.00009722,-0.
 00025921,0.00001049,-0.00011194,0.00032490,-0.00028701,-0.00010738,0.0
 0021406,0.00006982,-0.00026056,-0.00003729,0.00001917,0.00013531,-0.00
 020719,0.00007475,-0.00074674,-0.00011127,-0.00079149,0.00009355,-0.00
 071559,0.00005578,0.00021140,0.00007663,0.00000751,0.00003076,-0.00023
 867,-0.00000661,-0.00054469,0.00055984,0.00125074,-0.00227140,-0.00452
 518,0.00370001,-0.00002547,-0.00053062,0.00034147,0.00044039,0.0006049
 2,0.00000558,-0.00004020,0.00000293,-0.00000600,-0.00001810,0.00033467
 ,-0.00006970,-0.00043853,-0.00026143,0.00003516,0.00020872,0.00000536,
 0.00015387,0.00054391,-0.00370787,0.00423905,-0.00969979,0.00464778,-0
 .00102305,-0.09160460,-0.01912931,-0.06131404,0.00892064,0.00109617,0.
 00333094,0.00005596,0.00005394,-0.00002057,0.00003378,-0.00014435,0.00
 000686,0.00033760,0.00016936,-0.00007204,0.00007776,0.00108350,0.00013
 282,0.00138994,0.00012958,-0.00232913,-0.00005109,-0.00244571,-0.00042
 722,-0.00014214,-0.00022569,-0.00008035,0.00006755,0.00068521,-0.00012
 686,0.00005414,-0.00004209,0.00005009,0.00175715,-0.00120540,-0.001876
 52,0.00059013,0.00145311,-0.00019224,-0.00000474,0.00008500,0.00002041
 ,-0.00000148,0.00001670,0.00000858,0.00001531,-0.00000362,0.00001091,0
 .00000022,-0.00000998,0.00000427,-0.00000221,-0.00000362,-0.00000524,-
 0.00000093,-0.00000730,0.00000207,-0.00000614,-0.00000740,-0.00000961,
 -0.00001082,0.00000686,0.00000441,-0.00005420,0.00000120,-0.00010238,-
 0.00009261,-0.00051116,0.00095489,0.00081759,0.00229606,-0.00177972,0.
 08985636,0.02135513,0.05772140,0.00027675,-0.00057309,-0.00004839,-0.0
 0006910,0.00059443,-0.00008911,-0.00017141,-0.00082808,0.00017349,0.00
 059312,-0.00005534,-0.00003661,0.00020386,0.00020335,-0.00004296,-0.00
 010218,0.00000697,-0.00001926,0.00171434,0.00004183,-0.00009116,-0.000
 02751,0.00391404,0.00255475,-0.00079019,-0.00079236,-0.00046381,-0.000
 41409,0.00093462,-0.00017488,-0.00296579,0.00204782,-0.00021932,0.0084
 8722,0.00261918,-0.00594925,-0.01896802,-0.00659003,0.00778527,-0.0058
 1622,-0.00856061,0.00378627,-0.00050547,-0.00005579,-0.00002178,0.0000
 9814,0.00040930,-0.00013344,-0.00063385,-0.00027150,0.00007039,0.00038
 278,-0.00035935,0.00074211,-0.00473232,0.00760319,0.02669407,-0.000090
 31,0.00278379,-0.00185789,-0.00374222,0.00157371,0.00056616,-0.0060725
 5,0.00355395,-0.01011816,0.00003856,-0.00007334,0.00001471,-0.00006639
 ,0.00006959,-0.00001965,-0.00040344,0.00008278,-0.00009326,0.00109562,
 0.00056182,0.00012294,0.00039573,-0.00097801,0.00030984,-0.00080462,-0
 .00009718,-0.00013612,0.00046232,0.00028672,-0.00012765,0.00014000,-0.
 00061104,0.00013298,0.00002394,0.00000438,0.00003482,-0.00000453,0.000
 00470,-0.00000921,-0.00718177,-0.00284129,-0.01151717,0.00000489,0.000
 00212,0.00000122,0.00000155,-0.00001363,0.00000226,-0.00001002,-0.0000
 0521,0.00000301,-0.00001475,0.00000811,0.00002934,0.00000164,0.0000040
 3,0.00002711,0.00000818,0.00002317,-0.00000460,0.00004529,0.00000335,0
 .00010843,-0.00004970,-0.00002418,0.00002676,-0.00023813,0.00035566,-0
 .00014797,-0.00144336,-0.00312648,0.00562159,-0.00147374,-0.00113546,0
 .00138911,0.00010419,-0.00044785,0.00038495,0.04271356,0.00175748,0.00
 009219,-0.00006735,0.00012826,0.00000628,0.00014602,-0.00069058,0.0003
 0869,-0.00006611,-0.00160217,0.00328769,-0.00014687,-0.00238320,0.0009
 4975,-0.00001612,0.00095054,-0.00275530,0.00042142,-0.00707408,0.00264
 528,0.00043664,0.00073284,-0.01022120,-0.00277248,0.00268602,0.0027820
 9,-0.00030997,0.00123152,-0.00367231,0.00003145,0.00306582,0.00590509,
 0.00136244,-0.00979077,0.00077643,-0.00366630,-0.01496307,-0.03493581,
 0.06309172,0.00474183,0.01222130,-0.00276353,-0.00135475,0.00019006,-0
 .00009714,0.00050215,0.00126573,-0.00040513,-0.00165896,-0.00111994,0.
 00027759,0.00100280,-0.00075169,0.00049580,0.03587047,-0.02534696,0.09
 792021,0.01620882,0.02032700,0.01014599,0.00382515,-0.03439093,-0.0133
 5709,-0.04993461,0.01751891,-0.00439926,-0.00000593,-0.00007296,0.0000
 3589,-0.00010802,0.00021087,-0.00003542,-0.00067119,0.00012102,-0.0000
 9046,0.00237996,0.00248116,0.00048257,0.00452619,-0.00287985,-0.002234
 54,-0.00259166,-0.00080435,-0.00111888,0.00119281,0.00116892,-0.000358
 68,0.00089339,-0.00209335,0.00115435,0.00010871,-0.00001418,0.00010428
 ,-0.00016056,-0.00033018,-0.00055675,0.01268029,0.01270655,-0.02659108
 ,-0.00001241,-0.00004449,-0.00016640,0.00001497,-0.00002054,-0.0000067
 4,-0.00001908,-0.00002449,0.00001290,-0.00003558,-0.00000132,0.0000549
 0,-0.00003144,-0.00001060,-0.00002729,0.00000984,-0.00002669,-0.000071
 97,0.00004239,0.00003771,0.00003677,-0.00000231,0.00002384,0.00006418,
 0.00079386,-0.00018623,0.00024725,-0.00025367,0.00316392,-0.01195630,-
 0.00219426,-0.00008033,0.00024332,0.00044501,-0.00019485,-0.00100235,-
 0.00025281,0.03178805,0.00450276,0.00218019,0.00000344,-0.00052632,-0.
 00224721,0.00010914,-0.00112014,0.00279760,-0.00073321,-0.00522573,0.0
 0911706,-0.00047399,-0.00737889,0.00112497,0.00044143,0.00340142,-0.00
 736011,0.00117868,-0.01947021,0.00596043,0.00230259,-0.00683866,-0.034
 26577,-0.01333557,0.00996147,0.00777534,-0.00169882,0.00330313,-0.0121
 5175,0.00087373,0.00913116,0.00794765,0.00064461,-0.04660603,0.0166437
 1,-0.02189834,-0.01994548,0.02895685,0.17314007,0.04396292,0.02135134,
 -0.00786412,-0.00237256,0.00031680,-0.00021600,0.00156351,0.00195408,-
 0.00036041,-0.00278312,-0.00248611,0.00086527,0.00262764,0.00017587,-0
 .00063655,0.03548607,-0.05105970,0.04525238,0.04271661,0.04307003,0.02
 170480,0.01400286,-0.06684031,-0.02861320,-0.09099424,0.04099670,-0.00
 824184,-0.00064694,0.00038756,-0.00008983,0.00048918,0.00019626,-0.000
 04249,-0.00130839,-0.00058456,0.00028351,0.00157195,0.00242311,0.00034
 515,0.00663484,-0.00461024,-0.00092842,-0.00307653,0.00029805,-0.00101
 200,0.00070481,0.00245260,-0.00039501,0.00150350,-0.00244377,0.0007599
 0,-0.00005849,0.00001207,0.00009227,-0.00023184,-0.00049778,-0.0006266
 9,0.04347942,0.08836890,-0.04633785,-0.00000812,-0.00001624,-0.0001662
 5,0.00001316,0.00003496,-0.00003151,0.00002642,-0.00000486,0.00000366,
 -0.00001458,-0.00000678,0.00006450,-0.00003538,-0.00003833,-0.00021804
 ,-0.00001547,-0.00020299,-0.00019863,-0.00005648,-0.00017320,0.0000544
 0,0.00001199,0.00017933,0.00021043,0.00109957,-0.00021844,0.00253966,0
 .00161797,0.00518734,-0.00354849,-0.00049014,0.00072974,0.00028338,0.0
 0065130,-0.00094891,-0.00165998,-0.01925992,-0.10448147,-0.11182578\\0
 .00000178,-0.00000166,0.00000274,0.00000251,-0.00000298,-0.00000795,-0
 .00000100,-0.00000218,-0.00000244,-0.00000379,0.00000074,0.00000059,-0
 .00000052,0.00000154,0.00000777,0.00000341,-0.00000275,0.00000951,-0.0
 0000287,0.00000383,-0.00001318,-0.00000356,-0.00000548,0.00000147,0.00
 000223,-0.00000114,0.00000311,0.00000218,-0.00000320,0.00000561,-0.000
 00128,-0.00000126,0.00001660,-0.00001323,0.00000733,0.00000414,0.00002
 122,-0.00000429,-0.00001405,0.00000737,0.00001104,0.00000907,0.0000011
 5,0.00000101,0.00000334,0.00000126,0.00000090,-0.00000581,-0.00000129,
 0.00000021,0.00000592,0.00000226,-0.00000065,-0.00000865,-0.00004434,-
 0.00003505,0.00001977,0.00001277,0.00000065,0.00001754,0.00000148,-0.0
 0001456,-0.00003194,0.00001288,0.00002879,0.00000820,0.00000055,0.0000
 0001,0.00000105,0.00000083,0.00000125,-0.00000294,0.00000078,0.0000030
 4,0.00000883,0.00000170,0.00000377,0.00000717,-0.00000052,-0.00000477,
 -0.00000162,-0.00000228,-0.00000058,-0.00000571,0.00000051,0.00000058,
 -0.00000873,0.00000150,0.00000065,0.00000063,-0.00000058,0.00000136,-0
 .00000396,-0.00000332,-0.00000044,-0.00001312,0.00001916,0.00007217,0.
 00006108,0.00000073,0.00000230,0.00000117,0.00000181,0.00000282,0.0000
 0584,0.00000189,0.00000115,0.00000248,0.00000219,0.00000034,0.00000388
 ,0.00000180,-0.00000129,0.00000294,0.00000114,-0.00000205,0.00000312,0
 .00000031,-0.00000192,0.00000419,-0.00000079,-0.00000190,0.00000213,-0
 .00000328,0.00000004,-0.00000626,0.00000573,0.00001477,-0.00001531,-0.
 00000374,-0.00000499,0.00000498,0.00000307,0.00000872,-0.00001737,-0.0
 0002982,-0.00007589,-0.00006584\\\@


 Some scientists claim that hydrogen, because it is so
 plentiful, is the basic building block of the universe. 
 I dispute that. I say that stupidity is far more
 abundant than hydrogen, and THAT is the basic building 
 block of the universe.
                   --Frank Zappa
 Job cpu time:       1 days  0 hours  3 minutes 11.4 seconds.
 Elapsed time:       0 days  1 hours 12 minutes 21.8 seconds.
 File lengths (MBytes):  RWF=   2277 Int=      0 D2E=      0 Chk=     53 Scr=      1
 Normal termination of Gaussian 16 at Sat Sep  7 23:20:12 2019.
